
     Program PWSCF v.6.1 (svn rev. 13369) starts on 17Apr2018 at 14:12:22 

     This program is part of the open-source Quantum ESPRESSO suite
     for quantum simulation of materials; please cite
         "P. Giannozzi et al., J. Phys.:Condens. Matter 21 395502 (2009);
          URL http://www.quantum-espresso.org", 
     in publications or presentations arising from this work. More details at
     http://www.quantum-espresso.org/quote

     Parallel version (MPI), running on     8 processors
     R & G space division:  proc/nbgrp/npool/nimage =       8
     Waiting for input...
     Reading input from standard input

     Current dimensions of program PWSCF are:
     Max number of different atomic species (ntypx) = 10
     Max number of k-points (npk) =  40000
     Max angular momentum in pseudopotentials (lmaxx) =  3

     Subspace diagonalization in iterative solution of the eigenvalue problem:
     a serial algorithm will be used

 
     Parallelization info
     --------------------
     sticks:   dense  smooth     PW     G-vecs:    dense   smooth      PW
     Min         130     130     38                 2801     2801     440
     Max         131     131     40                 2803     2803     441
     Sum        1045    1045    313                22419    22419    3527
 


     bravais-lattice index     =            2
     lattice parameter (alat)  =       7.9700  a.u.
     unit-cell volume          =     126.5654 (a.u.)^3
     number of atoms/cell      =            2
     number of atomic types    =            2
     number of electrons       =        16.00
     number of Kohn-Sham states=            8
     kinetic-energy cutoff     =     120.0000  Ry
     charge density cutoff     =     480.0000  Ry
     convergence threshold     =      1.0E-08
     mixing beta               =       0.7000
     number of iterations used =            8  plain     mixing
     Exchange-correlation      = PBE ( 1  4  3  4 0 0)

     celldm(1)=   7.970000  celldm(2)=   0.000000  celldm(3)=   0.000000
     celldm(4)=   0.000000  celldm(5)=   0.000000  celldm(6)=   0.000000

     crystal axes: (cart. coord. in units of alat)
               a(1) = (  -0.500000   0.000000   0.500000 )  
               a(2) = (   0.000000   0.500000   0.500000 )  
               a(3) = (  -0.500000   0.500000   0.000000 )  

     reciprocal axes: (cart. coord. in units 2 pi/alat)
               b(1) = ( -1.000000 -1.000000  1.000000 )  
               b(2) = (  1.000000  1.000000  1.000000 )  
               b(3) = ( -1.000000  1.000000 -1.000000 )  


     PseudoPot. # 1 for Mg read from file:
     ../pseudo/Mg.pbe.UPF
     MD5 check sum: 4c04d8c6e0476e83eaecaf72fa8acc4d
     Pseudo is Norm-conserving, Zval = 10.0
     Generated using ONCVPSP code by D. R. Hamann
     Using radial grid of 1510 points,  4 beta functions with: 
                l(1) =   0
                l(2) =   0
                l(3) =   1
                l(4) =   1

     PseudoPot. # 2 for O  read from file:
     ../pseudo/O.pbe.UPF
     MD5 check sum: 3e3f909f7470e8921608ab6b1f57bbae
     Pseudo is Norm-conserving + core correction, Zval =  6.0
     Generated using ONCVPSP code by D. R. Hamann
     Using radial grid of  936 points,  5 beta functions with: 
                l(1) =   0
                l(2) =   0
                l(3) =   1
                l(4) =   1
                l(5) =   2

     atomic species   valence    mass     pseudopotential
        Mg            10.00    24.30500     Mg( 1.00)
        O              6.00    15.99940     O ( 1.00)

      6 Sym. Ops. (no inversion) found



   Cartesian axes

     site n.     atom                  positions (alat units)
         1           Mg  tau(   1) = (   0.0500000   0.0500000   0.0500000  )
         2           O   tau(   2) = (   0.5000000   0.5000000   0.5000000  )

     number of k points=    13
                       cart. coord. in units 2pi/alat
        k(    1) = (   0.0000000   0.0000000   0.0000000), wk =   0.0312500
        k(    2) = (  -0.2500000   0.2500000  -0.2500000), wk =   0.1875000
        k(    3) = (   0.5000000  -0.5000000   0.5000000), wk =   0.0937500
        k(    4) = (   0.0000000   0.5000000   0.0000000), wk =   0.1875000
        k(    5) = (   0.7500000  -0.2500000   0.7500000), wk =   0.1875000
        k(    6) = (   0.5000000   0.0000000   0.5000000), wk =   0.1875000
        k(    7) = (   0.0000000  -1.0000000   0.0000000), wk =   0.0937500
        k(    8) = (  -0.5000000  -1.0000000   0.0000000), wk =   0.1875000
        k(    9) = (  -0.2500000  -0.2500000  -0.2500000), wk =   0.0625000
        k(   10) = (   0.5000000   0.5000000   0.5000000), wk =   0.0312500
        k(   11) = (  -0.2500000  -0.7500000   0.7500000), wk =   0.3750000
        k(   12) = (   0.2500000   0.7500000   0.7500000), wk =   0.1875000
        k(   13) = (   0.0000000  -0.5000000   0.5000000), wk =   0.1875000

     Dense  grid:    22419 G-vectors     FFT dimensions: (  40,  40,  40)

     Estimated max dynamical RAM per process >       2.63MB

     Estimated total allocated dynamical RAM >      21.06MB

     Initial potential from superposition of free atoms

     starting charge   15.99920, renormalised to   16.00000
     Starting wfc are    9 randomized atomic wfcs

     total cpu time spent up to now is        0.2 secs

     per-process dynamical memory:    39.1 Mb

     Self-consistent Calculation

     iteration #  1     ecut=   120.00 Ry     beta=0.70
     Davidson diagonalization with overlap
     ethr =  1.00E-02,  avg # of iterations =  2.0

     total cpu time spent up to now is        0.3 secs

     total energy              =    -151.89116767 Ry
     Harris-Foulkes estimate   =    -152.20464466 Ry
     estimated scf accuracy    <       0.43533926 Ry

     iteration #  2     ecut=   120.00 Ry     beta=0.70
     Davidson diagonalization with overlap
     ethr =  2.72E-03,  avg # of iterations =  2.5

     total cpu time spent up to now is        0.4 secs

     total energy              =    -152.00263076 Ry
     Harris-Foulkes estimate   =    -152.18229580 Ry
     estimated scf accuracy    <       0.36673091 Ry

     iteration #  3     ecut=   120.00 Ry     beta=0.70
     Davidson diagonalization with overlap
     ethr =  2.29E-03,  avg # of iterations =  2.0

     total cpu time spent up to now is        0.4 secs

     total energy              =    -152.07541241 Ry
     Harris-Foulkes estimate   =    -152.07557601 Ry
     estimated scf accuracy    <       0.00174891 Ry

     iteration #  4     ecut=   120.00 Ry     beta=0.70
     Davidson diagonalization with overlap
     ethr =  1.09E-05,  avg # of iterations =  2.0

     total cpu time spent up to now is        0.5 secs

     total energy              =    -152.07578409 Ry
     Harris-Foulkes estimate   =    -152.07579451 Ry
     estimated scf accuracy    <       0.00002595 Ry

     iteration #  5     ecut=   120.00 Ry     beta=0.70
     Davidson diagonalization with overlap
     ethr =  1.62E-07,  avg # of iterations =  1.2

     total cpu time spent up to now is        0.6 secs

     total energy              =    -152.07578616 Ry
     Harris-Foulkes estimate   =    -152.07578565 Ry
     estimated scf accuracy    <       0.00000232 Ry

     iteration #  6     ecut=   120.00 Ry     beta=0.70
     Davidson diagonalization with overlap
     ethr =  1.45E-08,  avg # of iterations =  2.0

     total cpu time spent up to now is        0.7 secs

     total energy              =    -152.07578667 Ry
     Harris-Foulkes estimate   =    -152.07578678 Ry
     estimated scf accuracy    <       0.00000039 Ry

     iteration #  7     ecut=   120.00 Ry     beta=0.70
     Davidson diagonalization with overlap
     ethr =  2.45E-09,  avg # of iterations =  1.0

     total cpu time spent up to now is        0.7 secs

     total energy              =    -152.07578659 Ry
     Harris-Foulkes estimate   =    -152.07578668 Ry
     estimated scf accuracy    <       0.00000015 Ry

     iteration #  8     ecut=   120.00 Ry     beta=0.70
     Davidson diagonalization with overlap
     ethr =  9.25E-10,  avg # of iterations =  2.0

     total cpu time spent up to now is        0.8 secs

     End of self-consistent calculation

          k = 0.0000 0.0000 0.0000 (  2741 PWs)   bands (ev):

   -64.2345 -31.0347 -30.9885 -30.9885  -9.2072   7.7786   7.7786   7.9945

          k =-0.2500 0.2500-0.2500 (  2806 PWs)   bands (ev):

   -64.2300 -31.0507 -31.0230 -30.9938  -8.6200   5.2708   7.5109   7.7571

          k = 0.5000-0.5000 0.5000 (  2824 PWs)   bands (ev):

   -64.2255 -31.0882 -31.0354 -30.9990  -7.9338   3.4299   7.2614   7.5143

          k = 0.0000 0.5000 0.0000 (  2826 PWs)   bands (ev):

   -64.2286 -31.0596 -31.0195 -31.0033  -8.4632   5.3547   7.1144   7.2723

          k = 0.7500-0.2500 0.7500 (  2807 PWs)   bands (ev):

   -64.2242 -31.0656 -31.0614 -31.0086  -7.8259   4.2300   6.1989   6.8874

          k = 0.5000 0.0000 0.5000 (  2810 PWs)   bands (ev):

   -64.2258 -31.0867 -31.0304 -30.9983  -8.0111   4.5142   6.0375   7.2240

          k = 0.0000-1.0000 0.0000 (  2794 PWs)   bands (ev):

   -64.2228 -31.0877 -31.0428 -31.0182  -7.6980   4.0183   6.5503   6.6569

          k =-0.5000-1.0000 0.0000 (  2780 PWs)   bands (ev):

   -64.2228 -31.0780 -31.0467 -31.0257  -7.6437   5.0564   5.1363   6.2280

          k =-0.2500-0.2500-0.2500 (  2806 PWs)   bands (ev):

   -64.2302 -31.0759 -30.9930 -30.9930  -8.6249   5.3620   7.4741   7.4741

          k = 0.5000 0.5000 0.5000 (  2824 PWs)   bands (ev):

   -64.2260 -31.1166 -30.9974 -30.9974  -7.9420   3.4552   7.1924   7.1924

          k =-0.2500-0.7500 0.7500 (  2807 PWs)   bands (ev):

   -64.2242 -31.0775 -31.0392 -31.0189  -7.8262   4.2247   6.0804   7.0538

          k = 0.2500 0.7500 0.7500 (  2807 PWs)   bands (ev):

   -64.2244 -31.0978 -31.0245 -31.0078  -7.8284   4.2571   6.0504   6.8559

          k = 0.0000-0.5000 0.5000 (  2810 PWs)   bands (ev):

   -64.2256 -31.0574 -31.0510 -31.0126  -8.0090   4.5054   6.0322   7.4398

     highest occupied level (ev):     7.9945

!    total energy              =    -152.07578663 Ry
     Harris-Foulkes estimate   =    -152.07578664 Ry
     estimated scf accuracy    <          9.5E-09 Ry

     The total energy is the sum of the following terms:

     one-electron contribution =     -76.27831012 Ry
     hartree contribution      =      42.49827880 Ry
     xc contribution           =     -24.53896172 Ry
     ewald contribution        =     -93.75679359 Ry

     convergence has been achieved in   8 iterations

     Forces acting on atoms (cartesian axes, Ry/au):

     atom    1 type  1   force =    -0.04126529   -0.04126529   -0.04126529
     atom    2 type  2   force =     0.04126529    0.04126529    0.04126529

     Total force =     0.101079     Total SCF correction =     0.000053


     Computing stress (Cartesian axis) and pressure

          total   stress  (Ry/bohr**3)                   (kbar)     P=  158.30
   0.00107609  -0.00019919  -0.00019919        158.30    -29.30    -29.30
  -0.00019919   0.00107609  -0.00019919        -29.30    158.30    -29.30
  -0.00019919  -0.00019919   0.00107609        -29.30    -29.30    158.30


     Writing output data file diamond.7.97.120.4.save
 
     init_run     :      0.06s CPU      0.07s WALL (       1 calls)
     electrons    :      0.60s CPU      0.62s WALL (       1 calls)
     forces       :      0.01s CPU      0.02s WALL (       1 calls)
     stress       :      0.04s CPU      0.04s WALL (       1 calls)

     Called by init_run:
     wfcinit      :      0.03s CPU      0.03s WALL (       1 calls)
     potinit      :      0.01s CPU      0.01s WALL (       1 calls)

     Called by electrons:
     c_bands      :      0.48s CPU      0.49s WALL (       8 calls)
     sum_band     :      0.09s CPU      0.09s WALL (       8 calls)
     v_of_rho     :      0.03s CPU      0.03s WALL (       9 calls)
     mix_rho      :      0.00s CPU      0.00s WALL (       8 calls)

     Called by c_bands:
     init_us_2    :      0.02s CPU      0.02s WALL (     247 calls)
     cegterg      :      0.43s CPU      0.45s WALL (     104 calls)

     Called by sum_band:

     Called by *egterg:
     h_psi        :      0.37s CPU      0.38s WALL (     307 calls)
     g_psi        :      0.00s CPU      0.00s WALL (     190 calls)
     cdiaghg      :      0.03s CPU      0.03s WALL (     294 calls)

     Called by h_psi:
     h_psi:pot    :      0.37s CPU      0.38s WALL (     307 calls)
     h_psi:calbec :      0.02s CPU      0.02s WALL (     307 calls)
     vloc_psi     :      0.34s CPU      0.35s WALL (     307 calls)
     add_vuspsi   :      0.00s CPU      0.01s WALL (     307 calls)

     General routines
     calbec       :      0.03s CPU      0.02s WALL (     372 calls)
     fft          :      0.01s CPU      0.02s WALL (     123 calls)
     fftw         :      0.37s CPU      0.38s WALL (    5218 calls)
     davcio       :      0.00s CPU      0.00s WALL (      13 calls)
 
     Parallel routines
     fft_scatter  :      0.11s CPU      0.13s WALL (    5341 calls)
 
     PWSCF        :     0.89s CPU         0.95s WALL

 
   This run was terminated on:  14:12:23  17Apr2018            

=------------------------------------------------------------------------------=
   JOB DONE.
=------------------------------------------------------------------------------=
