
     Program PWSCF v.6.1 (svn rev. 13369) starts on 17Apr2018 at 14:11:57 

     This program is part of the open-source Quantum ESPRESSO suite
     for quantum simulation of materials; please cite
         "P. Giannozzi et al., J. Phys.:Condens. Matter 21 395502 (2009);
          URL http://www.quantum-espresso.org", 
     in publications or presentations arising from this work. More details at
     http://www.quantum-espresso.org/quote

     Parallel version (MPI), running on     8 processors
     R & G space division:  proc/nbgrp/npool/nimage =       8
     Waiting for input...
     Reading input from standard input

     Current dimensions of program PWSCF are:
     Max number of different atomic species (ntypx) = 10
     Max number of k-points (npk) =  40000
     Max angular momentum in pseudopotentials (lmaxx) =  3

     Subspace diagonalization in iterative solution of the eigenvalue problem:
     a serial algorithm will be used

 
     Parallelization info
     --------------------
     sticks:   dense  smooth     PW     G-vecs:    dense   smooth      PW
     Min          45      45     15                  558      558     108
     Max          46      46     16                  560      560     110
     Sum         361     361    121                 4477     4477     869
 


     bravais-lattice index     =            2
     lattice parameter (alat)  =       8.0100  a.u.
     unit-cell volume          =     128.4806 (a.u.)^3
     number of atoms/cell      =            2
     number of atomic types    =            2
     number of electrons       =        16.00
     number of Kohn-Sham states=            8
     kinetic-energy cutoff     =      40.0000  Ry
     charge density cutoff     =     160.0000  Ry
     convergence threshold     =      1.0E-08
     mixing beta               =       0.7000
     number of iterations used =            8  plain     mixing
     Exchange-correlation      = PBE ( 1  4  3  4 0 0)

     celldm(1)=   8.010000  celldm(2)=   0.000000  celldm(3)=   0.000000
     celldm(4)=   0.000000  celldm(5)=   0.000000  celldm(6)=   0.000000

     crystal axes: (cart. coord. in units of alat)
               a(1) = (  -0.500000   0.000000   0.500000 )  
               a(2) = (   0.000000   0.500000   0.500000 )  
               a(3) = (  -0.500000   0.500000   0.000000 )  

     reciprocal axes: (cart. coord. in units 2 pi/alat)
               b(1) = ( -1.000000 -1.000000  1.000000 )  
               b(2) = (  1.000000  1.000000  1.000000 )  
               b(3) = ( -1.000000  1.000000 -1.000000 )  


     PseudoPot. # 1 for Mg read from file:
     ../pseudo/Mg.pbe.UPF
     MD5 check sum: 4c04d8c6e0476e83eaecaf72fa8acc4d
     Pseudo is Norm-conserving, Zval = 10.0
     Generated using ONCVPSP code by D. R. Hamann
     Using radial grid of 1510 points,  4 beta functions with: 
                l(1) =   0
                l(2) =   0
                l(3) =   1
                l(4) =   1

     PseudoPot. # 2 for O  read from file:
     ../pseudo/O.pbe.UPF
     MD5 check sum: 3e3f909f7470e8921608ab6b1f57bbae
     Pseudo is Norm-conserving + core correction, Zval =  6.0
     Generated using ONCVPSP code by D. R. Hamann
     Using radial grid of  936 points,  5 beta functions with: 
                l(1) =   0
                l(2) =   0
                l(3) =   1
                l(4) =   1
                l(5) =   2

     atomic species   valence    mass     pseudopotential
        Mg            10.00    24.30500     Mg( 1.00)
        O              6.00    15.99940     O ( 1.00)

      6 Sym. Ops. (no inversion) found



   Cartesian axes

     site n.     atom                  positions (alat units)
         1           Mg  tau(   1) = (   0.0500000   0.0500000   0.0500000  )
         2           O   tau(   2) = (   0.5000000   0.5000000   0.5000000  )

     number of k points=    13
                       cart. coord. in units 2pi/alat
        k(    1) = (   0.0000000   0.0000000   0.0000000), wk =   0.0312500
        k(    2) = (  -0.2500000   0.2500000  -0.2500000), wk =   0.1875000
        k(    3) = (   0.5000000  -0.5000000   0.5000000), wk =   0.0937500
        k(    4) = (   0.0000000   0.5000000   0.0000000), wk =   0.1875000
        k(    5) = (   0.7500000  -0.2500000   0.7500000), wk =   0.1875000
        k(    6) = (   0.5000000   0.0000000   0.5000000), wk =   0.1875000
        k(    7) = (   0.0000000  -1.0000000   0.0000000), wk =   0.0937500
        k(    8) = (  -0.5000000  -1.0000000   0.0000000), wk =   0.1875000
        k(    9) = (  -0.2500000  -0.2500000  -0.2500000), wk =   0.0625000
        k(   10) = (   0.5000000   0.5000000   0.5000000), wk =   0.0312500
        k(   11) = (  -0.2500000  -0.7500000   0.7500000), wk =   0.3750000
        k(   12) = (   0.2500000   0.7500000   0.7500000), wk =   0.1875000
        k(   13) = (   0.0000000  -0.5000000   0.5000000), wk =   0.1875000

     Dense  grid:     4477 G-vectors     FFT dimensions: (  24,  24,  24)

     Estimated max dynamical RAM per process >       0.56MB

     Estimated total allocated dynamical RAM >       4.45MB

     Check: negative/imaginary core charge=   -0.000494    0.000000

     Initial potential from superposition of free atoms

     starting charge   15.99920, renormalised to   16.00000
     Starting wfc are    9 randomized atomic wfcs

     total cpu time spent up to now is        0.2 secs

     per-process dynamical memory:    30.2 Mb

     Self-consistent Calculation

     iteration #  1     ecut=    40.00 Ry     beta=0.70
     Davidson diagonalization with overlap
     ethr =  1.00E-02,  avg # of iterations =  2.0

     total cpu time spent up to now is        0.2 secs

     total energy              =    -150.57932443 Ry
     Harris-Foulkes estimate   =    -150.90096271 Ry
     estimated scf accuracy    <       0.48219962 Ry

     iteration #  2     ecut=    40.00 Ry     beta=0.70
     Davidson diagonalization with overlap
     ethr =  3.01E-03,  avg # of iterations =  2.0

     total cpu time spent up to now is        0.2 secs

     total energy              =    -150.67566186 Ry
     Harris-Foulkes estimate   =    -150.80197656 Ry
     estimated scf accuracy    <       0.23479564 Ry

     iteration #  3     ecut=    40.00 Ry     beta=0.70
     Davidson diagonalization with overlap
     ethr =  1.47E-03,  avg # of iterations =  2.0

     total cpu time spent up to now is        0.3 secs

     total energy              =    -150.73186495 Ry
     Harris-Foulkes estimate   =    -150.73400058 Ry
     estimated scf accuracy    <       0.00679522 Ry

     iteration #  4     ecut=    40.00 Ry     beta=0.70
     Davidson diagonalization with overlap
     ethr =  4.25E-05,  avg # of iterations =  2.0

     total cpu time spent up to now is        0.3 secs

     total energy              =    -150.73284732 Ry
     Harris-Foulkes estimate   =    -150.73281424 Ry
     estimated scf accuracy    <       0.00009491 Ry

     iteration #  5     ecut=    40.00 Ry     beta=0.70
     Davidson diagonalization with overlap
     ethr =  5.93E-07,  avg # of iterations =  2.0

     total cpu time spent up to now is        0.3 secs

     total energy              =    -150.73285692 Ry
     Harris-Foulkes estimate   =    -150.73285615 Ry
     estimated scf accuracy    <       0.00000051 Ry

     iteration #  6     ecut=    40.00 Ry     beta=0.70
     Davidson diagonalization with overlap
     ethr =  3.16E-09,  avg # of iterations =  2.0

     total cpu time spent up to now is        0.3 secs

     total energy              =    -150.73285702 Ry
     Harris-Foulkes estimate   =    -150.73285702 Ry
     estimated scf accuracy    <       0.00000002 Ry

     iteration #  7     ecut=    40.00 Ry     beta=0.70
     Davidson diagonalization with overlap
     ethr =  1.18E-10,  avg # of iterations =  2.9

     total cpu time spent up to now is        0.4 secs

     End of self-consistent calculation

          k = 0.0000 0.0000 0.0000 (   537 PWs)   bands (ev):

   -68.4432 -31.5417 -31.4930 -31.4930  -9.5917   7.8520   7.8520   8.0591

          k =-0.2500 0.2500-0.2500 (   549 PWs)   bands (ev):

   -68.4442 -31.7172 -31.6410 -31.5994  -9.0164   5.1921   7.5673   7.7943

          k = 0.5000-0.5000 0.5000 (   568 PWs)   bands (ev):

   -68.4517 -32.0029 -31.9600 -31.9104  -8.3590   3.3527   7.2561   7.4987

          k = 0.0000 0.5000 0.0000 (   560 PWs)   bands (ev):

   -68.4499 -31.8726 -31.8334 -31.7990  -8.8765   5.2955   7.1301   7.2688

          k = 0.7500-0.2500 0.7500 (   550 PWs)   bands (ev):

   -68.4389 -31.6745 -31.6387 -31.6385  -8.2584   4.2282   6.2728   6.9504

          k = 0.5000 0.0000 0.5000 (   548 PWs)   bands (ev):

   -68.4396 -31.7031 -31.6460 -31.5338  -8.4383   4.4778   6.1382   7.2601

          k = 0.0000-1.0000 0.0000 (   556 PWs)   bands (ev):

   -68.4391 -31.7770 -31.7405 -31.5940  -8.1572   4.1402   6.6127   6.6953

          k =-0.5000-1.0000 0.0000 (   524 PWs)   bands (ev):

   -68.4197 -31.3651 -31.1439 -31.1226  -8.0826   5.2388   5.3367   6.2435

          k =-0.2500-0.2500-0.2500 (   549 PWs)   bands (ev):

   -68.4445 -31.7509 -31.6004 -31.6004  -9.0303   5.3038   7.5101   7.5101

          k = 0.5000 0.5000 0.5000 (   568 PWs)   bands (ev):

   -68.4520 -31.9597 -31.9597 -31.9459  -8.3767   3.4249   7.1766   7.1766

          k =-0.2500-0.7500 0.7500 (   550 PWs)   bands (ev):

   -68.4389 -31.6941 -31.6584 -31.5994  -8.2596   4.2447   6.1542   7.0969

          k = 0.2500 0.7500 0.7500 (   550 PWs)   bands (ev):

   -68.4391 -31.7002 -31.6384 -31.6063  -8.2738   4.3121   6.1144   6.9094

          k = 0.0000-0.5000 0.5000 (   548 PWs)   bands (ev):

   -68.4393 -31.6807 -31.6748 -31.5352  -8.4237   4.4530   6.1156   7.4871

     highest occupied level (ev):     8.0591

!    total energy              =    -150.73285702 Ry
     Harris-Foulkes estimate   =    -150.73285702 Ry
     estimated scf accuracy    <          1.0E-09 Ry

     The total energy is the sum of the following terms:

     one-electron contribution =     -73.87209044 Ry
     hartree contribution      =      40.57080319 Ry
     xc contribution           =     -24.14297488 Ry
     ewald contribution        =     -93.28859488 Ry

     convergence has been achieved in   7 iterations

     Forces acting on atoms (cartesian axes, Ry/au):

     atom    1 type  1   force =    -0.03095845   -0.03095845   -0.03095845
     atom    2 type  2   force =     0.03095845    0.03095845    0.03095845

     Total force =     0.075832     Total SCF correction =     0.000066


     Computing stress (Cartesian axis) and pressure

          total   stress  (Ry/bohr**3)                   (kbar)     P=-5289.97
  -0.03596050  -0.00015707  -0.00015707      -5289.97    -23.11    -23.11
  -0.00015707  -0.03596050  -0.00015707        -23.11  -5289.97    -23.11
  -0.00015707  -0.00015707  -0.03596050        -23.11    -23.11  -5289.97


     Writing output data file diamond.8.01.40.4.save
 
     init_run     :      0.02s CPU      0.03s WALL (       1 calls)
     electrons    :      0.20s CPU      0.21s WALL (       1 calls)
     forces       :      0.01s CPU      0.01s WALL (       1 calls)
     stress       :      0.01s CPU      0.01s WALL (       1 calls)

     Called by init_run:
     wfcinit      :      0.01s CPU      0.01s WALL (       1 calls)
     potinit      :      0.00s CPU      0.00s WALL (       1 calls)

     Called by electrons:
     c_bands      :      0.17s CPU      0.18s WALL (       7 calls)
     sum_band     :      0.02s CPU      0.02s WALL (       7 calls)
     v_of_rho     :      0.01s CPU      0.01s WALL (       8 calls)
     mix_rho      :      0.00s CPU      0.00s WALL (       7 calls)

     Called by c_bands:
     init_us_2    :      0.00s CPU      0.00s WALL (     221 calls)
     cegterg      :      0.16s CPU      0.17s WALL (      91 calls)

     Called by sum_band:

     Called by *egterg:
     h_psi        :      0.11s CPU      0.11s WALL (     298 calls)
     g_psi        :      0.00s CPU      0.00s WALL (     194 calls)
     cdiaghg      :      0.04s CPU      0.03s WALL (     285 calls)

     Called by h_psi:
     h_psi:pot    :      0.11s CPU      0.11s WALL (     298 calls)
     h_psi:calbec :      0.01s CPU      0.01s WALL (     298 calls)
     vloc_psi     :      0.09s CPU      0.10s WALL (     298 calls)
     add_vuspsi   :      0.00s CPU      0.00s WALL (     298 calls)

     General routines
     calbec       :      0.01s CPU      0.01s WALL (     363 calls)
     fft          :      0.00s CPU      0.00s WALL (     112 calls)
     fftw         :      0.10s CPU      0.11s WALL (    4740 calls)
     davcio       :      0.00s CPU      0.00s WALL (      13 calls)
 
     Parallel routines
     fft_scatter  :      0.06s CPU      0.05s WALL (    4852 calls)
 
     PWSCF        :     0.41s CPU         0.45s WALL

 
   This run was terminated on:  14:11:58  17Apr2018            

=------------------------------------------------------------------------------=
   JOB DONE.
=------------------------------------------------------------------------------=
