
     Program PWSCF v.6.1 (svn rev. 13369) starts on 17Apr2018 at 14:11:48 

     This program is part of the open-source Quantum ESPRESSO suite
     for quantum simulation of materials; please cite
         "P. Giannozzi et al., J. Phys.:Condens. Matter 21 395502 (2009);
          URL http://www.quantum-espresso.org", 
     in publications or presentations arising from this work. More details at
     http://www.quantum-espresso.org/quote

     Parallel version (MPI), running on     8 processors
     R & G space division:  proc/nbgrp/npool/nimage =       8
     Waiting for input...
     Reading input from standard input

     Current dimensions of program PWSCF are:
     Max number of different atomic species (ntypx) = 10
     Max number of k-points (npk) =  40000
     Max angular momentum in pseudopotentials (lmaxx) =  3

     Subspace diagonalization in iterative solution of the eigenvalue problem:
     a serial algorithm will be used

 
     Parallelization info
     --------------------
     sticks:   dense  smooth     PW     G-vecs:    dense   smooth      PW
     Min          10      10      4                   66       66      17
     Max          11      11      6                   69       69      18
     Sum          85      85     37                  537      537     137
 


     bravais-lattice index     =            2
     lattice parameter (alat)  =       8.0100  a.u.
     unit-cell volume          =     128.4806 (a.u.)^3
     number of atoms/cell      =            2
     number of atomic types    =            2
     number of electrons       =        16.00
     number of Kohn-Sham states=            8
     kinetic-energy cutoff     =      10.0000  Ry
     charge density cutoff     =      40.0000  Ry
     convergence threshold     =      1.0E-08
     mixing beta               =       0.7000
     number of iterations used =            8  plain     mixing
     Exchange-correlation      = PBE ( 1  4  3  4 0 0)

     celldm(1)=   8.010000  celldm(2)=   0.000000  celldm(3)=   0.000000
     celldm(4)=   0.000000  celldm(5)=   0.000000  celldm(6)=   0.000000

     crystal axes: (cart. coord. in units of alat)
               a(1) = (  -0.500000   0.000000   0.500000 )  
               a(2) = (   0.000000   0.500000   0.500000 )  
               a(3) = (  -0.500000   0.500000   0.000000 )  

     reciprocal axes: (cart. coord. in units 2 pi/alat)
               b(1) = ( -1.000000 -1.000000  1.000000 )  
               b(2) = (  1.000000  1.000000  1.000000 )  
               b(3) = ( -1.000000  1.000000 -1.000000 )  


     PseudoPot. # 1 for Mg read from file:
     ../pseudo/Mg.pbe.UPF
     MD5 check sum: 4c04d8c6e0476e83eaecaf72fa8acc4d
     Pseudo is Norm-conserving, Zval = 10.0
     Generated using ONCVPSP code by D. R. Hamann
     Using radial grid of 1510 points,  4 beta functions with: 
                l(1) =   0
                l(2) =   0
                l(3) =   1
                l(4) =   1

     PseudoPot. # 2 for O  read from file:
     ../pseudo/O.pbe.UPF
     MD5 check sum: 3e3f909f7470e8921608ab6b1f57bbae
     Pseudo is Norm-conserving + core correction, Zval =  6.0
     Generated using ONCVPSP code by D. R. Hamann
     Using radial grid of  936 points,  5 beta functions with: 
                l(1) =   0
                l(2) =   0
                l(3) =   1
                l(4) =   1
                l(5) =   2

     atomic species   valence    mass     pseudopotential
        Mg            10.00    24.30500     Mg( 1.00)
        O              6.00    15.99940     O ( 1.00)

      6 Sym. Ops. (no inversion) found



   Cartesian axes

     site n.     atom                  positions (alat units)
         1           Mg  tau(   1) = (   0.0500000   0.0500000   0.0500000  )
         2           O   tau(   2) = (   0.5000000   0.5000000   0.5000000  )

     number of k points=    13
                       cart. coord. in units 2pi/alat
        k(    1) = (   0.0000000   0.0000000   0.0000000), wk =   0.0312500
        k(    2) = (  -0.2500000   0.2500000  -0.2500000), wk =   0.1875000
        k(    3) = (   0.5000000  -0.5000000   0.5000000), wk =   0.0937500
        k(    4) = (   0.0000000   0.5000000   0.0000000), wk =   0.1875000
        k(    5) = (   0.7500000  -0.2500000   0.7500000), wk =   0.1875000
        k(    6) = (   0.5000000   0.0000000   0.5000000), wk =   0.1875000
        k(    7) = (   0.0000000  -1.0000000   0.0000000), wk =   0.0937500
        k(    8) = (  -0.5000000  -1.0000000   0.0000000), wk =   0.1875000
        k(    9) = (  -0.2500000  -0.2500000  -0.2500000), wk =   0.0625000
        k(   10) = (   0.5000000   0.5000000   0.5000000), wk =   0.0312500
        k(   11) = (  -0.2500000  -0.7500000   0.7500000), wk =   0.3750000
        k(   12) = (   0.2500000   0.7500000   0.7500000), wk =   0.1875000
        k(   13) = (   0.0000000  -0.5000000   0.5000000), wk =   0.1875000

     Dense  grid:      537 G-vectors     FFT dimensions: (  12,  12,  12)

     Estimated max dynamical RAM per process >       0.10MB

     Estimated total allocated dynamical RAM >       0.82MB

     Check: negative/imaginary core charge=   -0.006997    0.000000

     Initial potential from superposition of free atoms
     Check: negative starting charge=   -0.000229

     starting charge   15.99920, renormalised to   16.00000

     negative rho (up, down):  2.293E-04 0.000E+00
     Starting wfc are    9 randomized atomic wfcs

     total cpu time spent up to now is        0.2 secs

     per-process dynamical memory:    24.5 Mb

     Self-consistent Calculation

     iteration #  1     ecut=    10.00 Ry     beta=0.70
     Davidson diagonalization with overlap
     ethr =  1.00E-02,  avg # of iterations =  2.9

     total cpu time spent up to now is        0.2 secs

     total energy              =    -120.30424495 Ry
     Harris-Foulkes estimate   =    -130.92744037 Ry
     estimated scf accuracy    <      14.50176895 Ry

     iteration #  2     ecut=    10.00 Ry     beta=0.70
     Davidson diagonalization with overlap
     ethr =  1.00E-02,  avg # of iterations =  2.2

     total cpu time spent up to now is        0.2 secs

     total energy              =    -121.24747830 Ry
     Harris-Foulkes estimate   =    -121.59202426 Ry
     estimated scf accuracy    <       0.63884184 Ry

     iteration #  3     ecut=    10.00 Ry     beta=0.70
     Davidson diagonalization with overlap
     ethr =  3.99E-03,  avg # of iterations =  1.0

     total cpu time spent up to now is        0.2 secs

     total energy              =    -121.26351051 Ry
     Harris-Foulkes estimate   =    -121.26736450 Ry
     estimated scf accuracy    <       0.01097858 Ry

     iteration #  4     ecut=    10.00 Ry     beta=0.70
     Davidson diagonalization with overlap
     ethr =  6.86E-05,  avg # of iterations =  1.3

     total cpu time spent up to now is        0.2 secs

     total energy              =    -121.26405551 Ry
     Harris-Foulkes estimate   =    -121.26405424 Ry
     estimated scf accuracy    <       0.00009652 Ry

     iteration #  5     ecut=    10.00 Ry     beta=0.70
     Davidson diagonalization with overlap
     ethr =  6.03E-07,  avg # of iterations =  2.5

     total cpu time spent up to now is        0.2 secs

     total energy              =    -121.26407591 Ry
     Harris-Foulkes estimate   =    -121.26407637 Ry
     estimated scf accuracy    <       0.00000530 Ry

     iteration #  6     ecut=    10.00 Ry     beta=0.70
     Davidson diagonalization with overlap
     ethr =  3.31E-08,  avg # of iterations =  2.0

     total cpu time spent up to now is        0.3 secs

     total energy              =    -121.26407616 Ry
     Harris-Foulkes estimate   =    -121.26407632 Ry
     estimated scf accuracy    <       0.00000015 Ry

     iteration #  7     ecut=    10.00 Ry     beta=0.70
     Davidson diagonalization with overlap
     ethr =  9.53E-10,  avg # of iterations =  2.3

     total cpu time spent up to now is        0.3 secs

     End of self-consistent calculation

          k = 0.0000 0.0000 0.0000 (    65 PWs)   bands (ev):

   -95.0034 -15.5778 -12.1549 -12.1549 -11.8099  12.3864  14.6745  14.7175

          k =-0.2500 0.2500-0.2500 (    65 PWs)   bands (ev):

   -94.6874 -16.4651 -12.4519 -11.3214 -10.8821   9.1539  14.3945  14.4942

          k = 0.5000-0.5000 0.5000 (    70 PWs)   bands (ev):

   -96.5089 -17.2663 -13.7243 -13.6332 -11.1309   7.1249  13.1531  13.3137

          k = 0.0000 0.5000 0.0000 (    76 PWs)   bands (ev):

   -99.2154 -18.8896 -15.8943 -14.9816 -13.4637   8.6579  13.4635  13.7831

          k = 0.7500-0.2500 0.7500 (    73 PWs)   bands (ev):

   -97.6775 -17.6333 -14.9543 -14.6801 -12.0563   8.7435  12.3450  13.3751

          k = 0.5000 0.0000 0.5000 (    67 PWs)   bands (ev):

   -95.0605 -16.9242 -13.3122 -11.6143 -10.8402   8.2482  13.4858  13.8188

          k = 0.0000-1.0000 0.0000 (    64 PWs)   bands (ev):

   -93.5427 -15.9577 -11.9515 -11.7794 -10.1742  12.2520  13.9111  15.4146

          k =-0.5000-1.0000 0.0000 (    68 PWs)   bands (ev):

   -95.3947 -16.6782 -13.6895 -12.9159 -10.5588  11.0892  12.8799  12.9477

          k =-0.2500-0.2500-0.2500 (    65 PWs)   bands (ev):

   -94.7224 -16.1891 -12.2377 -11.2903 -11.2903   9.1484  14.0139  14.0139

          k = 0.5000 0.5000 0.5000 (    70 PWs)   bands (ev):

   -96.5046 -16.3987 -13.6636 -13.6636 -12.2181   7.4884  12.6468  12.6468

          k =-0.2500-0.7500 0.7500 (    73 PWs)   bands (ev):

   -97.6587 -17.4270 -15.4360 -14.5138 -12.0374   8.7815  12.5724  13.4227

          k = 0.2500 0.7500 0.7500 (    73 PWs)   bands (ev):

   -97.6476 -16.9517 -15.2666 -14.8548 -12.1066   8.7378  12.0542  13.0239

          k = 0.0000-0.5000 0.5000 (    67 PWs)   bands (ev):

   -95.0348 -17.0323 -13.3573 -11.5970 -10.7322   8.1456  13.5353  14.1923

     highest occupied level (ev):    15.4146

!    total energy              =    -121.26407618 Ry
     Harris-Foulkes estimate   =    -121.26407618 Ry
     estimated scf accuracy    <          1.1E-09 Ry

     The total energy is the sum of the following terms:

     one-electron contribution =     -24.00481547 Ry
     hartree contribution      =      14.68270189 Ry
     xc contribution           =     -18.65336343 Ry
     ewald contribution        =     -93.28859917 Ry

     convergence has been achieved in   7 iterations

     Forces acting on atoms (cartesian axes, Ry/au):

     atom    1 type  1   force =    -0.10844434   -0.10844434   -0.10844434
     atom    2 type  2   force =     0.10844434    0.10844434    0.10844434

     Total force =     0.265633     Total SCF correction =     0.000085


     Computing stress (Cartesian axis) and pressure

          total   stress  (Ry/bohr**3)                   (kbar)     P=********
  -0.14172913  -0.00067272  -0.00067272     -20849.07    -98.96    -98.96
  -0.00067272  -0.14172913  -0.00067272        -98.96 -20849.07    -98.96
  -0.00067272  -0.00067272  -0.14172913        -98.96    -98.96 -20849.07


     Writing output data file diamond.8.01.10.4.save
 
     init_run     :      0.01s CPU      0.01s WALL (       1 calls)
     electrons    :      0.12s CPU      0.13s WALL (       1 calls)
     forces       :      0.00s CPU      0.00s WALL (       1 calls)
     stress       :      0.00s CPU      0.00s WALL (       1 calls)

     Called by init_run:
     wfcinit      :      0.01s CPU      0.01s WALL (       1 calls)
     potinit      :      0.00s CPU      0.00s WALL (       1 calls)

     Called by electrons:
     c_bands      :      0.10s CPU      0.12s WALL (       7 calls)
     sum_band     :      0.01s CPU      0.01s WALL (       7 calls)
     v_of_rho     :      0.00s CPU      0.00s WALL (       8 calls)
     mix_rho      :      0.00s CPU      0.00s WALL (       7 calls)

     Called by c_bands:
     init_us_2    :      0.00s CPU      0.00s WALL (     221 calls)
     cegterg      :      0.10s CPU      0.11s WALL (      91 calls)

     Called by sum_band:

     Called by *egterg:
     h_psi        :      0.05s CPU      0.06s WALL (     289 calls)
     g_psi        :      0.00s CPU      0.00s WALL (     185 calls)
     cdiaghg      :      0.03s CPU      0.03s WALL (     276 calls)

     Called by h_psi:
     h_psi:pot    :      0.05s CPU      0.06s WALL (     289 calls)
     h_psi:calbec :      0.01s CPU      0.01s WALL (     289 calls)
     vloc_psi     :      0.04s CPU      0.05s WALL (     289 calls)
     add_vuspsi   :      0.00s CPU      0.00s WALL (     289 calls)

     General routines
     calbec       :      0.01s CPU      0.01s WALL (     354 calls)
     fft          :      0.00s CPU      0.00s WALL (     112 calls)
     fftw         :      0.05s CPU      0.05s WALL (    4660 calls)
     davcio       :      0.00s CPU      0.00s WALL (      13 calls)
 
     Parallel routines
     fft_scatter  :      0.04s CPU      0.04s WALL (    4772 calls)
 
     PWSCF        :     0.30s CPU         0.35s WALL

 
   This run was terminated on:  14:11:49  17Apr2018            

=------------------------------------------------------------------------------=
   JOB DONE.
=------------------------------------------------------------------------------=
