
     Program PWSCF v.6.1 (svn rev. 13369) starts on 17Apr2018 at 14:12: 9 

     This program is part of the open-source Quantum ESPRESSO suite
     for quantum simulation of materials; please cite
         "P. Giannozzi et al., J. Phys.:Condens. Matter 21 395502 (2009);
          URL http://www.quantum-espresso.org", 
     in publications or presentations arising from this work. More details at
     http://www.quantum-espresso.org/quote

     Parallel version (MPI), running on     8 processors
     R & G space division:  proc/nbgrp/npool/nimage =       8
     Waiting for input...
     Reading input from standard input

     Current dimensions of program PWSCF are:
     Max number of different atomic species (ntypx) = 10
     Max number of k-points (npk) =  40000
     Max angular momentum in pseudopotentials (lmaxx) =  3

     Subspace diagonalization in iterative solution of the eigenvalue problem:
     a serial algorithm will be used

 
     Parallelization info
     --------------------
     sticks:   dense  smooth     PW     G-vecs:    dense   smooth      PW
     Min          87      87     26                 1546     1546     260
     Max          88      88     27                 1549     1549     262
     Sum         703     703    211                12387    12387    2085
 


     bravais-lattice index     =            2
     lattice parameter (alat)  =       8.0100  a.u.
     unit-cell volume          =     128.4806 (a.u.)^3
     number of atoms/cell      =            2
     number of atomic types    =            2
     number of electrons       =        16.00
     number of Kohn-Sham states=            8
     kinetic-energy cutoff     =      80.0000  Ry
     charge density cutoff     =     320.0000  Ry
     convergence threshold     =      1.0E-08
     mixing beta               =       0.7000
     number of iterations used =            8  plain     mixing
     Exchange-correlation      = PBE ( 1  4  3  4 0 0)

     celldm(1)=   8.010000  celldm(2)=   0.000000  celldm(3)=   0.000000
     celldm(4)=   0.000000  celldm(5)=   0.000000  celldm(6)=   0.000000

     crystal axes: (cart. coord. in units of alat)
               a(1) = (  -0.500000   0.000000   0.500000 )  
               a(2) = (   0.000000   0.500000   0.500000 )  
               a(3) = (  -0.500000   0.500000   0.000000 )  

     reciprocal axes: (cart. coord. in units 2 pi/alat)
               b(1) = ( -1.000000 -1.000000  1.000000 )  
               b(2) = (  1.000000  1.000000  1.000000 )  
               b(3) = ( -1.000000  1.000000 -1.000000 )  


     PseudoPot. # 1 for Mg read from file:
     ../pseudo/Mg.pbe.UPF
     MD5 check sum: 4c04d8c6e0476e83eaecaf72fa8acc4d
     Pseudo is Norm-conserving, Zval = 10.0
     Generated using ONCVPSP code by D. R. Hamann
     Using radial grid of 1510 points,  4 beta functions with: 
                l(1) =   0
                l(2) =   0
                l(3) =   1
                l(4) =   1

     PseudoPot. # 2 for O  read from file:
     ../pseudo/O.pbe.UPF
     MD5 check sum: 3e3f909f7470e8921608ab6b1f57bbae
     Pseudo is Norm-conserving + core correction, Zval =  6.0
     Generated using ONCVPSP code by D. R. Hamann
     Using radial grid of  936 points,  5 beta functions with: 
                l(1) =   0
                l(2) =   0
                l(3) =   1
                l(4) =   1
                l(5) =   2

     atomic species   valence    mass     pseudopotential
        Mg            10.00    24.30500     Mg( 1.00)
        O              6.00    15.99940     O ( 1.00)

      6 Sym. Ops. (no inversion) found



   Cartesian axes

     site n.     atom                  positions (alat units)
         1           Mg  tau(   1) = (   0.0500000   0.0500000   0.0500000  )
         2           O   tau(   2) = (   0.5000000   0.5000000   0.5000000  )

     number of k points=    13
                       cart. coord. in units 2pi/alat
        k(    1) = (   0.0000000   0.0000000   0.0000000), wk =   0.0312500
        k(    2) = (  -0.2500000   0.2500000  -0.2500000), wk =   0.1875000
        k(    3) = (   0.5000000  -0.5000000   0.5000000), wk =   0.0937500
        k(    4) = (   0.0000000   0.5000000   0.0000000), wk =   0.1875000
        k(    5) = (   0.7500000  -0.2500000   0.7500000), wk =   0.1875000
        k(    6) = (   0.5000000   0.0000000   0.5000000), wk =   0.1875000
        k(    7) = (   0.0000000  -1.0000000   0.0000000), wk =   0.0937500
        k(    8) = (  -0.5000000  -1.0000000   0.0000000), wk =   0.1875000
        k(    9) = (  -0.2500000  -0.2500000  -0.2500000), wk =   0.0625000
        k(   10) = (   0.5000000   0.5000000   0.5000000), wk =   0.0312500
        k(   11) = (  -0.2500000  -0.7500000   0.7500000), wk =   0.3750000
        k(   12) = (   0.2500000   0.7500000   0.7500000), wk =   0.1875000
        k(   13) = (   0.0000000  -0.5000000   0.5000000), wk =   0.1875000

     Dense  grid:    12387 G-vectors     FFT dimensions: (  36,  36,  36)

     Estimated max dynamical RAM per process >       1.61MB

     Estimated total allocated dynamical RAM >      12.89MB

     Initial potential from superposition of free atoms

     starting charge   15.99920, renormalised to   16.00000
     Starting wfc are    9 randomized atomic wfcs

     total cpu time spent up to now is        0.2 secs

     per-process dynamical memory:    36.8 Mb

     Self-consistent Calculation

     iteration #  1     ecut=    80.00 Ry     beta=0.70
     Davidson diagonalization with overlap
     ethr =  1.00E-02,  avg # of iterations =  2.0

     total cpu time spent up to now is        0.2 secs

     total energy              =    -151.89076824 Ry
     Harris-Foulkes estimate   =    -152.20585576 Ry
     estimated scf accuracy    <       0.43738376 Ry

     iteration #  2     ecut=    80.00 Ry     beta=0.70
     Davidson diagonalization with overlap
     ethr =  2.73E-03,  avg # of iterations =  2.5

     total cpu time spent up to now is        0.3 secs

     total energy              =    -152.00195985 Ry
     Harris-Foulkes estimate   =    -152.18704318 Ry
     estimated scf accuracy    <       0.37965999 Ry

     iteration #  3     ecut=    80.00 Ry     beta=0.70
     Davidson diagonalization with overlap
     ethr =  2.37E-03,  avg # of iterations =  2.0

     total cpu time spent up to now is        0.4 secs

     total energy              =    -152.07706831 Ry
     Harris-Foulkes estimate   =    -152.07723180 Ry
     estimated scf accuracy    <       0.00177547 Ry

     iteration #  4     ecut=    80.00 Ry     beta=0.70
     Davidson diagonalization with overlap
     ethr =  1.11E-05,  avg # of iterations =  2.0

     total cpu time spent up to now is        0.4 secs

     total energy              =    -152.07744738 Ry
     Harris-Foulkes estimate   =    -152.07745827 Ry
     estimated scf accuracy    <       0.00002721 Ry

     iteration #  5     ecut=    80.00 Ry     beta=0.70
     Davidson diagonalization with overlap
     ethr =  1.70E-07,  avg # of iterations =  1.3

     total cpu time spent up to now is        0.5 secs

     total energy              =    -152.07744957 Ry
     Harris-Foulkes estimate   =    -152.07744901 Ry
     estimated scf accuracy    <       0.00000230 Ry

     iteration #  6     ecut=    80.00 Ry     beta=0.70
     Davidson diagonalization with overlap
     ethr =  1.44E-08,  avg # of iterations =  2.0

     total cpu time spent up to now is        0.6 secs

     total energy              =    -152.07745005 Ry
     Harris-Foulkes estimate   =    -152.07745016 Ry
     estimated scf accuracy    <       0.00000036 Ry

     iteration #  7     ecut=    80.00 Ry     beta=0.70
     Davidson diagonalization with overlap
     ethr =  2.22E-09,  avg # of iterations =  1.0

     total cpu time spent up to now is        0.6 secs

     total energy              =    -152.07744999 Ry
     Harris-Foulkes estimate   =    -152.07745006 Ry
     estimated scf accuracy    <       0.00000012 Ry

     iteration #  8     ecut=    80.00 Ry     beta=0.70
     Davidson diagonalization with overlap
     ethr =  7.20E-10,  avg # of iterations =  2.0

     total cpu time spent up to now is        0.7 secs

     End of self-consistent calculation

          k = 0.0000 0.0000 0.0000 (  1471 PWs)   bands (ev):

   -64.4694 -31.2677 -31.2211 -31.2211  -9.3179   7.5985   7.5985   7.8154

          k =-0.2500 0.2500-0.2500 (  1546 PWs)   bands (ev):

   -64.4653 -31.2821 -31.2545 -31.2262  -8.7473   5.1169   7.3365   7.5816

          k = 0.5000-0.5000 0.5000 (  1538 PWs)   bands (ev):

   -64.4612 -31.3158 -31.2676 -31.2312  -8.0828   3.3098   7.0924   7.3442

          k = 0.0000 0.5000 0.0000 (  1523 PWs)   bands (ev):

   -64.4640 -31.2909 -31.2506 -31.2352  -8.5944   5.2011   6.9444   7.1032

          k = 0.7500-0.2500 0.7500 (  1557 PWs)   bands (ev):

   -64.4599 -31.2957 -31.2911 -31.2402  -7.9764   4.0975   6.0493   6.7218

          k = 0.5000 0.0000 0.5000 (  1554 PWs)   bands (ev):

   -64.4614 -31.3165 -31.2609 -31.2305  -8.1565   4.3794   5.8863   7.0561

          k = 0.0000-1.0000 0.0000 (  1588 PWs)   bands (ev):

   -64.4586 -31.3170 -31.2732 -31.2493  -7.8513   3.8930   6.3873   6.4972

          k =-0.5000-1.0000 0.0000 (  1564 PWs)   bands (ev):

   -64.4586 -31.3085 -31.2761 -31.2564  -7.7995   4.9177   4.9993   6.0712

          k =-0.2500-0.2500-0.2500 (  1546 PWs)   bands (ev):

   -64.4655 -31.3066 -31.2255 -31.2255  -8.7521   5.2108   7.3014   7.3014

          k = 0.5000 0.5000 0.5000 (  1538 PWs)   bands (ev):

   -64.4616 -31.3448 -31.2297 -31.2297  -8.0909   3.3404   7.0265   7.0265

          k =-0.2500-0.7500 0.7500 (  1557 PWs)   bands (ev):

   -64.4599 -31.3071 -31.2700 -31.2500  -7.9767   4.0944   5.9269   6.8884

          k = 0.2500 0.7500 0.7500 (  1557 PWs)   bands (ev):

   -64.4601 -31.3271 -31.2553 -31.2395  -7.9791   4.1305   5.8987   6.6917

          k = 0.0000-0.5000 0.5000 (  1554 PWs)   bands (ev):

   -64.4612 -31.2874 -31.2816 -31.2442  -8.1543   4.3659   5.8807   7.2704

     highest occupied level (ev):     7.8154

!    total energy              =    -152.07745002 Ry
     Harris-Foulkes estimate   =    -152.07745003 Ry
     estimated scf accuracy    <          8.2E-09 Ry

     The total energy is the sum of the following terms:

     one-electron contribution =     -77.00351820 Ry
     hartree contribution      =      42.73729318 Ry
     xc contribution           =     -24.52263013 Ry
     ewald contribution        =     -93.28859487 Ry

     convergence has been achieved in   8 iterations

     Forces acting on atoms (cartesian axes, Ry/au):

     atom    1 type  1   force =    -0.03865663   -0.03865663   -0.03865663
     atom    2 type  2   force =     0.03865663    0.03865663    0.03865663

     Total force =     0.094689     Total SCF correction =     0.000046


     Computing stress (Cartesian axis) and pressure

          total   stress  (Ry/bohr**3)                   (kbar)     P=  125.80
   0.00085518  -0.00017766  -0.00017766        125.80    -26.14    -26.14
  -0.00017766   0.00085518  -0.00017766        -26.14    125.80    -26.14
  -0.00017766  -0.00017766   0.00085518        -26.14    -26.14    125.80


     Writing output data file diamond.8.01.80.4.save
 
     init_run     :      0.04s CPU      0.05s WALL (       1 calls)
     electrons    :      0.47s CPU      0.50s WALL (       1 calls)
     forces       :      0.01s CPU      0.01s WALL (       1 calls)
     stress       :      0.02s CPU      0.02s WALL (       1 calls)

     Called by init_run:
     wfcinit      :      0.02s CPU      0.02s WALL (       1 calls)
     potinit      :      0.00s CPU      0.01s WALL (       1 calls)

     Called by electrons:
     c_bands      :      0.38s CPU      0.40s WALL (       8 calls)
     sum_band     :      0.07s CPU      0.07s WALL (       8 calls)
     v_of_rho     :      0.02s CPU      0.02s WALL (       9 calls)
     mix_rho      :      0.00s CPU      0.00s WALL (       8 calls)

     Called by c_bands:
     init_us_2    :      0.01s CPU      0.01s WALL (     247 calls)
     cegterg      :      0.36s CPU      0.37s WALL (     104 calls)

     Called by sum_band:

     Called by *egterg:
     h_psi        :      0.30s CPU      0.32s WALL (     309 calls)
     g_psi        :      0.00s CPU      0.00s WALL (     192 calls)
     cdiaghg      :      0.04s CPU      0.03s WALL (     296 calls)

     Called by h_psi:
     h_psi:pot    :      0.30s CPU      0.31s WALL (     309 calls)
     h_psi:calbec :      0.01s CPU      0.01s WALL (     309 calls)
     vloc_psi     :      0.28s CPU      0.29s WALL (     309 calls)
     add_vuspsi   :      0.00s CPU      0.01s WALL (     309 calls)

     General routines
     calbec       :      0.02s CPU      0.02s WALL (     374 calls)
     fft          :      0.01s CPU      0.01s WALL (     123 calls)
     fftw         :      0.30s CPU      0.32s WALL (    5228 calls)
     davcio       :      0.00s CPU      0.00s WALL (      13 calls)
 
     Parallel routines
     fft_scatter  :      0.09s CPU      0.10s WALL (    5351 calls)
 
     PWSCF        :     0.72s CPU         0.78s WALL

 
   This run was terminated on:  14:12:10  17Apr2018            

=------------------------------------------------------------------------------=
   JOB DONE.
=------------------------------------------------------------------------------=
