
     Program PWSCF v.6.1 (svn rev. 13369) starts on 17Apr2018 at 14:12:20 

     This program is part of the open-source Quantum ESPRESSO suite
     for quantum simulation of materials; please cite
         "P. Giannozzi et al., J. Phys.:Condens. Matter 21 395502 (2009);
          URL http://www.quantum-espresso.org", 
     in publications or presentations arising from this work. More details at
     http://www.quantum-espresso.org/quote

     Parallel version (MPI), running on     8 processors
     R & G space division:  proc/nbgrp/npool/nimage =       8
     Waiting for input...
     Reading input from standard input

     Current dimensions of program PWSCF are:
     Max number of different atomic species (ntypx) = 10
     Max number of k-points (npk) =  40000
     Max angular momentum in pseudopotentials (lmaxx) =  3

     Subspace diagonalization in iterative solution of the eigenvalue problem:
     a serial algorithm will be used

 
     Parallelization info
     --------------------
     sticks:   dense  smooth     PW     G-vecs:    dense   smooth      PW
     Min         120     120     35                 2497     2497     392
     Max         122     122     36                 2500     2500     395
     Sum         967     967    283                19987    19987    3143
 


     bravais-lattice index     =            2
     lattice parameter (alat)  =       8.0100  a.u.
     unit-cell volume          =     128.4806 (a.u.)^3
     number of atoms/cell      =            2
     number of atomic types    =            2
     number of electrons       =        16.00
     number of Kohn-Sham states=            8
     kinetic-energy cutoff     =     110.0000  Ry
     charge density cutoff     =     440.0000  Ry
     convergence threshold     =      1.0E-08
     mixing beta               =       0.7000
     number of iterations used =            8  plain     mixing
     Exchange-correlation      = PBE ( 1  4  3  4 0 0)

     celldm(1)=   8.010000  celldm(2)=   0.000000  celldm(3)=   0.000000
     celldm(4)=   0.000000  celldm(5)=   0.000000  celldm(6)=   0.000000

     crystal axes: (cart. coord. in units of alat)
               a(1) = (  -0.500000   0.000000   0.500000 )  
               a(2) = (   0.000000   0.500000   0.500000 )  
               a(3) = (  -0.500000   0.500000   0.000000 )  

     reciprocal axes: (cart. coord. in units 2 pi/alat)
               b(1) = ( -1.000000 -1.000000  1.000000 )  
               b(2) = (  1.000000  1.000000  1.000000 )  
               b(3) = ( -1.000000  1.000000 -1.000000 )  


     PseudoPot. # 1 for Mg read from file:
     ../pseudo/Mg.pbe.UPF
     MD5 check sum: 4c04d8c6e0476e83eaecaf72fa8acc4d
     Pseudo is Norm-conserving, Zval = 10.0
     Generated using ONCVPSP code by D. R. Hamann
     Using radial grid of 1510 points,  4 beta functions with: 
                l(1) =   0
                l(2) =   0
                l(3) =   1
                l(4) =   1

     PseudoPot. # 2 for O  read from file:
     ../pseudo/O.pbe.UPF
     MD5 check sum: 3e3f909f7470e8921608ab6b1f57bbae
     Pseudo is Norm-conserving + core correction, Zval =  6.0
     Generated using ONCVPSP code by D. R. Hamann
     Using radial grid of  936 points,  5 beta functions with: 
                l(1) =   0
                l(2) =   0
                l(3) =   1
                l(4) =   1
                l(5) =   2

     atomic species   valence    mass     pseudopotential
        Mg            10.00    24.30500     Mg( 1.00)
        O              6.00    15.99940     O ( 1.00)

      6 Sym. Ops. (no inversion) found



   Cartesian axes

     site n.     atom                  positions (alat units)
         1           Mg  tau(   1) = (   0.0500000   0.0500000   0.0500000  )
         2           O   tau(   2) = (   0.5000000   0.5000000   0.5000000  )

     number of k points=    13
                       cart. coord. in units 2pi/alat
        k(    1) = (   0.0000000   0.0000000   0.0000000), wk =   0.0312500
        k(    2) = (  -0.2500000   0.2500000  -0.2500000), wk =   0.1875000
        k(    3) = (   0.5000000  -0.5000000   0.5000000), wk =   0.0937500
        k(    4) = (   0.0000000   0.5000000   0.0000000), wk =   0.1875000
        k(    5) = (   0.7500000  -0.2500000   0.7500000), wk =   0.1875000
        k(    6) = (   0.5000000   0.0000000   0.5000000), wk =   0.1875000
        k(    7) = (   0.0000000  -1.0000000   0.0000000), wk =   0.0937500
        k(    8) = (  -0.5000000  -1.0000000   0.0000000), wk =   0.1875000
        k(    9) = (  -0.2500000  -0.2500000  -0.2500000), wk =   0.0625000
        k(   10) = (   0.5000000   0.5000000   0.5000000), wk =   0.0312500
        k(   11) = (  -0.2500000  -0.7500000   0.7500000), wk =   0.3750000
        k(   12) = (   0.2500000   0.7500000   0.7500000), wk =   0.1875000
        k(   13) = (   0.0000000  -0.5000000   0.5000000), wk =   0.1875000

     Dense  grid:    19987 G-vectors     FFT dimensions: (  40,  40,  40)

     Estimated max dynamical RAM per process >       2.41MB

     Estimated total allocated dynamical RAM >      19.26MB

     Initial potential from superposition of free atoms

     starting charge   15.99920, renormalised to   16.00000
     Starting wfc are    9 randomized atomic wfcs

     total cpu time spent up to now is        0.2 secs

     per-process dynamical memory:    33.8 Mb

     Self-consistent Calculation

     iteration #  1     ecut=   110.00 Ry     beta=0.70
     Davidson diagonalization with overlap
     ethr =  1.00E-02,  avg # of iterations =  2.0

     total cpu time spent up to now is        0.3 secs

     total energy              =    -151.89226739 Ry
     Harris-Foulkes estimate   =    -152.20624817 Ry
     estimated scf accuracy    <       0.43589762 Ry

     iteration #  2     ecut=   110.00 Ry     beta=0.70
     Davidson diagonalization with overlap
     ethr =  2.72E-03,  avg # of iterations =  2.7

     total cpu time spent up to now is        0.4 secs

     total energy              =    -152.00256221 Ry
     Harris-Foulkes estimate   =    -152.18641694 Ry
     estimated scf accuracy    <       0.37685065 Ry

     iteration #  3     ecut=   110.00 Ry     beta=0.70
     Davidson diagonalization with overlap
     ethr =  2.36E-03,  avg # of iterations =  2.0

     total cpu time spent up to now is        0.4 secs

     total energy              =    -152.07725560 Ry
     Harris-Foulkes estimate   =    -152.07743425 Ry
     estimated scf accuracy    <       0.00179634 Ry

     iteration #  4     ecut=   110.00 Ry     beta=0.70
     Davidson diagonalization with overlap
     ethr =  1.12E-05,  avg # of iterations =  2.0

     total cpu time spent up to now is        0.5 secs

     total energy              =    -152.07764563 Ry
     Harris-Foulkes estimate   =    -152.07765709 Ry
     estimated scf accuracy    <       0.00002788 Ry

     iteration #  5     ecut=   110.00 Ry     beta=0.70
     Davidson diagonalization with overlap
     ethr =  1.74E-07,  avg # of iterations =  1.2

     total cpu time spent up to now is        0.6 secs

     total energy              =    -152.07764774 Ry
     Harris-Foulkes estimate   =    -152.07764729 Ry
     estimated scf accuracy    <       0.00000240 Ry

     iteration #  6     ecut=   110.00 Ry     beta=0.70
     Davidson diagonalization with overlap
     ethr =  1.50E-08,  avg # of iterations =  2.0

     total cpu time spent up to now is        0.7 secs

     total energy              =    -152.07764823 Ry
     Harris-Foulkes estimate   =    -152.07764835 Ry
     estimated scf accuracy    <       0.00000038 Ry

     iteration #  7     ecut=   110.00 Ry     beta=0.70
     Davidson diagonalization with overlap
     ethr =  2.38E-09,  avg # of iterations =  1.0

     total cpu time spent up to now is        0.7 secs

     total energy              =    -152.07764816 Ry
     Harris-Foulkes estimate   =    -152.07764825 Ry
     estimated scf accuracy    <       0.00000014 Ry

     iteration #  8     ecut=   110.00 Ry     beta=0.70
     Davidson diagonalization with overlap
     ethr =  8.67E-10,  avg # of iterations =  2.0

     total cpu time spent up to now is        0.8 secs

     End of self-consistent calculation

          k = 0.0000 0.0000 0.0000 (  2445 PWs)   bands (ev):

   -64.4677 -31.2669 -31.2202 -31.2202  -9.3179   7.5981   7.5981   7.8151

          k =-0.2500 0.2500-0.2500 (  2523 PWs)   bands (ev):

   -64.4636 -31.2810 -31.2534 -31.2251  -8.7473   5.1169   7.3363   7.5814

          k = 0.5000-0.5000 0.5000 (  2512 PWs)   bands (ev):

   -64.4594 -31.3148 -31.2666 -31.2301  -8.0828   3.3097   7.0922   7.3440

          k = 0.0000 0.5000 0.0000 (  2525 PWs)   bands (ev):

   -64.4623 -31.2900 -31.2496 -31.2341  -8.5945   5.2009   6.9441   7.1029

          k = 0.7500-0.2500 0.7500 (  2504 PWs)   bands (ev):

   -64.4582 -31.2947 -31.2900 -31.2391  -7.9765   4.0974   6.0491   6.7216

          k = 0.5000 0.0000 0.5000 (  2517 PWs)   bands (ev):

   -64.4597 -31.3155 -31.2598 -31.2294  -8.1565   4.3793   5.8861   7.0560

          k = 0.0000-1.0000 0.0000 (  2498 PWs)   bands (ev):

   -64.4569 -31.3159 -31.2721 -31.2482  -7.8513   3.8928   6.3872   6.4971

          k =-0.5000-1.0000 0.0000 (  2488 PWs)   bands (ev):

   -64.4569 -31.3075 -31.2750 -31.2553  -7.7995   4.9174   4.9991   6.0711

          k =-0.2500-0.2500-0.2500 (  2523 PWs)   bands (ev):

   -64.4638 -31.3055 -31.2244 -31.2244  -8.7521   5.2108   7.3013   7.3013

          k = 0.5000 0.5000 0.5000 (  2512 PWs)   bands (ev):

   -64.4599 -31.3438 -31.2286 -31.2286  -8.0909   3.3402   7.0264   7.0264

          k =-0.2500-0.7500 0.7500 (  2504 PWs)   bands (ev):

   -64.4582 -31.3060 -31.2689 -31.2489  -7.9767   4.0942   5.9267   6.8882

          k = 0.2500 0.7500 0.7500 (  2504 PWs)   bands (ev):

   -64.4584 -31.3261 -31.2542 -31.2384  -7.9791   4.1303   5.8985   6.6915

          k = 0.0000-0.5000 0.5000 (  2517 PWs)   bands (ev):

   -64.4594 -31.2864 -31.2805 -31.2431  -8.1544   4.3658   5.8805   7.2702

     highest occupied level (ev):     7.8151

!    total energy              =    -152.07764820 Ry
     Harris-Foulkes estimate   =    -152.07764820 Ry
     estimated scf accuracy    <          7.6E-09 Ry

     The total energy is the sum of the following terms:

     one-electron contribution =     -77.00427002 Ry
     hartree contribution      =      42.73809274 Ry
     xc contribution           =     -24.52287605 Ry
     ewald contribution        =     -93.28859487 Ry

     convergence has been achieved in   8 iterations

     Forces acting on atoms (cartesian axes, Ry/au):

     atom    1 type  1   force =    -0.03867948   -0.03867948   -0.03867948
     atom    2 type  2   force =     0.03867948    0.03867948    0.03867948

     Total force =     0.094745     Total SCF correction =     0.000067


     Computing stress (Cartesian axis) and pressure

          total   stress  (Ry/bohr**3)                   (kbar)     P=  129.60
   0.00088102  -0.00017800  -0.00017800        129.60    -26.18    -26.18
  -0.00017800   0.00088102  -0.00017800        -26.18    129.60    -26.18
  -0.00017800  -0.00017800   0.00088102        -26.18    -26.18    129.60


     Writing output data file diamond.8.01.110.4.save
 
     init_run     :      0.06s CPU      0.07s WALL (       1 calls)
     electrons    :      0.58s CPU      0.60s WALL (       1 calls)
     forces       :      0.01s CPU      0.02s WALL (       1 calls)
     stress       :      0.03s CPU      0.04s WALL (       1 calls)

     Called by init_run:
     wfcinit      :      0.03s CPU      0.03s WALL (       1 calls)
     potinit      :      0.01s CPU      0.01s WALL (       1 calls)

     Called by electrons:
     c_bands      :      0.46s CPU      0.48s WALL (       8 calls)
     sum_band     :      0.08s CPU      0.09s WALL (       8 calls)
     v_of_rho     :      0.03s CPU      0.03s WALL (       9 calls)
     mix_rho      :      0.00s CPU      0.00s WALL (       8 calls)

     Called by c_bands:
     init_us_2    :      0.02s CPU      0.02s WALL (     247 calls)
     cegterg      :      0.42s CPU      0.44s WALL (     104 calls)

     Called by sum_band:

     Called by *egterg:
     h_psi        :      0.36s CPU      0.38s WALL (     311 calls)
     g_psi        :      0.00s CPU      0.00s WALL (     194 calls)
     cdiaghg      :      0.03s CPU      0.03s WALL (     298 calls)

     Called by h_psi:
     h_psi:pot    :      0.36s CPU      0.37s WALL (     311 calls)
     h_psi:calbec :      0.02s CPU      0.02s WALL (     311 calls)
     vloc_psi     :      0.33s CPU      0.35s WALL (     311 calls)
     add_vuspsi   :      0.01s CPU      0.01s WALL (     311 calls)

     General routines
     calbec       :      0.02s CPU      0.02s WALL (     376 calls)
     fft          :      0.01s CPU      0.02s WALL (     123 calls)
     fftw         :      0.37s CPU      0.37s WALL (    5242 calls)
     davcio       :      0.00s CPU      0.00s WALL (      13 calls)
 
     Parallel routines
     fft_scatter  :      0.12s CPU      0.12s WALL (    5365 calls)
 
     PWSCF        :     0.86s CPU         0.92s WALL

 
   This run was terminated on:  14:12:21  17Apr2018            

=------------------------------------------------------------------------------=
   JOB DONE.
=------------------------------------------------------------------------------=
