
     Program PWSCF v.6.1 (svn rev. 13369) starts on 17Apr2018 at 14:12:30 

     This program is part of the open-source Quantum ESPRESSO suite
     for quantum simulation of materials; please cite
         "P. Giannozzi et al., J. Phys.:Condens. Matter 21 395502 (2009);
          URL http://www.quantum-espresso.org", 
     in publications or presentations arising from this work. More details at
     http://www.quantum-espresso.org/quote

     Parallel version (MPI), running on     8 processors
     R & G space division:  proc/nbgrp/npool/nimage =       8
     Waiting for input...
     Reading input from standard input

     Current dimensions of program PWSCF are:
     Max number of different atomic species (ntypx) = 10
     Max number of k-points (npk) =  40000
     Max angular momentum in pseudopotentials (lmaxx) =  3

     Subspace diagonalization in iterative solution of the eigenvalue problem:
     a serial algorithm will be used

 
     Parallelization info
     --------------------
     sticks:   dense  smooth     PW     G-vecs:    dense   smooth      PW
     Min         154     154     45                 3558     3558     558
     Max         155     155     46                 3560     3560     560
     Sum        1237    1237    361                28475    28475    4477
 


     bravais-lattice index     =            2
     lattice parameter (alat)  =       7.9700  a.u.
     unit-cell volume          =     126.5654 (a.u.)^3
     number of atoms/cell      =            2
     number of atomic types    =            2
     number of electrons       =        16.00
     number of Kohn-Sham states=            8
     kinetic-energy cutoff     =     140.0000  Ry
     charge density cutoff     =     560.0000  Ry
     convergence threshold     =      1.0E-08
     mixing beta               =       0.7000
     number of iterations used =            8  plain     mixing
     Exchange-correlation      = PBE ( 1  4  3  4 0 0)

     celldm(1)=   7.970000  celldm(2)=   0.000000  celldm(3)=   0.000000
     celldm(4)=   0.000000  celldm(5)=   0.000000  celldm(6)=   0.000000

     crystal axes: (cart. coord. in units of alat)
               a(1) = (  -0.500000   0.000000   0.500000 )  
               a(2) = (   0.000000   0.500000   0.500000 )  
               a(3) = (  -0.500000   0.500000   0.000000 )  

     reciprocal axes: (cart. coord. in units 2 pi/alat)
               b(1) = ( -1.000000 -1.000000  1.000000 )  
               b(2) = (  1.000000  1.000000  1.000000 )  
               b(3) = ( -1.000000  1.000000 -1.000000 )  


     PseudoPot. # 1 for Mg read from file:
     ../pseudo/Mg.pbe.UPF
     MD5 check sum: 4c04d8c6e0476e83eaecaf72fa8acc4d
     Pseudo is Norm-conserving, Zval = 10.0
     Generated using ONCVPSP code by D. R. Hamann
     Using radial grid of 1510 points,  4 beta functions with: 
                l(1) =   0
                l(2) =   0
                l(3) =   1
                l(4) =   1

     PseudoPot. # 2 for O  read from file:
     ../pseudo/O.pbe.UPF
     MD5 check sum: 3e3f909f7470e8921608ab6b1f57bbae
     Pseudo is Norm-conserving + core correction, Zval =  6.0
     Generated using ONCVPSP code by D. R. Hamann
     Using radial grid of  936 points,  5 beta functions with: 
                l(1) =   0
                l(2) =   0
                l(3) =   1
                l(4) =   1
                l(5) =   2

     atomic species   valence    mass     pseudopotential
        Mg            10.00    24.30500     Mg( 1.00)
        O              6.00    15.99940     O ( 1.00)

      6 Sym. Ops. (no inversion) found



   Cartesian axes

     site n.     atom                  positions (alat units)
         1           Mg  tau(   1) = (   0.0500000   0.0500000   0.0500000  )
         2           O   tau(   2) = (   0.5000000   0.5000000   0.5000000  )

     number of k points=    13
                       cart. coord. in units 2pi/alat
        k(    1) = (   0.0000000   0.0000000   0.0000000), wk =   0.0312500
        k(    2) = (  -0.2500000   0.2500000  -0.2500000), wk =   0.1875000
        k(    3) = (   0.5000000  -0.5000000   0.5000000), wk =   0.0937500
        k(    4) = (   0.0000000   0.5000000   0.0000000), wk =   0.1875000
        k(    5) = (   0.7500000  -0.2500000   0.7500000), wk =   0.1875000
        k(    6) = (   0.5000000   0.0000000   0.5000000), wk =   0.1875000
        k(    7) = (   0.0000000  -1.0000000   0.0000000), wk =   0.0937500
        k(    8) = (  -0.5000000  -1.0000000   0.0000000), wk =   0.1875000
        k(    9) = (  -0.2500000  -0.2500000  -0.2500000), wk =   0.0625000
        k(   10) = (   0.5000000   0.5000000   0.5000000), wk =   0.0312500
        k(   11) = (  -0.2500000  -0.7500000   0.7500000), wk =   0.3750000
        k(   12) = (   0.2500000   0.7500000   0.7500000), wk =   0.1875000
        k(   13) = (   0.0000000  -0.5000000   0.5000000), wk =   0.1875000

     Dense  grid:    28475 G-vectors     FFT dimensions: (  45,  45,  45)

     Estimated max dynamical RAM per process >       3.46MB

     Estimated total allocated dynamical RAM >      27.69MB

     Initial potential from superposition of free atoms

     starting charge   15.99920, renormalised to   16.00000
     Starting wfc are    9 randomized atomic wfcs

     total cpu time spent up to now is        0.2 secs

     per-process dynamical memory:    40.6 Mb

     Self-consistent Calculation

     iteration #  1     ecut=   140.00 Ry     beta=0.70
     Davidson diagonalization with overlap
     ethr =  1.00E-02,  avg # of iterations =  2.0

     total cpu time spent up to now is        0.3 secs

     total energy              =    -151.89239375 Ry
     Harris-Foulkes estimate   =    -152.20480882 Ry
     estimated scf accuracy    <       0.43403713 Ry

     iteration #  2     ecut=   140.00 Ry     beta=0.70
     Davidson diagonalization with overlap
     ethr =  2.71E-03,  avg # of iterations =  2.5

     total cpu time spent up to now is        0.5 secs

     total energy              =    -152.00303683 Ry
     Harris-Foulkes estimate   =    -152.18147882 Ry
     estimated scf accuracy    <       0.36394322 Ry

     iteration #  3     ecut=   140.00 Ry     beta=0.70
     Davidson diagonalization with overlap
     ethr =  2.27E-03,  avg # of iterations =  2.0

     total cpu time spent up to now is        0.6 secs

     total energy              =    -152.07542301 Ry
     Harris-Foulkes estimate   =    -152.07559400 Ry
     estimated scf accuracy    <       0.00175250 Ry

     iteration #  4     ecut=   140.00 Ry     beta=0.70
     Davidson diagonalization with overlap
     ethr =  1.10E-05,  avg # of iterations =  2.0

     total cpu time spent up to now is        0.7 secs

     total energy              =    -152.07580019 Ry
     Harris-Foulkes estimate   =    -152.07580955 Ry
     estimated scf accuracy    <       0.00002442 Ry

     iteration #  5     ecut=   140.00 Ry     beta=0.70
     Davidson diagonalization with overlap
     ethr =  1.53E-07,  avg # of iterations =  1.5

     total cpu time spent up to now is        0.8 secs

     total energy              =    -152.07580235 Ry
     Harris-Foulkes estimate   =    -152.07580174 Ry
     estimated scf accuracy    <       0.00000219 Ry

     iteration #  6     ecut=   140.00 Ry     beta=0.70
     Davidson diagonalization with overlap
     ethr =  1.37E-08,  avg # of iterations =  2.0

     total cpu time spent up to now is        0.9 secs

     total energy              =    -152.07580278 Ry
     Harris-Foulkes estimate   =    -152.07580288 Ry
     estimated scf accuracy    <       0.00000030 Ry

     iteration #  7     ecut=   140.00 Ry     beta=0.70
     Davidson diagonalization with overlap
     ethr =  1.91E-09,  avg # of iterations =  1.0

     total cpu time spent up to now is        1.0 secs

     total energy              =    -152.07580273 Ry
     Harris-Foulkes estimate   =    -152.07580280 Ry
     estimated scf accuracy    <       0.00000010 Ry

     iteration #  8     ecut=   140.00 Ry     beta=0.70
     Davidson diagonalization with overlap
     ethr =  6.18E-10,  avg # of iterations =  2.0

     total cpu time spent up to now is        1.2 secs

     End of self-consistent calculation

          k = 0.0000 0.0000 0.0000 (  3527 PWs)   bands (ev):

   -64.2347 -31.0349 -30.9887 -30.9887  -9.2072   7.7787   7.7787   7.9946

          k =-0.2500 0.2500-0.2500 (  3560 PWs)   bands (ev):

   -64.2303 -31.0509 -31.0231 -30.9939  -8.6200   5.2708   7.5110   7.7571

          k = 0.5000-0.5000 0.5000 (  3582 PWs)   bands (ev):

   -64.2258 -31.0883 -31.0356 -30.9992  -7.9338   3.4299   7.2615   7.5143

          k = 0.0000 0.5000 0.0000 (  3543 PWs)   bands (ev):

   -64.2289 -31.0598 -31.0196 -31.0035  -8.4632   5.3547   7.1144   7.2723

          k = 0.7500-0.2500 0.7500 (  3542 PWs)   bands (ev):

   -64.2244 -31.0658 -31.0616 -31.0088  -7.8258   4.2300   6.1989   6.8875

          k = 0.5000 0.0000 0.5000 (  3527 PWs)   bands (ev):

   -64.2261 -31.0868 -31.0306 -30.9984  -8.0110   4.5143   6.0376   7.2240

          k = 0.0000-1.0000 0.0000 (  3540 PWs)   bands (ev):

   -64.2231 -31.0878 -31.0430 -31.0184  -7.6980   4.0183   6.5503   6.6569

          k =-0.5000-1.0000 0.0000 (  3552 PWs)   bands (ev):

   -64.2231 -31.0782 -31.0469 -31.0258  -7.6437   5.0564   5.1364   6.2280

          k =-0.2500-0.2500-0.2500 (  3560 PWs)   bands (ev):

   -64.2305 -31.0761 -30.9932 -30.9932  -8.6249   5.3620   7.4742   7.4742

          k = 0.5000 0.5000 0.5000 (  3582 PWs)   bands (ev):

   -64.2263 -31.1167 -30.9976 -30.9976  -7.9419   3.4552   7.1924   7.1924

          k =-0.2500-0.7500 0.7500 (  3542 PWs)   bands (ev):

   -64.2244 -31.0777 -31.0394 -31.0191  -7.8261   4.2247   6.0805   7.0538

          k = 0.2500 0.7500 0.7500 (  3542 PWs)   bands (ev):

   -64.2247 -31.0980 -31.0247 -31.0080  -7.8284   4.2571   6.0504   6.8560

          k = 0.0000-0.5000 0.5000 (  3527 PWs)   bands (ev):

   -64.2258 -31.0576 -31.0511 -31.0127  -8.0090   4.5054   6.0322   7.4398

     highest occupied level (ev):     7.9946

!    total energy              =    -152.07580276 Ry
     Harris-Foulkes estimate   =    -152.07580276 Ry
     estimated scf accuracy    <          6.3E-09 Ry

     The total energy is the sum of the following terms:

     one-electron contribution =     -76.27824360 Ry
     hartree contribution      =      42.49813286 Ry
     xc contribution           =     -24.53889843 Ry
     ewald contribution        =     -93.75679359 Ry

     convergence has been achieved in   8 iterations

     Forces acting on atoms (cartesian axes, Ry/au):

     atom    1 type  1   force =    -0.04127362   -0.04127362   -0.04127362
     atom    2 type  2   force =     0.04127362    0.04127362    0.04127362

     Total force =     0.101099     Total SCF correction =     0.000043


     Computing stress (Cartesian axis) and pressure

          total   stress  (Ry/bohr**3)                   (kbar)     P=  158.36
   0.00107654  -0.00019921  -0.00019921        158.36    -29.30    -29.30
  -0.00019921   0.00107654  -0.00019921        -29.30    158.36    -29.30
  -0.00019921  -0.00019921   0.00107654        -29.30    -29.30    158.36


     Writing output data file diamond.7.97.140.4.save
 
     init_run     :      0.08s CPU      0.09s WALL (       1 calls)
     electrons    :      0.91s CPU      0.94s WALL (       1 calls)
     forces       :      0.02s CPU      0.02s WALL (       1 calls)
     stress       :      0.05s CPU      0.05s WALL (       1 calls)

     Called by init_run:
     wfcinit      :      0.04s CPU      0.04s WALL (       1 calls)
     potinit      :      0.01s CPU      0.01s WALL (       1 calls)

     Called by electrons:
     c_bands      :      0.72s CPU      0.74s WALL (       8 calls)
     sum_band     :      0.14s CPU      0.14s WALL (       8 calls)
     v_of_rho     :      0.05s CPU      0.05s WALL (       9 calls)
     mix_rho      :      0.00s CPU      0.00s WALL (       8 calls)

     Called by c_bands:
     init_us_2    :      0.03s CPU      0.03s WALL (     247 calls)
     cegterg      :      0.66s CPU      0.69s WALL (     104 calls)

     Called by sum_band:

     Called by *egterg:
     h_psi        :      0.61s CPU      0.63s WALL (     312 calls)
     g_psi        :      0.00s CPU      0.00s WALL (     195 calls)
     cdiaghg      :      0.04s CPU      0.04s WALL (     299 calls)

     Called by h_psi:
     h_psi:pot    :      0.61s CPU      0.63s WALL (     312 calls)
     h_psi:calbec :      0.02s CPU      0.02s WALL (     312 calls)
     vloc_psi     :      0.58s CPU      0.60s WALL (     312 calls)
     add_vuspsi   :      0.01s CPU      0.01s WALL (     312 calls)

     General routines
     calbec       :      0.02s CPU      0.02s WALL (     377 calls)
     fft          :      0.02s CPU      0.03s WALL (     123 calls)
     fftw         :      0.64s CPU      0.65s WALL (    5242 calls)
     davcio       :      0.00s CPU      0.00s WALL (      13 calls)
 
     Parallel routines
     fft_scatter  :      0.15s CPU      0.17s WALL (    5365 calls)
 
     PWSCF        :     1.24s CPU         1.31s WALL

 
   This run was terminated on:  14:12:31  17Apr2018            

=------------------------------------------------------------------------------=
   JOB DONE.
=------------------------------------------------------------------------------=
