
     Program PWSCF v.6.1 (svn rev. 13369) starts on 17Apr2018 at 14:12:42 

     This program is part of the open-source Quantum ESPRESSO suite
     for quantum simulation of materials; please cite
         "P. Giannozzi et al., J. Phys.:Condens. Matter 21 395502 (2009);
          URL http://www.quantum-espresso.org", 
     in publications or presentations arising from this work. More details at
     http://www.quantum-espresso.org/quote

     Parallel version (MPI), running on     8 processors
     R & G space division:  proc/nbgrp/npool/nimage =       8
     Waiting for input...
     Reading input from standard input

     Current dimensions of program PWSCF are:
     Max number of different atomic species (ntypx) = 10
     Max number of k-points (npk) =  40000
     Max angular momentum in pseudopotentials (lmaxx) =  3

     Subspace diagonalization in iterative solution of the eigenvalue problem:
     a serial algorithm will be used

 
     Parallelization info
     --------------------
     sticks:   dense  smooth     PW     G-vecs:    dense   smooth      PW
     Min         222     222     62                 6153     6153     922
     Max         223     223     63                 6154     6154     926
     Sum        1777    1777    499                49229    49229    7391
 


     bravais-lattice index     =            2
     lattice parameter (alat)  =       8.0100  a.u.
     unit-cell volume          =     128.4806 (a.u.)^3
     number of atoms/cell      =            2
     number of atomic types    =            2
     number of electrons       =        16.00
     number of Kohn-Sham states=            8
     kinetic-energy cutoff     =     200.0000  Ry
     charge density cutoff     =     800.0000  Ry
     convergence threshold     =      1.0E-08
     mixing beta               =       0.7000
     number of iterations used =            8  plain     mixing
     Exchange-correlation      = PBE ( 1  4  3  4 0 0)

     celldm(1)=   8.010000  celldm(2)=   0.000000  celldm(3)=   0.000000
     celldm(4)=   0.000000  celldm(5)=   0.000000  celldm(6)=   0.000000

     crystal axes: (cart. coord. in units of alat)
               a(1) = (  -0.500000   0.000000   0.500000 )  
               a(2) = (   0.000000   0.500000   0.500000 )  
               a(3) = (  -0.500000   0.500000   0.000000 )  

     reciprocal axes: (cart. coord. in units 2 pi/alat)
               b(1) = ( -1.000000 -1.000000  1.000000 )  
               b(2) = (  1.000000  1.000000  1.000000 )  
               b(3) = ( -1.000000  1.000000 -1.000000 )  


     PseudoPot. # 1 for Mg read from file:
     ../pseudo/Mg.pbe.UPF
     MD5 check sum: 4c04d8c6e0476e83eaecaf72fa8acc4d
     Pseudo is Norm-conserving, Zval = 10.0
     Generated using ONCVPSP code by D. R. Hamann
     Using radial grid of 1510 points,  4 beta functions with: 
                l(1) =   0
                l(2) =   0
                l(3) =   1
                l(4) =   1

     PseudoPot. # 2 for O  read from file:
     ../pseudo/O.pbe.UPF
     MD5 check sum: 3e3f909f7470e8921608ab6b1f57bbae
     Pseudo is Norm-conserving + core correction, Zval =  6.0
     Generated using ONCVPSP code by D. R. Hamann
     Using radial grid of  936 points,  5 beta functions with: 
                l(1) =   0
                l(2) =   0
                l(3) =   1
                l(4) =   1
                l(5) =   2

     atomic species   valence    mass     pseudopotential
        Mg            10.00    24.30500     Mg( 1.00)
        O              6.00    15.99940     O ( 1.00)

      6 Sym. Ops. (no inversion) found



   Cartesian axes

     site n.     atom                  positions (alat units)
         1           Mg  tau(   1) = (   0.0500000   0.0500000   0.0500000  )
         2           O   tau(   2) = (   0.5000000   0.5000000   0.5000000  )

     number of k points=    13
                       cart. coord. in units 2pi/alat
        k(    1) = (   0.0000000   0.0000000   0.0000000), wk =   0.0312500
        k(    2) = (  -0.2500000   0.2500000  -0.2500000), wk =   0.1875000
        k(    3) = (   0.5000000  -0.5000000   0.5000000), wk =   0.0937500
        k(    4) = (   0.0000000   0.5000000   0.0000000), wk =   0.1875000
        k(    5) = (   0.7500000  -0.2500000   0.7500000), wk =   0.1875000
        k(    6) = (   0.5000000   0.0000000   0.5000000), wk =   0.1875000
        k(    7) = (   0.0000000  -1.0000000   0.0000000), wk =   0.0937500
        k(    8) = (  -0.5000000  -1.0000000   0.0000000), wk =   0.1875000
        k(    9) = (  -0.2500000  -0.2500000  -0.2500000), wk =   0.0625000
        k(   10) = (   0.5000000   0.5000000   0.5000000), wk =   0.0312500
        k(   11) = (  -0.2500000  -0.7500000   0.7500000), wk =   0.3750000
        k(   12) = (   0.2500000   0.7500000   0.7500000), wk =   0.1875000
        k(   13) = (   0.0000000  -0.5000000   0.5000000), wk =   0.1875000

     Dense  grid:    49229 G-vectors     FFT dimensions: (  54,  54,  54)

     Estimated max dynamical RAM per process >       5.92MB

     Estimated total allocated dynamical RAM >      47.40MB

     Initial potential from superposition of free atoms

     starting charge   15.99920, renormalised to   16.00000
     Starting wfc are    9 randomized atomic wfcs

     total cpu time spent up to now is        0.3 secs

     per-process dynamical memory:    45.5 Mb

     Self-consistent Calculation

     iteration #  1     ecut=   200.00 Ry     beta=0.70
     Davidson diagonalization with overlap
     ethr =  1.00E-02,  avg # of iterations =  2.0

     total cpu time spent up to now is        0.5 secs

     total energy              =    -151.89231775 Ry
     Harris-Foulkes estimate   =    -152.20627877 Ry
     estimated scf accuracy    <       0.43588916 Ry

     iteration #  2     ecut=   200.00 Ry     beta=0.70
     Davidson diagonalization with overlap
     ethr =  2.72E-03,  avg # of iterations =  2.7

     total cpu time spent up to now is        0.7 secs

     total energy              =    -152.00259313 Ry
     Harris-Foulkes estimate   =    -152.18646605 Ry
     estimated scf accuracy    <       0.37690089 Ry

     iteration #  3     ecut=   200.00 Ry     beta=0.70
     Davidson diagonalization with overlap
     ethr =  2.36E-03,  avg # of iterations =  2.0

     total cpu time spent up to now is        0.9 secs

     total energy              =    -152.07731808 Ry
     Harris-Foulkes estimate   =    -152.07749189 Ry
     estimated scf accuracy    <       0.00179170 Ry

     iteration #  4     ecut=   200.00 Ry     beta=0.70
     Davidson diagonalization with overlap
     ethr =  1.12E-05,  avg # of iterations =  2.0

     total cpu time spent up to now is        1.1 secs

     total energy              =    -152.07770943 Ry
     Harris-Foulkes estimate   =    -152.07772064 Ry
     estimated scf accuracy    <       0.00002726 Ry

     iteration #  5     ecut=   200.00 Ry     beta=0.70
     Davidson diagonalization with overlap
     ethr =  1.70E-07,  avg # of iterations =  1.4

     total cpu time spent up to now is        1.3 secs

     total energy              =    -152.07771163 Ry
     Harris-Foulkes estimate   =    -152.07771111 Ry
     estimated scf accuracy    <       0.00000227 Ry

     iteration #  6     ecut=   200.00 Ry     beta=0.70
     Davidson diagonalization with overlap
     ethr =  1.42E-08,  avg # of iterations =  2.0

     total cpu time spent up to now is        1.5 secs

     total energy              =    -152.07771209 Ry
     Harris-Foulkes estimate   =    -152.07771220 Ry
     estimated scf accuracy    <       0.00000033 Ry

     iteration #  7     ecut=   200.00 Ry     beta=0.70
     Davidson diagonalization with overlap
     ethr =  2.08E-09,  avg # of iterations =  1.0

     total cpu time spent up to now is        1.7 secs

     total energy              =    -152.07771203 Ry
     Harris-Foulkes estimate   =    -152.07771210 Ry
     estimated scf accuracy    <       0.00000011 Ry

     iteration #  8     ecut=   200.00 Ry     beta=0.70
     Davidson diagonalization with overlap
     ethr =  7.03E-10,  avg # of iterations =  2.0

     total cpu time spent up to now is        1.9 secs

     End of self-consistent calculation

          k = 0.0000 0.0000 0.0000 (  6183 PWs)   bands (ev):

   -64.4681 -31.2673 -31.2206 -31.2206  -9.3180   7.5981   7.5981   7.8150

          k =-0.2500 0.2500-0.2500 (  6120 PWs)   bands (ev):

   -64.4639 -31.2814 -31.2538 -31.2255  -8.7474   5.1168   7.3362   7.5813

          k = 0.5000-0.5000 0.5000 (  6164 PWs)   bands (ev):

   -64.4598 -31.3152 -31.2670 -31.2305  -8.0829   3.3096   7.0921   7.3440

          k = 0.0000 0.5000 0.0000 (  6126 PWs)   bands (ev):

   -64.4626 -31.2904 -31.2500 -31.2345  -8.5945   5.2008   6.9440   7.1028

          k = 0.7500-0.2500 0.7500 (  6132 PWs)   bands (ev):

   -64.4585 -31.2951 -31.2904 -31.2395  -7.9766   4.0973   6.0490   6.7215

          k = 0.5000 0.0000 0.5000 (  6141 PWs)   bands (ev):

   -64.4600 -31.3159 -31.2602 -31.2298  -8.1566   4.3792   5.8860   7.0559

          k = 0.0000-1.0000 0.0000 (  6130 PWs)   bands (ev):

   -64.4572 -31.3163 -31.2725 -31.2486  -7.8513   3.8927   6.3871   6.4970

          k =-0.5000-1.0000 0.0000 (  6080 PWs)   bands (ev):

   -64.4572 -31.3079 -31.2754 -31.2557  -7.7996   4.9173   4.9989   6.0710

          k =-0.2500-0.2500-0.2500 (  6120 PWs)   bands (ev):

   -64.4641 -31.3059 -31.2248 -31.2248  -8.7522   5.2106   7.3012   7.3012

          k = 0.5000 0.5000 0.5000 (  6164 PWs)   bands (ev):

   -64.4602 -31.3442 -31.2290 -31.2290  -8.0910   3.3401   7.0264   7.0264

          k =-0.2500-0.7500 0.7500 (  6132 PWs)   bands (ev):

   -64.4585 -31.3064 -31.2693 -31.2493  -7.9768   4.0941   5.9266   6.8881

          k = 0.2500 0.7500 0.7500 (  6132 PWs)   bands (ev):

   -64.4587 -31.3265 -31.2545 -31.2388  -7.9792   4.1302   5.8985   6.6914

          k = 0.0000-0.5000 0.5000 (  6141 PWs)   bands (ev):

   -64.4598 -31.2868 -31.2809 -31.2435  -8.1544   4.3657   5.8804   7.2702

     highest occupied level (ev):     7.8150

!    total energy              =    -152.07771206 Ry
     Harris-Foulkes estimate   =    -152.07771207 Ry
     estimated scf accuracy    <          7.4E-09 Ry

     The total energy is the sum of the following terms:

     one-electron contribution =     -77.00420111 Ry
     hartree contribution      =      42.73784878 Ry
     xc contribution           =     -24.52276487 Ry
     ewald contribution        =     -93.28859487 Ry

     convergence has been achieved in   8 iterations

     Forces acting on atoms (cartesian axes, Ry/au):

     atom    1 type  1   force =    -0.03869038   -0.03869038   -0.03869038
     atom    2 type  2   force =     0.03869038    0.03869038    0.03869038

     Total force =     0.094772     Total SCF correction =     0.000049


     Computing stress (Cartesian axis) and pressure

          total   stress  (Ry/bohr**3)                   (kbar)     P=  129.59
   0.00088091  -0.00017806  -0.00017806        129.59    -26.19    -26.19
  -0.00017806   0.00088091  -0.00017806        -26.19    129.59    -26.19
  -0.00017806  -0.00017806   0.00088091        -26.19    -26.19    129.59


     Writing output data file diamond.8.01.200.4.save
 
     init_run     :      0.16s CPU      0.17s WALL (       1 calls)
     electrons    :      1.55s CPU      1.59s WALL (       1 calls)
     forces       :      0.03s CPU      0.03s WALL (       1 calls)
     stress       :      0.08s CPU      0.08s WALL (       1 calls)

     Called by init_run:
     wfcinit      :      0.07s CPU      0.07s WALL (       1 calls)
     potinit      :      0.02s CPU      0.02s WALL (       1 calls)

     Called by electrons:
     c_bands      :      1.21s CPU      1.24s WALL (       8 calls)
     sum_band     :      0.25s CPU      0.25s WALL (       8 calls)
     v_of_rho     :      0.08s CPU      0.08s WALL (       9 calls)
     mix_rho      :      0.01s CPU      0.01s WALL (       8 calls)

     Called by c_bands:
     init_us_2    :      0.05s CPU      0.04s WALL (     247 calls)
     cegterg      :      1.12s CPU      1.14s WALL (     104 calls)

     Called by sum_band:

     Called by *egterg:
     h_psi        :      1.06s CPU      1.09s WALL (     313 calls)
     g_psi        :      0.00s CPU      0.01s WALL (     196 calls)
     cdiaghg      :      0.03s CPU      0.04s WALL (     300 calls)

     Called by h_psi:
     h_psi:pot    :      1.06s CPU      1.08s WALL (     313 calls)
     h_psi:calbec :      0.03s CPU      0.03s WALL (     313 calls)
     vloc_psi     :      1.02s CPU      1.04s WALL (     313 calls)
     add_vuspsi   :      0.01s CPU      0.02s WALL (     313 calls)

     General routines
     calbec       :      0.03s CPU      0.03s WALL (     378 calls)
     fft          :      0.04s CPU      0.05s WALL (     123 calls)
     fftw         :      1.16s CPU      1.13s WALL (    5234 calls)
     davcio       :      0.00s CPU      0.01s WALL (      13 calls)
 
     Parallel routines
     fft_scatter  :      0.25s CPU      0.26s WALL (    5357 calls)
 
     PWSCF        :     2.01s CPU         2.10s WALL

 
   This run was terminated on:  14:12:44  17Apr2018            

=------------------------------------------------------------------------------=
   JOB DONE.
=------------------------------------------------------------------------------=
