
     Program PWSCF v.6.1 (svn rev. 13369) starts on 17Apr2018 at 14:11:47 

     This program is part of the open-source Quantum ESPRESSO suite
     for quantum simulation of materials; please cite
         "P. Giannozzi et al., J. Phys.:Condens. Matter 21 395502 (2009);
          URL http://www.quantum-espresso.org", 
     in publications or presentations arising from this work. More details at
     http://www.quantum-espresso.org/quote

     Parallel version (MPI), running on     8 processors
     R & G space division:  proc/nbgrp/npool/nimage =       8
     Waiting for input...
     Reading input from standard input

     Current dimensions of program PWSCF are:
     Max number of different atomic species (ntypx) = 10
     Max number of k-points (npk) =  40000
     Max angular momentum in pseudopotentials (lmaxx) =  3

     Subspace diagonalization in iterative solution of the eigenvalue problem:
     a serial algorithm will be used

 
     Parallelization info
     --------------------
     sticks:   dense  smooth     PW     G-vecs:    dense   smooth      PW
     Min          10      10      4                   66       66      17
     Max          11      11      6                   69       69      18
     Sum          85      85     37                  537      537     137
 


     bravais-lattice index     =            2
     lattice parameter (alat)  =       7.9700  a.u.
     unit-cell volume          =     126.5654 (a.u.)^3
     number of atoms/cell      =            2
     number of atomic types    =            2
     number of electrons       =        16.00
     number of Kohn-Sham states=            8
     kinetic-energy cutoff     =      10.0000  Ry
     charge density cutoff     =      40.0000  Ry
     convergence threshold     =      1.0E-08
     mixing beta               =       0.7000
     number of iterations used =            8  plain     mixing
     Exchange-correlation      = PBE ( 1  4  3  4 0 0)

     celldm(1)=   7.970000  celldm(2)=   0.000000  celldm(3)=   0.000000
     celldm(4)=   0.000000  celldm(5)=   0.000000  celldm(6)=   0.000000

     crystal axes: (cart. coord. in units of alat)
               a(1) = (  -0.500000   0.000000   0.500000 )  
               a(2) = (   0.000000   0.500000   0.500000 )  
               a(3) = (  -0.500000   0.500000   0.000000 )  

     reciprocal axes: (cart. coord. in units 2 pi/alat)
               b(1) = ( -1.000000 -1.000000  1.000000 )  
               b(2) = (  1.000000  1.000000  1.000000 )  
               b(3) = ( -1.000000  1.000000 -1.000000 )  


     PseudoPot. # 1 for Mg read from file:
     ../pseudo/Mg.pbe.UPF
     MD5 check sum: 4c04d8c6e0476e83eaecaf72fa8acc4d
     Pseudo is Norm-conserving, Zval = 10.0
     Generated using ONCVPSP code by D. R. Hamann
     Using radial grid of 1510 points,  4 beta functions with: 
                l(1) =   0
                l(2) =   0
                l(3) =   1
                l(4) =   1

     PseudoPot. # 2 for O  read from file:
     ../pseudo/O.pbe.UPF
     MD5 check sum: 3e3f909f7470e8921608ab6b1f57bbae
     Pseudo is Norm-conserving + core correction, Zval =  6.0
     Generated using ONCVPSP code by D. R. Hamann
     Using radial grid of  936 points,  5 beta functions with: 
                l(1) =   0
                l(2) =   0
                l(3) =   1
                l(4) =   1
                l(5) =   2

     atomic species   valence    mass     pseudopotential
        Mg            10.00    24.30500     Mg( 1.00)
        O              6.00    15.99940     O ( 1.00)

      6 Sym. Ops. (no inversion) found



   Cartesian axes

     site n.     atom                  positions (alat units)
         1           Mg  tau(   1) = (   0.0500000   0.0500000   0.0500000  )
         2           O   tau(   2) = (   0.5000000   0.5000000   0.5000000  )

     number of k points=    13
                       cart. coord. in units 2pi/alat
        k(    1) = (   0.0000000   0.0000000   0.0000000), wk =   0.0312500
        k(    2) = (  -0.2500000   0.2500000  -0.2500000), wk =   0.1875000
        k(    3) = (   0.5000000  -0.5000000   0.5000000), wk =   0.0937500
        k(    4) = (   0.0000000   0.5000000   0.0000000), wk =   0.1875000
        k(    5) = (   0.7500000  -0.2500000   0.7500000), wk =   0.1875000
        k(    6) = (   0.5000000   0.0000000   0.5000000), wk =   0.1875000
        k(    7) = (   0.0000000  -1.0000000   0.0000000), wk =   0.0937500
        k(    8) = (  -0.5000000  -1.0000000   0.0000000), wk =   0.1875000
        k(    9) = (  -0.2500000  -0.2500000  -0.2500000), wk =   0.0625000
        k(   10) = (   0.5000000   0.5000000   0.5000000), wk =   0.0312500
        k(   11) = (  -0.2500000  -0.7500000   0.7500000), wk =   0.3750000
        k(   12) = (   0.2500000   0.7500000   0.7500000), wk =   0.1875000
        k(   13) = (   0.0000000  -0.5000000   0.5000000), wk =   0.1875000

     Dense  grid:      537 G-vectors     FFT dimensions: (  12,  12,  12)

     Estimated max dynamical RAM per process >       0.10MB

     Estimated total allocated dynamical RAM >       0.82MB

     Check: negative/imaginary core charge=   -0.007030    0.000000

     Initial potential from superposition of free atoms
     Check: negative starting charge=   -0.000433

     starting charge   15.99920, renormalised to   16.00000

     negative rho (up, down):  4.335E-04 0.000E+00
     Starting wfc are    9 randomized atomic wfcs

     total cpu time spent up to now is        0.2 secs

     per-process dynamical memory:    24.5 Mb

     Self-consistent Calculation

     iteration #  1     ecut=    10.00 Ry     beta=0.70
     Davidson diagonalization with overlap
     ethr =  1.00E-02,  avg # of iterations =  2.9

     total cpu time spent up to now is        0.2 secs

     total energy              =    -119.74616076 Ry
     Harris-Foulkes estimate   =    -130.62497553 Ry
     estimated scf accuracy    <      14.83389745 Ry

     iteration #  2     ecut=    10.00 Ry     beta=0.70
     Davidson diagonalization with overlap
     ethr =  1.00E-02,  avg # of iterations =  2.2

     total cpu time spent up to now is        0.2 secs

     total energy              =    -120.67766619 Ry
     Harris-Foulkes estimate   =    -121.03770552 Ry
     estimated scf accuracy    <       0.66326560 Ry

     iteration #  3     ecut=    10.00 Ry     beta=0.70
     Davidson diagonalization with overlap
     ethr =  4.15E-03,  avg # of iterations =  1.0

     total cpu time spent up to now is        0.3 secs

     total energy              =    -120.69436776 Ry
     Harris-Foulkes estimate   =    -120.69827169 Ry
     estimated scf accuracy    <       0.01100694 Ry

     iteration #  4     ecut=    10.00 Ry     beta=0.70
     Davidson diagonalization with overlap
     ethr =  6.88E-05,  avg # of iterations =  1.5

     total cpu time spent up to now is        0.3 secs

     total energy              =    -120.69497851 Ry
     Harris-Foulkes estimate   =    -120.69496619 Ry
     estimated scf accuracy    <       0.00010066 Ry

     iteration #  5     ecut=    10.00 Ry     beta=0.70
     Davidson diagonalization with overlap
     ethr =  6.29E-07,  avg # of iterations =  2.5

     total cpu time spent up to now is        0.3 secs

     total energy              =    -120.69499684 Ry
     Harris-Foulkes estimate   =    -120.69499803 Ry
     estimated scf accuracy    <       0.00000539 Ry

     iteration #  6     ecut=    10.00 Ry     beta=0.70
     Davidson diagonalization with overlap
     ethr =  3.37E-08,  avg # of iterations =  2.0

     total cpu time spent up to now is        0.3 secs

     total energy              =    -120.69499719 Ry
     Harris-Foulkes estimate   =    -120.69499732 Ry
     estimated scf accuracy    <       0.00000020 Ry

     iteration #  7     ecut=    10.00 Ry     beta=0.70
     Davidson diagonalization with overlap
     ethr =  1.22E-09,  avg # of iterations =  2.3

     total cpu time spent up to now is        0.3 secs

     End of self-consistent calculation

          k = 0.0000 0.0000 0.0000 (    65 PWs)   bands (ev):

   -95.9667 -15.5756 -12.6344 -12.6344 -12.2466  12.6298  14.7883  14.8322

          k =-0.2500 0.2500-0.2500 (    65 PWs)   bands (ev):

   -95.6483 -16.6232 -12.7999 -11.7833 -11.2780   9.2820  14.5083  14.6089

          k = 0.5000-0.5000 0.5000 (    70 PWs)   bands (ev):

   -97.4718 -17.4836 -14.2257 -14.1355 -11.3344   7.2109  13.2546  13.4193

          k = 0.0000 0.5000 0.0000 (    60 PWs)   bands (ev):

   -93.2980 -15.5151 -11.2138 -10.1445  -9.5398   9.8245  14.9429  15.4613

          k = 0.7500-0.2500 0.7500 (    69 PWs)   bands (ev):

   -96.7620 -17.2624 -13.9510 -13.1815 -11.6066   9.3201  13.1659  13.6945

          k = 0.5000 0.0000 0.5000 (    67 PWs)   bands (ev):

   -96.0193 -17.1746 -13.6300 -12.0794 -11.1693   8.3441  13.5921  13.9341

          k = 0.0000-1.0000 0.0000 (    64 PWs)   bands (ev):

   -94.4964 -16.0412 -12.3887 -12.2316 -10.4850  12.3494  14.0353  15.5317

          k =-0.5000-1.0000 0.0000 (    68 PWs)   bands (ev):

   -96.3534 -16.8447 -14.1683 -13.3553 -10.8366  11.1928  12.9874  13.0547

          k =-0.2500-0.2500-0.2500 (    65 PWs)   bands (ev):

   -95.6834 -16.3337 -12.5307 -11.7530 -11.7530   9.2714  14.1268  14.1268

          k = 0.5000 0.5000 0.5000 (    70 PWs)   bands (ev):

   -97.4677 -16.6030 -14.1654 -14.1654 -12.4359   7.5738  12.7476  12.7476

          k =-0.2500-0.7500 0.7500 (    69 PWs)   bands (ev):

   -96.6979 -16.9541 -14.0897 -13.5098 -11.4954   9.3764  13.1373  13.8660

          k = 0.2500 0.7500 0.7500 (    69 PWs)   bands (ev):

   -96.7010 -16.4758 -14.0729 -13.8477 -11.5573   9.2966  12.9170  13.3051

          k = 0.0000-0.5000 0.5000 (    67 PWs)   bands (ev):

   -95.9926 -17.2862 -13.6844 -12.0604 -11.0505   8.2382  13.6469  14.3091

     highest occupied level (ev):    15.5317

!    total energy              =    -120.69499720 Ry
     Harris-Foulkes estimate   =    -120.69499723 Ry
     estimated scf accuracy    <          8.8E-09 Ry

     The total energy is the sum of the following terms:

     one-electron contribution =     -22.52483293 Ry
     hartree contribution      =      14.17806432 Ry
     xc contribution           =     -18.59143498 Ry
     ewald contribution        =     -93.75679362 Ry

     convergence has been achieved in   7 iterations

     Forces acting on atoms (cartesian axes, Ry/au):

     atom    1 type  1   force =    -0.08067399   -0.08067399   -0.08067399
     atom    2 type  2   force =     0.08067399    0.08067399    0.08067399

     Total force =     0.197610     Total SCF correction =     0.000142


     Computing stress (Cartesian axis) and pressure

          total   stress  (Ry/bohr**3)                   (kbar)     P=********
  -0.14365191  -0.00069357  -0.00069357     -21131.92   -102.03   -102.03
  -0.00069357  -0.14365191  -0.00069357       -102.03 -21131.92   -102.03
  -0.00069357  -0.00069357  -0.14365191       -102.03   -102.03 -21131.92


     Writing output data file diamond.7.97.10.4.save
 
     init_run     :      0.01s CPU      0.03s WALL (       1 calls)
     electrons    :      0.12s CPU      0.14s WALL (       1 calls)
     forces       :      0.00s CPU      0.00s WALL (       1 calls)
     stress       :      0.00s CPU      0.01s WALL (       1 calls)

     Called by init_run:
     wfcinit      :      0.01s CPU      0.01s WALL (       1 calls)
     potinit      :      0.00s CPU      0.00s WALL (       1 calls)

     Called by electrons:
     c_bands      :      0.11s CPU      0.12s WALL (       7 calls)
     sum_band     :      0.01s CPU      0.01s WALL (       7 calls)
     v_of_rho     :      0.00s CPU      0.00s WALL (       8 calls)
     mix_rho      :      0.00s CPU      0.00s WALL (       7 calls)

     Called by c_bands:
     init_us_2    :      0.00s CPU      0.00s WALL (     221 calls)
     cegterg      :      0.11s CPU      0.12s WALL (      91 calls)

     Called by sum_band:

     Called by *egterg:
     h_psi        :      0.05s CPU      0.07s WALL (     290 calls)
     g_psi        :      0.00s CPU      0.00s WALL (     186 calls)
     cdiaghg      :      0.03s CPU      0.04s WALL (     277 calls)

     Called by h_psi:
     h_psi:pot    :      0.05s CPU      0.06s WALL (     290 calls)
     h_psi:calbec :      0.01s CPU      0.01s WALL (     290 calls)
     vloc_psi     :      0.04s CPU      0.05s WALL (     290 calls)
     add_vuspsi   :      0.00s CPU      0.00s WALL (     290 calls)

     General routines
     calbec       :      0.01s CPU      0.01s WALL (     355 calls)
     fft          :      0.00s CPU      0.01s WALL (     112 calls)
     fftw         :      0.04s CPU      0.06s WALL (    4652 calls)
     davcio       :      0.00s CPU      0.00s WALL (      13 calls)
 
     Parallel routines
     fft_scatter  :      0.03s CPU      0.04s WALL (    4764 calls)
 
     PWSCF        :     0.31s CPU         0.40s WALL

 
   This run was terminated on:  14:11:47  17Apr2018            

=------------------------------------------------------------------------------=
   JOB DONE.
=------------------------------------------------------------------------------=
