
     Program PWSCF v.6.1 (svn rev. 13369) starts on 17Apr2018 at 14: 3:15 

     This program is part of the open-source Quantum ESPRESSO suite
     for quantum simulation of materials; please cite
         "P. Giannozzi et al., J. Phys.:Condens. Matter 21 395502 (2009);
          URL http://www.quantum-espresso.org", 
     in publications or presentations arising from this work. More details at
     http://www.quantum-espresso.org/quote

     Parallel version (MPI), running on     8 processors
     R & G space division:  proc/nbgrp/npool/nimage =       8
     Waiting for input...
     Reading input from standard input

     Current dimensions of program PWSCF are:
     Max number of different atomic species (ntypx) = 10
     Max number of k-points (npk) =  40000
     Max angular momentum in pseudopotentials (lmaxx) =  3

     Subspace diagonalization in iterative solution of the eigenvalue problem:
     a serial algorithm will be used

 
     Parallelization info
     --------------------
     sticks:   dense  smooth     PW     G-vecs:    dense   smooth      PW
     Min          86      86     26                 1506     1506     260
     Max          87      87     27                 1507     1507     262
     Sum         691     691    211                12051    12051    2085
 


     bravais-lattice index     =            2
     lattice parameter (alat)  =       7.9700  a.u.
     unit-cell volume          =     126.5654 (a.u.)^3
     number of atoms/cell      =            2
     number of atomic types    =            2
     number of electrons       =        16.00
     number of Kohn-Sham states=            8
     kinetic-energy cutoff     =      80.0000  Ry
     charge density cutoff     =     320.0000  Ry
     convergence threshold     =      1.0E-08
     mixing beta               =       0.7000
     number of iterations used =            8  plain     mixing
     Exchange-correlation      = PBE ( 1  4  3  4 0 0)

     celldm(1)=   7.970000  celldm(2)=   0.000000  celldm(3)=   0.000000
     celldm(4)=   0.000000  celldm(5)=   0.000000  celldm(6)=   0.000000

     crystal axes: (cart. coord. in units of alat)
               a(1) = (  -0.500000   0.000000   0.500000 )  
               a(2) = (   0.000000   0.500000   0.500000 )  
               a(3) = (  -0.500000   0.500000   0.000000 )  

     reciprocal axes: (cart. coord. in units 2 pi/alat)
               b(1) = ( -1.000000 -1.000000  1.000000 )  
               b(2) = (  1.000000  1.000000  1.000000 )  
               b(3) = ( -1.000000  1.000000 -1.000000 )  


     PseudoPot. # 1 for Mg read from file:
     ../pseudo/Mg.pbe.UPF
     MD5 check sum: 4c04d8c6e0476e83eaecaf72fa8acc4d
     Pseudo is Norm-conserving, Zval = 10.0
     Generated using ONCVPSP code by D. R. Hamann
     Using radial grid of 1510 points,  4 beta functions with: 
                l(1) =   0
                l(2) =   0
                l(3) =   1
                l(4) =   1

     PseudoPot. # 2 for O  read from file:
     ../pseudo/O.pbe.UPF
     MD5 check sum: 3e3f909f7470e8921608ab6b1f57bbae
     Pseudo is Norm-conserving + core correction, Zval =  6.0
     Generated using ONCVPSP code by D. R. Hamann
     Using radial grid of  936 points,  5 beta functions with: 
                l(1) =   0
                l(2) =   0
                l(3) =   1
                l(4) =   1
                l(5) =   2

     atomic species   valence    mass     pseudopotential
        Mg            10.00    24.30500     Mg( 1.00)
        O              6.00    15.99940     O ( 1.00)

      6 Sym. Ops. (no inversion) found



   Cartesian axes

     site n.     atom                  positions (alat units)
         1           Mg  tau(   1) = (   0.0500000   0.0500000   0.0500000  )
         2           O   tau(   2) = (   0.5000000   0.5000000   0.5000000  )

     number of k points=    32
                       cart. coord. in units 2pi/alat
        k(    1) = (   0.0000000   0.0000000   0.0000000), wk =   0.0092593
        k(    2) = (  -0.1666667   0.1666667  -0.1666667), wk =   0.0555556
        k(    3) = (  -0.3333333   0.3333333  -0.3333333), wk =   0.0555556
        k(    4) = (   0.5000000  -0.5000000   0.5000000), wk =   0.0277778
        k(    5) = (   0.0000000   0.3333333   0.0000000), wk =   0.0555556
        k(    6) = (  -0.1666667   0.5000000  -0.1666667), wk =   0.0555556
        k(    7) = (   0.6666667  -0.3333333   0.6666667), wk =   0.0555556
        k(    8) = (   0.5000000  -0.1666667   0.5000000), wk =   0.0555556
        k(    9) = (   0.3333333   0.0000000   0.3333333), wk =   0.0555556
        k(   10) = (   0.0000000   0.6666667   0.0000000), wk =   0.0555556
        k(   11) = (   0.8333333  -0.1666667   0.8333333), wk =   0.0555556
        k(   12) = (   0.6666667  -0.0000000   0.6666667), wk =   0.0555556
        k(   13) = (   0.0000000  -1.0000000   0.0000000), wk =   0.0277778
        k(   14) = (   0.6666667  -0.3333333   1.0000000), wk =   0.1111111
        k(   15) = (   0.5000000  -0.1666667   0.8333333), wk =   0.1111111
        k(   16) = (  -0.3333333  -1.0000000   0.0000000), wk =   0.1111111
        k(   17) = (  -0.1666667  -0.1666667  -0.1666667), wk =   0.0185185
        k(   18) = (  -0.3333333  -0.3333333  -0.3333333), wk =   0.0185185
        k(   19) = (   0.5000000   0.5000000   0.5000000), wk =   0.0092593
        k(   20) = (   0.5000000   0.1666667  -0.1666667), wk =   0.1111111
        k(   21) = (  -0.5000000  -0.1666667  -0.1666667), wk =   0.0555556
        k(   22) = (  -0.3333333  -0.6666667   0.6666667), wk =   0.1111111
        k(   23) = (   0.3333333   0.6666667   0.6666667), wk =   0.0555556
        k(   24) = (  -0.1666667  -0.5000000   0.5000000), wk =   0.1111111
        k(   25) = (   0.1666667   0.5000000   0.5000000), wk =   0.0555556
        k(   26) = (   0.0000000  -0.3333333   0.3333333), wk =   0.0555556
        k(   27) = (  -0.1666667  -0.8333333   0.8333333), wk =   0.1111111
        k(   28) = (   0.1666667   0.8333333   0.8333333), wk =   0.0555556
        k(   29) = (   0.0000000  -0.6666667   0.6666667), wk =   0.0555556
        k(   30) = (  -0.3333333  -0.6666667   1.0000000), wk =   0.1111111
        k(   31) = (   0.1666667   0.5000000   0.8333333), wk =   0.0555556
        k(   32) = (  -0.8333333  -0.1666667   0.5000000), wk =   0.0555556

     Dense  grid:    12051 G-vectors     FFT dimensions: (  36,  36,  36)

     Estimated max dynamical RAM per process >       2.03MB

     Estimated total allocated dynamical RAM >      16.23MB

     Check: negative/imaginary core charge=   -0.000001    0.000000

     Initial potential from superposition of free atoms

     starting charge   15.99920, renormalised to   16.00000
     Starting wfc are    9 randomized atomic wfcs

     total cpu time spent up to now is        0.2 secs

     per-process dynamical memory:    37.1 Mb

     Self-consistent Calculation

     iteration #  1     ecut=    80.00 Ry     beta=0.70
     Davidson diagonalization with overlap
     ethr =  1.00E-02,  avg # of iterations =  2.0

     total cpu time spent up to now is        0.4 secs

     total energy              =    -151.89261699 Ry
     Harris-Foulkes estimate   =    -152.20468382 Ry
     estimated scf accuracy    <       0.43357679 Ry

     iteration #  2     ecut=    80.00 Ry     beta=0.70
     Davidson diagonalization with overlap
     ethr =  2.71E-03,  avg # of iterations =  2.7

     total cpu time spent up to now is        0.5 secs

     total energy              =    -152.00205176 Ry
     Harris-Foulkes estimate   =    -152.18339036 Ry
     estimated scf accuracy    <       0.37123952 Ry

     iteration #  3     ecut=    80.00 Ry     beta=0.70
     Davidson diagonalization with overlap
     ethr =  2.32E-03,  avg # of iterations =  2.0

     total cpu time spent up to now is        0.7 secs

     total energy              =    -152.07597372 Ry
     Harris-Foulkes estimate   =    -152.07616267 Ry
     estimated scf accuracy    <       0.00180583 Ry

     iteration #  4     ecut=    80.00 Ry     beta=0.70
     Davidson diagonalization with overlap
     ethr =  1.13E-05,  avg # of iterations =  2.0

     total cpu time spent up to now is        0.8 secs

     total energy              =    -152.07636884 Ry
     Harris-Foulkes estimate   =    -152.07637945 Ry
     estimated scf accuracy    <       0.00002666 Ry

     iteration #  5     ecut=    80.00 Ry     beta=0.70
     Davidson diagonalization with overlap
     ethr =  1.67E-07,  avg # of iterations =  1.6

     total cpu time spent up to now is        0.9 secs

     total energy              =    -152.07637116 Ry
     Harris-Foulkes estimate   =    -152.07637056 Ry
     estimated scf accuracy    <       0.00000217 Ry

     iteration #  6     ecut=    80.00 Ry     beta=0.70
     Davidson diagonalization with overlap
     ethr =  1.35E-08,  avg # of iterations =  2.0

     total cpu time spent up to now is        1.1 secs

     total energy              =    -152.07637157 Ry
     Harris-Foulkes estimate   =    -152.07637164 Ry
     estimated scf accuracy    <       0.00000024 Ry

     iteration #  7     ecut=    80.00 Ry     beta=0.70
     Davidson diagonalization with overlap
     ethr =  1.47E-09,  avg # of iterations =  1.0

     total cpu time spent up to now is        1.2 secs

     total energy              =    -152.07637151 Ry
     Harris-Foulkes estimate   =    -152.07637158 Ry
     estimated scf accuracy    <       0.00000009 Ry

     iteration #  8     ecut=    80.00 Ry     beta=0.70
     Davidson diagonalization with overlap
     ethr =  5.76E-10,  avg # of iterations =  2.0

     total cpu time spent up to now is        1.4 secs

     End of self-consistent calculation

          k = 0.0000 0.0000 0.0000 (  1471 PWs)   bands (ev):

   -64.2317 -31.0313 -30.9853 -30.9853  -9.2185   7.7663   7.7663   7.9820

          k =-0.1667 0.1667-0.1667 (  1513 PWs)   bands (ev):

   -64.2295 -31.0369 -31.0052 -30.9880  -8.9351   6.3419   7.6300   7.8708

          k =-0.3333 0.3333-0.3333 (  1528 PWs)   bands (ev):

   -64.2250 -31.0646 -31.0276 -30.9932  -8.3044   4.3111   7.3721   7.6218

          k = 0.5000-0.5000 0.5000 (  1502 PWs)   bands (ev):

   -64.2228 -31.0850 -31.0320 -30.9958  -7.9465   3.4222   7.2496   7.5023

          k = 0.0000 0.3333 0.0000 (  1511 PWs)   bands (ev):

   -64.2288 -31.0432 -31.0020 -30.9927  -8.8500   6.3151   7.4198   7.5985

          k =-0.1667 0.5000-0.1667 (  1534 PWs)   bands (ev):

   -64.2250 -31.0456 -31.0393 -30.9993  -8.3505   4.8860   7.1472   7.2392

          k = 0.6667-0.3333 0.6667 (  1529 PWs)   bands (ev):

   -64.2221 -31.0736 -31.0452 -31.0006  -7.8950   3.8645   6.6935   7.0577

          k = 0.5000-0.1667 0.5000 (  1526 PWs)   bands (ev):

   -64.2229 -31.0769 -31.0365 -30.9955  -8.0035   4.1067   6.5487   7.2301

          k = 0.3333 0.0000 0.3333 (  1530 PWs)   bands (ev):

   -64.2267 -31.0656 -31.0083 -30.9890  -8.5437   5.3377   7.0154   7.5099

          k = 0.0000 0.6667 0.0000 (  1544 PWs)   bands (ev):

   -64.2229 -31.0701 -31.0287 -31.0076  -8.0951   4.6021   6.8107   6.9441

          k = 0.8333-0.1667 0.8333 (  1533 PWs)   bands (ev):

   -64.2207 -31.0713 -31.0509 -31.0102  -7.7775   4.2884   6.1520   6.7038

          k = 0.6667-0.0000 0.6667 (  1516 PWs)   bands (ev):

   -64.2208 -31.0834 -31.0437 -31.0038  -7.7334   4.7608   5.0425   6.8849

          k = 0.0000-1.0000 0.0000 (  1524 PWs)   bands (ev):

   -64.2200 -31.0843 -31.0396 -31.0150  -7.7111   4.0102   6.5395   6.6461

          k = 0.6667-0.3333 1.0000 (  1536 PWs)   bands (ev):

   -64.2221 -31.0605 -31.0456 -31.0122  -7.9475   4.4817   6.1449   7.0327

          k = 0.5000-0.1667 0.8333 (  1536 PWs)   bands (ev):

   -64.2207 -31.0710 -31.0503 -31.0125  -7.7327   4.4333   5.6120   6.7103

          k =-0.3333-1.0000 0.0000 (  1536 PWs)   bands (ev):

   -64.2200 -31.0774 -31.0424 -31.0205  -7.6705   4.5156   5.7466   6.3215

          k =-0.1667-0.1667-0.1667 (  1513 PWs)   bands (ev):

   -64.2296 -31.0520 -30.9876 -30.9876  -8.9377   6.4814   7.6110   7.6110

          k =-0.3333-0.3333-0.3333 (  1528 PWs)   bands (ev):

   -64.2254 -31.0929 -30.9920 -30.9920  -8.3112   4.3666   7.3187   7.3187

          k = 0.5000 0.5000 0.5000 (  1502 PWs)   bands (ev):

   -64.2232 -31.1132 -30.9942 -30.9942  -7.9546   3.4477   7.1806   7.1806

          k = 0.5000 0.1667-0.1667 (  1534 PWs)   bands (ev):

   -64.2251 -31.0601 -31.0233 -30.9994  -8.3512   4.8840   7.0287   7.3264

          k =-0.5000-0.1667-0.1667 (  1534 PWs)   bands (ev):

   -64.2253 -31.0779 -31.0022 -30.9985  -8.3543   4.9352   7.0353   7.1136

          k =-0.3333-0.6667 0.6667 (  1529 PWs)   bands (ev):

   -64.2221 -31.0773 -31.0355 -31.0067  -7.8952   3.8605   6.5464   7.2430

          k = 0.3333 0.6667 0.6667 (  1529 PWs)   bands (ev):

   -64.2224 -31.1034 -31.0083 -30.9995  -7.9000   3.8944   6.4700   7.0083

          k =-0.1667-0.5000 0.5000 (  1526 PWs)   bands (ev):

   -64.2228 -31.0672 -31.0385 -31.0059  -8.0030   4.1213   6.4427   7.4348

          k = 0.1667 0.5000 0.5000 (  1526 PWs)   bands (ev):

   -64.2231 -31.0970 -31.0116 -30.9947  -8.0077   4.1548   6.3668   7.1956

          k = 0.0000-0.3333 0.3333 (  1530 PWs)   bands (ev):

   -64.2265 -31.0402 -31.0299 -30.9970  -8.5408   5.2960   6.9974   7.7361

          k =-0.1667-0.8333 0.8333 (  1533 PWs)   bands (ev):

   -64.2207 -31.0771 -31.0354 -31.0200  -7.7777   4.2848   6.0377   6.8537

          k = 0.1667 0.8333 0.8333 (  1533 PWs)   bands (ev):

   -64.2208 -31.0873 -31.0326 -31.0098  -7.7784   4.2935   6.0867   6.6887

          k = 0.0000-0.6667 0.6667 (  1516 PWs)   bands (ev):

   -64.2206 -31.0656 -31.0470 -31.0224  -7.7330   4.7417   5.0406   7.0725

          k =-0.3333-0.6667 1.0000 (  1536 PWs)   bands (ev):

   -64.2223 -31.0825 -31.0276 -31.0039  -7.9489   4.4875   6.1492   6.8853

          k = 0.1667 0.5000 0.8333 (  1536 PWs)   bands (ev):

   -64.2209 -31.0916 -31.0302 -31.0078  -7.7341   4.4828   5.5164   6.6296

          k =-0.8333-0.1667 0.5000 (  1536 PWs)   bands (ev):

   -64.2206 -31.0692 -31.0386 -31.0274  -7.7329   4.4416   5.5566   6.8233

     highest occupied level (ev):     7.9820

!    total energy              =    -152.07637154 Ry
     Harris-Foulkes estimate   =    -152.07637154 Ry
     estimated scf accuracy    <          4.7E-09 Ry

     The total energy is the sum of the following terms:

     one-electron contribution =     -76.27543244 Ry
     hartree contribution      =      42.49305116 Ry
     xc contribution           =     -24.53719666 Ry
     ewald contribution        =     -93.75679359 Ry

     convergence has been achieved in   8 iterations

     Forces acting on atoms (cartesian axes, Ry/au):

     atom    1 type  1   force =    -0.04135519   -0.04135519   -0.04135519
     atom    2 type  2   force =     0.04135519    0.04135519    0.04135519

     Total force =     0.101299     Total SCF correction =     0.000044


     Computing stress (Cartesian axis) and pressure

          total   stress  (Ry/bohr**3)                   (kbar)     P=  154.28
   0.00104878  -0.00020140  -0.00020140        154.28    -29.63    -29.63
  -0.00020140   0.00104878  -0.00020140        -29.63    154.28    -29.63
  -0.00020140  -0.00020140   0.00104878        -29.63    -29.63    154.28


     Writing output data file diamond.7.97.80.6.save
 
     init_run     :      0.07s CPU      0.08s WALL (       1 calls)
     electrons    :      1.13s CPU      1.17s WALL (       1 calls)
     forces       :      0.02s CPU      0.02s WALL (       1 calls)
     stress       :      0.04s CPU      0.04s WALL (       1 calls)

     Called by init_run:
     wfcinit      :      0.05s CPU      0.06s WALL (       1 calls)
     potinit      :      0.01s CPU      0.01s WALL (       1 calls)

     Called by electrons:
     c_bands      :      0.94s CPU      0.98s WALL (       8 calls)
     sum_band     :      0.16s CPU      0.17s WALL (       8 calls)
     v_of_rho     :      0.02s CPU      0.02s WALL (       9 calls)
     mix_rho      :      0.00s CPU      0.00s WALL (       8 calls)

     Called by c_bands:
     init_us_2    :      0.03s CPU      0.03s WALL (     608 calls)
     cegterg      :      0.88s CPU      0.91s WALL (     256 calls)

     Called by sum_band:

     Called by *egterg:
     h_psi        :      0.73s CPU      0.77s WALL (     778 calls)
     g_psi        :      0.00s CPU      0.00s WALL (     490 calls)
     cdiaghg      :      0.09s CPU      0.09s WALL (     746 calls)

     Called by h_psi:
     h_psi:pot    :      0.73s CPU      0.77s WALL (     778 calls)
     h_psi:calbec :      0.03s CPU      0.03s WALL (     778 calls)
     vloc_psi     :      0.68s CPU      0.72s WALL (     778 calls)
     add_vuspsi   :      0.01s CPU      0.01s WALL (     778 calls)

     General routines
     calbec       :      0.04s CPU      0.04s WALL (     938 calls)
     fft          :      0.01s CPU      0.01s WALL (     123 calls)
     fftw         :      0.75s CPU      0.77s WALL (   12898 calls)
     davcio       :      0.00s CPU      0.00s WALL (      32 calls)
 
     Parallel routines
     fft_scatter  :      0.20s CPU      0.23s WALL (   13021 calls)
 
     PWSCF        :     1.44s CPU         1.55s WALL

 
   This run was terminated on:  14: 3:17  17Apr2018            

=------------------------------------------------------------------------------=
   JOB DONE.
=------------------------------------------------------------------------------=
