
     Program PWSCF v.6.1 (svn rev. 13369) starts on 17Apr2018 at 14: 3:13 

     This program is part of the open-source Quantum ESPRESSO suite
     for quantum simulation of materials; please cite
         "P. Giannozzi et al., J. Phys.:Condens. Matter 21 395502 (2009);
          URL http://www.quantum-espresso.org", 
     in publications or presentations arising from this work. More details at
     http://www.quantum-espresso.org/quote

     Parallel version (MPI), running on     8 processors
     R & G space division:  proc/nbgrp/npool/nimage =       8
     Waiting for input...
     Reading input from standard input

     Current dimensions of program PWSCF are:
     Max number of different atomic species (ntypx) = 10
     Max number of k-points (npk) =  40000
     Max angular momentum in pseudopotentials (lmaxx) =  3

     Subspace diagonalization in iterative solution of the eigenvalue problem:
     a serial algorithm will be used

 
     Parallelization info
     --------------------
     sticks:   dense  smooth     PW     G-vecs:    dense   smooth      PW
     Min          86      86     26                 1506     1506     260
     Max          87      87     27                 1507     1507     262
     Sum         691     691    211                12051    12051    2085
 


     bravais-lattice index     =            2
     lattice parameter (alat)  =       7.9700  a.u.
     unit-cell volume          =     126.5654 (a.u.)^3
     number of atoms/cell      =            2
     number of atomic types    =            2
     number of electrons       =        16.00
     number of Kohn-Sham states=            8
     kinetic-energy cutoff     =      80.0000  Ry
     charge density cutoff     =     320.0000  Ry
     convergence threshold     =      1.0E-08
     mixing beta               =       0.7000
     number of iterations used =            8  plain     mixing
     Exchange-correlation      = PBE ( 1  4  3  4 0 0)

     celldm(1)=   7.970000  celldm(2)=   0.000000  celldm(3)=   0.000000
     celldm(4)=   0.000000  celldm(5)=   0.000000  celldm(6)=   0.000000

     crystal axes: (cart. coord. in units of alat)
               a(1) = (  -0.500000   0.000000   0.500000 )  
               a(2) = (   0.000000   0.500000   0.500000 )  
               a(3) = (  -0.500000   0.500000   0.000000 )  

     reciprocal axes: (cart. coord. in units 2 pi/alat)
               b(1) = ( -1.000000 -1.000000  1.000000 )  
               b(2) = (  1.000000  1.000000  1.000000 )  
               b(3) = ( -1.000000  1.000000 -1.000000 )  


     PseudoPot. # 1 for Mg read from file:
     ../pseudo/Mg.pbe.UPF
     MD5 check sum: 4c04d8c6e0476e83eaecaf72fa8acc4d
     Pseudo is Norm-conserving, Zval = 10.0
     Generated using ONCVPSP code by D. R. Hamann
     Using radial grid of 1510 points,  4 beta functions with: 
                l(1) =   0
                l(2) =   0
                l(3) =   1
                l(4) =   1

     PseudoPot. # 2 for O  read from file:
     ../pseudo/O.pbe.UPF
     MD5 check sum: 3e3f909f7470e8921608ab6b1f57bbae
     Pseudo is Norm-conserving + core correction, Zval =  6.0
     Generated using ONCVPSP code by D. R. Hamann
     Using radial grid of  936 points,  5 beta functions with: 
                l(1) =   0
                l(2) =   0
                l(3) =   1
                l(4) =   1
                l(5) =   2

     atomic species   valence    mass     pseudopotential
        Mg            10.00    24.30500     Mg( 1.00)
        O              6.00    15.99940     O ( 1.00)

      6 Sym. Ops. (no inversion) found



   Cartesian axes

     site n.     atom                  positions (alat units)
         1           Mg  tau(   1) = (   0.0500000   0.0500000   0.0500000  )
         2           O   tau(   2) = (   0.5000000   0.5000000   0.5000000  )

     number of k points=    19
                       cart. coord. in units 2pi/alat
        k(    1) = (   0.0000000   0.0000000   0.0000000), wk =   0.0160000
        k(    2) = (  -0.2000000   0.2000000  -0.2000000), wk =   0.0960000
        k(    3) = (  -0.4000000   0.4000000  -0.4000000), wk =   0.0960000
        k(    4) = (   0.0000000   0.4000000   0.0000000), wk =   0.0960000
        k(    5) = (  -0.2000000   0.6000000  -0.2000000), wk =   0.0960000
        k(    6) = (   0.6000000  -0.2000000   0.6000000), wk =   0.0960000
        k(    7) = (   0.4000000   0.0000000   0.4000000), wk =   0.0960000
        k(    8) = (   0.0000000   0.8000000   0.0000000), wk =   0.0960000
        k(    9) = (   0.8000000   0.0000000   0.8000000), wk =   0.0960000
        k(   10) = (   0.6000000  -0.2000000   1.0000000), wk =   0.1920000
        k(   11) = (  -0.2000000  -0.2000000  -0.2000000), wk =   0.0320000
        k(   12) = (  -0.4000000  -0.4000000  -0.4000000), wk =   0.0320000
        k(   13) = (   0.6000000   0.2000000  -0.2000000), wk =   0.1920000
        k(   14) = (  -0.6000000  -0.2000000  -0.2000000), wk =   0.0960000
        k(   15) = (  -0.2000000  -0.6000000   0.6000000), wk =   0.1920000
        k(   16) = (   0.2000000   0.6000000   0.6000000), wk =   0.0960000
        k(   17) = (   0.0000000  -0.4000000   0.4000000), wk =   0.0960000
        k(   18) = (   0.0000000  -0.8000000   0.8000000), wk =   0.0960000
        k(   19) = (  -0.2000000  -0.6000000   1.0000000), wk =   0.1920000

     Dense  grid:    12051 G-vectors     FFT dimensions: (  36,  36,  36)

     Estimated max dynamical RAM per process >       1.73MB

     Estimated total allocated dynamical RAM >      13.81MB

     Check: negative/imaginary core charge=   -0.000001    0.000000

     Initial potential from superposition of free atoms

     starting charge   15.99920, renormalised to   16.00000
     Starting wfc are    9 randomized atomic wfcs

     total cpu time spent up to now is        0.2 secs

     per-process dynamical memory:    32.3 Mb

     Self-consistent Calculation

     iteration #  1     ecut=    80.00 Ry     beta=0.70
     Davidson diagonalization with overlap
     ethr =  1.00E-02,  avg # of iterations =  2.0

     total cpu time spent up to now is        0.3 secs

     total energy              =    -151.89162928 Ry
     Harris-Foulkes estimate   =    -152.20457112 Ry
     estimated scf accuracy    <       0.43475457 Ry

     iteration #  2     ecut=    80.00 Ry     beta=0.70
     Davidson diagonalization with overlap
     ethr =  2.72E-03,  avg # of iterations =  2.8

     total cpu time spent up to now is        0.4 secs

     total energy              =    -152.00201176 Ry
     Harris-Foulkes estimate   =    -152.18371684 Ry
     estimated scf accuracy    <       0.37194645 Ry

     iteration #  3     ecut=    80.00 Ry     beta=0.70
     Davidson diagonalization with overlap
     ethr =  2.32E-03,  avg # of iterations =  2.0

     total cpu time spent up to now is        0.5 secs

     total energy              =    -152.07586970 Ry
     Harris-Foulkes estimate   =    -152.07604571 Ry
     estimated scf accuracy    <       0.00178887 Ry

     iteration #  4     ecut=    80.00 Ry     beta=0.70
     Davidson diagonalization with overlap
     ethr =  1.12E-05,  avg # of iterations =  2.0

     total cpu time spent up to now is        0.6 secs

     total energy              =    -152.07625715 Ry
     Harris-Foulkes estimate   =    -152.07626900 Ry
     estimated scf accuracy    <       0.00002842 Ry

     iteration #  5     ecut=    80.00 Ry     beta=0.70
     Davidson diagonalization with overlap
     ethr =  1.78E-07,  avg # of iterations =  1.4

     total cpu time spent up to now is        0.6 secs

     total energy              =    -152.07625942 Ry
     Harris-Foulkes estimate   =    -152.07625886 Ry
     estimated scf accuracy    <       0.00000213 Ry

     iteration #  6     ecut=    80.00 Ry     beta=0.70
     Davidson diagonalization with overlap
     ethr =  1.33E-08,  avg # of iterations =  2.0

     total cpu time spent up to now is        0.7 secs

     total energy              =    -152.07625983 Ry
     Harris-Foulkes estimate   =    -152.07625993 Ry
     estimated scf accuracy    <       0.00000030 Ry

     iteration #  7     ecut=    80.00 Ry     beta=0.70
     Davidson diagonalization with overlap
     ethr =  1.86E-09,  avg # of iterations =  1.0

     total cpu time spent up to now is        0.8 secs

     total energy              =    -152.07625980 Ry
     Harris-Foulkes estimate   =    -152.07625984 Ry
     estimated scf accuracy    <       0.00000008 Ry

     iteration #  8     ecut=    80.00 Ry     beta=0.70
     Davidson diagonalization with overlap
     ethr =  4.84E-10,  avg # of iterations =  2.0

     total cpu time spent up to now is        0.9 secs

     End of self-consistent calculation

          k = 0.0000 0.0000 0.0000 (  1471 PWs)   bands (ev):

   -64.2325 -31.0320 -30.9861 -30.9861  -9.2166   7.7684   7.7684   7.9841

          k =-0.2000 0.2000-0.2000 (  1528 PWs)   bands (ev):

   -64.2294 -31.0409 -31.0123 -30.9898  -8.8199   5.9082   7.5813   7.8245

          k =-0.4000 0.4000-0.4000 (  1513 PWs)   bands (ev):

   -64.2244 -31.0777 -31.0313 -30.9956  -8.0852   3.7587   7.2979   7.5496

          k = 0.0000 0.4000 0.0000 (  1507 PWs)   bands (ev):

   -64.2285 -31.0488 -31.0085 -30.9963  -8.7056   5.9106   7.2976   7.4687

          k =-0.2000 0.6000-0.2000 (  1532 PWs)   bands (ev):

   -64.2241 -31.0551 -31.0485 -31.0033  -8.1056   4.4652   6.8674   7.0103

          k = 0.6000-0.2000 0.6000 (  1521 PWs)   bands (ev):

   -64.2225 -31.0774 -31.0474 -31.0004  -7.8348   3.9765   6.2260   7.0692

          k = 0.4000 0.0000 0.4000 (  1538 PWs)   bands (ev):

   -64.2259 -31.0754 -31.0165 -30.9918  -8.3204   4.8861   6.6489   7.4024

          k = 0.0000 0.8000 0.0000 (  1536 PWs)   bands (ev):

   -64.2220 -31.0796 -31.0363 -31.0130  -7.8560   4.2223   6.6426   6.7597

          k = 0.8000 0.0000 0.8000 (  1536 PWs)   bands (ev):

   -64.2210 -31.0822 -31.0469 -31.0112  -7.6861   4.3803   5.6808   6.6748

          k = 0.6000-0.2000 1.0000 (  1531 PWs)   bands (ev):

   -64.2215 -31.0667 -31.0492 -31.0206  -7.7473   4.5488   5.6490   6.6595

          k =-0.2000-0.2000-0.2000 (  1528 PWs)   bands (ev):

   -64.2296 -31.0606 -30.9892 -30.9892  -8.8234   6.0270   7.5554   7.5554

          k =-0.4000-0.4000-0.4000 (  1513 PWs)   bands (ev):

   -64.2249 -31.1062 -30.9941 -30.9941  -8.0929   3.7951   7.2347   7.2347

          k = 0.6000 0.2000-0.2000 (  1532 PWs)   bands (ev):

   -64.2241 -31.0692 -31.0303 -31.0063  -8.1060   4.4574   6.6935   7.1804

          k =-0.6000-0.2000-0.2000 (  1532 PWs)   bands (ev):

   -64.2244 -31.0885 -31.0098 -31.0024  -8.1092   4.4974   6.6816   6.9739

          k =-0.2000-0.6000 0.6000 (  1521 PWs)   bands (ev):

   -64.2224 -31.0739 -31.0411 -31.0122  -7.8349   3.9870   6.1220   7.2597

          k = 0.2000 0.6000 0.6000 (  1521 PWs)   bands (ev):

   -64.2228 -31.1017 -31.0178 -30.9995  -7.8386   4.0188   6.0461   7.0322

          k = 0.0000-0.4000 0.4000 (  1538 PWs)   bands (ev):

   -64.2257 -31.0468 -31.0395 -31.0024  -8.3176   4.8616   6.6380   7.6261

          k = 0.0000-0.8000 0.8000 (  1536 PWs)   bands (ev):

   -64.2209 -31.0775 -31.0374 -31.0272  -7.6862   4.3787   5.6167   6.8336

          k =-0.2000-0.6000 1.0000 (  1531 PWs)   bands (ev):

   -64.2216 -31.0835 -31.0375 -31.0124  -7.7478   4.5556   5.6500   6.5500

     highest occupied level (ev):     7.9841

!    total energy              =    -152.07625982 Ry
     Harris-Foulkes estimate   =    -152.07625982 Ry
     estimated scf accuracy    <          5.9E-09 Ry

     The total energy is the sum of the following terms:

     one-electron contribution =     -76.27580753 Ry
     hartree contribution      =      42.49380565 Ry
     xc contribution           =     -24.53746435 Ry
     ewald contribution        =     -93.75679359 Ry

     convergence has been achieved in   8 iterations

     Forces acting on atoms (cartesian axes, Ry/au):

     atom    1 type  1   force =    -0.04133800   -0.04133800   -0.04133800
     atom    2 type  2   force =     0.04133800    0.04133800    0.04133800

     Total force =     0.101257     Total SCF correction =     0.000038


     Computing stress (Cartesian axis) and pressure

          total   stress  (Ry/bohr**3)                   (kbar)     P=  154.22
   0.00104836  -0.00020092  -0.00020092        154.22    -29.56    -29.56
  -0.00020092   0.00104836  -0.00020092        -29.56    154.22    -29.56
  -0.00020092  -0.00020092   0.00104836        -29.56    -29.56    154.22


     Writing output data file diamond.7.97.80.5.save
 
     init_run     :      0.06s CPU      0.06s WALL (       1 calls)
     electrons    :      0.68s CPU      0.71s WALL (       1 calls)
     forces       :      0.01s CPU      0.01s WALL (       1 calls)
     stress       :      0.03s CPU      0.03s WALL (       1 calls)

     Called by init_run:
     wfcinit      :      0.03s CPU      0.03s WALL (       1 calls)
     potinit      :      0.01s CPU      0.01s WALL (       1 calls)

     Called by electrons:
     c_bands      :      0.56s CPU      0.58s WALL (       8 calls)
     sum_band     :      0.09s CPU      0.10s WALL (       8 calls)
     v_of_rho     :      0.02s CPU      0.02s WALL (       9 calls)
     mix_rho      :      0.00s CPU      0.00s WALL (       8 calls)

     Called by c_bands:
     init_us_2    :      0.02s CPU      0.02s WALL (     361 calls)
     cegterg      :      0.52s CPU      0.54s WALL (     152 calls)

     Called by sum_band:

     Called by *egterg:
     h_psi        :      0.44s CPU      0.46s WALL (     459 calls)
     g_psi        :      0.00s CPU      0.00s WALL (     288 calls)
     cdiaghg      :      0.06s CPU      0.05s WALL (     440 calls)

     Called by h_psi:
     h_psi:pot    :      0.43s CPU      0.45s WALL (     459 calls)
     h_psi:calbec :      0.02s CPU      0.02s WALL (     459 calls)
     vloc_psi     :      0.40s CPU      0.42s WALL (     459 calls)
     add_vuspsi   :      0.01s CPU      0.01s WALL (     459 calls)

     General routines
     calbec       :      0.02s CPU      0.03s WALL (     554 calls)
     fft          :      0.01s CPU      0.01s WALL (     123 calls)
     fftw         :      0.45s CPU      0.46s WALL (    7656 calls)
     davcio       :      0.00s CPU      0.00s WALL (      19 calls)
 
     Parallel routines
     fft_scatter  :      0.13s CPU      0.14s WALL (    7779 calls)
 
     PWSCF        :     0.96s CPU         1.02s WALL

 
   This run was terminated on:  14: 3:14  17Apr2018            

=------------------------------------------------------------------------------=
   JOB DONE.
=------------------------------------------------------------------------------=
