
     Program PWSCF v.6.1 (svn rev. 13369) starts on 17Apr2018 at 14: 3: 8 

     This program is part of the open-source Quantum ESPRESSO suite
     for quantum simulation of materials; please cite
         "P. Giannozzi et al., J. Phys.:Condens. Matter 21 395502 (2009);
          URL http://www.quantum-espresso.org", 
     in publications or presentations arising from this work. More details at
     http://www.quantum-espresso.org/quote

     Parallel version (MPI), running on     8 processors
     R & G space division:  proc/nbgrp/npool/nimage =       8
     Waiting for input...
     Reading input from standard input

     Current dimensions of program PWSCF are:
     Max number of different atomic species (ntypx) = 10
     Max number of k-points (npk) =  40000
     Max angular momentum in pseudopotentials (lmaxx) =  3

     Subspace diagonalization in iterative solution of the eigenvalue problem:
     a serial algorithm will be used

 
     Parallelization info
     --------------------
     sticks:   dense  smooth     PW     G-vecs:    dense   smooth      PW
     Min          86      86     26                 1506     1506     248
     Max          87      87     28                 1507     1507     249
     Sum         691     691    211                12051    12051    1989
 


     bravais-lattice index     =            2
     lattice parameter (alat)  =       7.9700  a.u.
     unit-cell volume          =     126.5654 (a.u.)^3
     number of atoms/cell      =            2
     number of atomic types    =            2
     number of electrons       =        16.00
     number of Kohn-Sham states=            8
     kinetic-energy cutoff     =      80.0000  Ry
     charge density cutoff     =     320.0000  Ry
     convergence threshold     =      1.0E-08
     mixing beta               =       0.7000
     number of iterations used =            8  plain     mixing
     Exchange-correlation      = PBE ( 1  4  3  4 0 0)

     celldm(1)=   7.970000  celldm(2)=   0.000000  celldm(3)=   0.000000
     celldm(4)=   0.000000  celldm(5)=   0.000000  celldm(6)=   0.000000

     crystal axes: (cart. coord. in units of alat)
               a(1) = (  -0.500000   0.000000   0.500000 )  
               a(2) = (   0.000000   0.500000   0.500000 )  
               a(3) = (  -0.500000   0.500000   0.000000 )  

     reciprocal axes: (cart. coord. in units 2 pi/alat)
               b(1) = ( -1.000000 -1.000000  1.000000 )  
               b(2) = (  1.000000  1.000000  1.000000 )  
               b(3) = ( -1.000000  1.000000 -1.000000 )  


     PseudoPot. # 1 for Mg read from file:
     ../pseudo/Mg.pbe.UPF
     MD5 check sum: 4c04d8c6e0476e83eaecaf72fa8acc4d
     Pseudo is Norm-conserving, Zval = 10.0
     Generated using ONCVPSP code by D. R. Hamann
     Using radial grid of 1510 points,  4 beta functions with: 
                l(1) =   0
                l(2) =   0
                l(3) =   1
                l(4) =   1

     PseudoPot. # 2 for O  read from file:
     ../pseudo/O.pbe.UPF
     MD5 check sum: 3e3f909f7470e8921608ab6b1f57bbae
     Pseudo is Norm-conserving + core correction, Zval =  6.0
     Generated using ONCVPSP code by D. R. Hamann
     Using radial grid of  936 points,  5 beta functions with: 
                l(1) =   0
                l(2) =   0
                l(3) =   1
                l(4) =   1
                l(5) =   2

     atomic species   valence    mass     pseudopotential
        Mg            10.00    24.30500     Mg( 1.00)
        O              6.00    15.99940     O ( 1.00)

      6 Sym. Ops. (no inversion) found



   Cartesian axes

     site n.     atom                  positions (alat units)
         1           Mg  tau(   1) = (   0.0500000   0.0500000   0.0500000  )
         2           O   tau(   2) = (   0.5000000   0.5000000   0.5000000  )

     number of k points=     4
                       cart. coord. in units 2pi/alat
        k(    1) = (   0.0000000   0.0000000   0.0000000), wk =   0.2500000
        k(    2) = (   0.5000000  -0.5000000   0.5000000), wk =   0.7500000
        k(    3) = (   0.0000000  -1.0000000   0.0000000), wk =   0.7500000
        k(    4) = (   0.5000000   0.5000000   0.5000000), wk =   0.2500000

     Dense  grid:    12051 G-vectors     FFT dimensions: (  36,  36,  36)

     Estimated max dynamical RAM per process >       1.38MB

     Estimated total allocated dynamical RAM >      11.01MB

     Check: negative/imaginary core charge=   -0.000001    0.000000

     Initial potential from superposition of free atoms

     starting charge   15.99920, renormalised to   16.00000
     Starting wfc are    9 randomized atomic wfcs

     total cpu time spent up to now is        0.2 secs

     per-process dynamical memory:    36.7 Mb

     Self-consistent Calculation

     iteration #  1     ecut=    80.00 Ry     beta=0.70
     Davidson diagonalization with overlap
     ethr =  1.00E-02,  avg # of iterations =  2.0

     total cpu time spent up to now is        0.2 secs

     total energy              =    -151.81046749 Ry
     Harris-Foulkes estimate   =    -152.17551278 Ry
     estimated scf accuracy    <       0.50734909 Ry

     iteration #  2     ecut=    80.00 Ry     beta=0.70
     Davidson diagonalization with overlap
     ethr =  3.17E-03,  avg # of iterations =  2.0

     total cpu time spent up to now is        0.2 secs

     total energy              =    -151.94935890 Ry
     Harris-Foulkes estimate   =    -152.11786009 Ry
     estimated scf accuracy    <       0.33074447 Ry

     iteration #  3     ecut=    80.00 Ry     beta=0.70
     Davidson diagonalization with overlap
     ethr =  2.07E-03,  avg # of iterations =  2.0

     total cpu time spent up to now is        0.2 secs

     total energy              =    -152.01641188 Ry
     Harris-Foulkes estimate   =    -152.01644028 Ry
     estimated scf accuracy    <       0.00189337 Ry

     iteration #  4     ecut=    80.00 Ry     beta=0.70
     Davidson diagonalization with overlap
     ethr =  1.18E-05,  avg # of iterations =  2.0

     total cpu time spent up to now is        0.3 secs

     total energy              =    -152.01680067 Ry
     Harris-Foulkes estimate   =    -152.01679662 Ry
     estimated scf accuracy    <       0.00001762 Ry

     iteration #  5     ecut=    80.00 Ry     beta=0.70
     Davidson diagonalization with overlap
     ethr =  1.10E-07,  avg # of iterations =  2.0

     total cpu time spent up to now is        0.3 secs

     total energy              =    -152.01680398 Ry
     Harris-Foulkes estimate   =    -152.01680248 Ry
     estimated scf accuracy    <       0.00000240 Ry

     iteration #  6     ecut=    80.00 Ry     beta=0.70
     Davidson diagonalization with overlap
     ethr =  1.50E-08,  avg # of iterations =  2.0

     total cpu time spent up to now is        0.3 secs

     total energy              =    -152.01680458 Ry
     Harris-Foulkes estimate   =    -152.01680470 Ry
     estimated scf accuracy    <       0.00000029 Ry

     iteration #  7     ecut=    80.00 Ry     beta=0.70
     Davidson diagonalization with overlap
     ethr =  1.81E-09,  avg # of iterations =  1.0

     total cpu time spent up to now is        0.3 secs

     total energy              =    -152.01680456 Ry
     Harris-Foulkes estimate   =    -152.01680460 Ry
     estimated scf accuracy    <       0.00000005 Ry

     iteration #  8     ecut=    80.00 Ry     beta=0.70
     Davidson diagonalization with overlap
     ethr =  3.38E-10,  avg # of iterations =  2.0

     total cpu time spent up to now is        0.3 secs

     End of self-consistent calculation

          k = 0.0000 0.0000 0.0000 (  1471 PWs)   bands (ev):

   -64.3964 -31.1922 -31.1385 -31.1385  -8.8005   8.2327   8.2327   8.4479

          k = 0.5000-0.5000 0.5000 (  1502 PWs)   bands (ev):

   -64.3876 -31.2386 -31.1901 -31.1488  -7.4788   3.7087   7.6939   7.9482

          k = 0.0000-1.0000 0.0000 (  1524 PWs)   bands (ev):

   -64.3849 -31.2423 -31.1935 -31.1676  -7.2294   4.3174   6.9478   7.0518

          k = 0.5000 0.5000 0.5000 (  1502 PWs)   bands (ev):

   -64.3880 -31.2724 -31.1473 -31.1473  -7.4860   3.7300   7.6232   7.6232

     highest occupied level (ev):     8.4479

!    total energy              =    -152.01680458 Ry
     Harris-Foulkes estimate   =    -152.01680458 Ry
     estimated scf accuracy    <          1.9E-09 Ry

     The total energy is the sum of the following terms:

     one-electron contribution =     -76.32224686 Ry
     hartree contribution      =      42.65681584 Ry
     xc contribution           =     -24.59457997 Ry
     ewald contribution        =     -93.75679359 Ry

     convergence has been achieved in   8 iterations

     Forces acting on atoms (cartesian axes, Ry/au):

     atom    1 type  1   force =    -0.03646629   -0.03646629   -0.03646629
     atom    2 type  2   force =     0.03646629    0.03646629    0.03646629

     Total force =     0.089324     Total SCF correction =     0.000028


     Computing stress (Cartesian axis) and pressure

          total   stress  (Ry/bohr**3)                   (kbar)     P=  193.46
   0.00131513  -0.00013784  -0.00013784        193.46    -20.28    -20.28
  -0.00013784   0.00131513  -0.00013784        -20.28    193.46    -20.28
  -0.00013784  -0.00013784   0.00131513        -20.28    -20.28    193.46


     Writing output data file diamond.7.97.80.2.save
 
     init_run     :      0.03s CPU      0.04s WALL (       1 calls)
     electrons    :      0.17s CPU      0.18s WALL (       1 calls)
     forces       :      0.01s CPU      0.01s WALL (       1 calls)
     stress       :      0.02s CPU      0.02s WALL (       1 calls)

     Called by init_run:
     wfcinit      :      0.01s CPU      0.01s WALL (       1 calls)
     potinit      :      0.00s CPU      0.01s WALL (       1 calls)

     Called by electrons:
     c_bands      :      0.12s CPU      0.12s WALL (       8 calls)
     sum_band     :      0.02s CPU      0.02s WALL (       8 calls)
     v_of_rho     :      0.02s CPU      0.02s WALL (       9 calls)
     mix_rho      :      0.00s CPU      0.00s WALL (       8 calls)

     Called by c_bands:
     init_us_2    :      0.00s CPU      0.00s WALL (      76 calls)
     cegterg      :      0.11s CPU      0.12s WALL (      32 calls)

     Called by sum_band:

     Called by *egterg:
     h_psi        :      0.10s CPU      0.10s WALL (      96 calls)
     g_psi        :      0.00s CPU      0.00s WALL (      60 calls)
     cdiaghg      :      0.01s CPU      0.01s WALL (      92 calls)

     Called by h_psi:
     h_psi:pot    :      0.09s CPU      0.10s WALL (      96 calls)
     h_psi:calbec :      0.01s CPU      0.00s WALL (      96 calls)
     vloc_psi     :      0.09s CPU      0.09s WALL (      96 calls)
     add_vuspsi   :      0.00s CPU      0.00s WALL (      96 calls)

     General routines
     calbec       :      0.01s CPU      0.01s WALL (     116 calls)
     fft          :      0.01s CPU      0.01s WALL (     123 calls)
     fftw         :      0.09s CPU      0.10s WALL (    1624 calls)
     davcio       :      0.00s CPU      0.00s WALL (       4 calls)
 
     Parallel routines
     fft_scatter  :      0.03s CPU      0.03s WALL (    1747 calls)
 
     PWSCF        :     0.38s CPU         0.42s WALL

 
   This run was terminated on:  14: 3: 9  17Apr2018            

=------------------------------------------------------------------------------=
   JOB DONE.
=------------------------------------------------------------------------------=
