
     Program PWSCF v.6.1 (svn rev. 13369) starts on 15Apr2018 at 17:52:39 

     This program is part of the open-source Quantum ESPRESSO suite
     for quantum simulation of materials; please cite
         "P. Giannozzi et al., J. Phys.:Condens. Matter 21 395502 (2009);
          URL http://www.quantum-espresso.org", 
     in publications or presentations arising from this work. More details at
     http://www.quantum-espresso.org/quote

     Parallel version (MPI), running on     8 processors
     R & G space division:  proc/nbgrp/npool/nimage =       8
     Waiting for input...
     Reading input from standard input

     Current dimensions of program PWSCF are:
     Max number of different atomic species (ntypx) = 10
     Max number of k-points (npk) =  40000
     Max angular momentum in pseudopotentials (lmaxx) =  3

     Subspace diagonalization in iterative solution of the eigenvalue problem:
     a serial algorithm will be used

 
     Parallelization info
     --------------------
     sticks:   dense  smooth     PW     G-vecs:    dense   smooth      PW
     Min         108     108     31                 2120     2120     339
     Max         110     110     32                 2121     2121     343
     Sum         871     871    253                16961    16961    2733
 


     bravais-lattice index     =            2
     lattice parameter (alat)  =       7.9700  a.u.
     unit-cell volume          =     126.5654 (a.u.)^3
     number of atoms/cell      =            2
     number of atomic types    =            2
     number of electrons       =        16.00
     number of Kohn-Sham states=            8
     kinetic-energy cutoff     =     100.0000  Ry
     charge density cutoff     =     400.0000  Ry
     convergence threshold     =      1.0E-08
     mixing beta               =       0.7000
     number of iterations used =            8  plain     mixing
     Exchange-correlation      = PBE ( 1  4  3  4 0 0)

     celldm(1)=   7.970000  celldm(2)=   0.000000  celldm(3)=   0.000000
     celldm(4)=   0.000000  celldm(5)=   0.000000  celldm(6)=   0.000000

     crystal axes: (cart. coord. in units of alat)
               a(1) = (  -0.500000   0.000000   0.500000 )  
               a(2) = (   0.000000   0.500000   0.500000 )  
               a(3) = (  -0.500000   0.500000   0.000000 )  

     reciprocal axes: (cart. coord. in units 2 pi/alat)
               b(1) = ( -1.000000 -1.000000  1.000000 )  
               b(2) = (  1.000000  1.000000  1.000000 )  
               b(3) = ( -1.000000  1.000000 -1.000000 )  


     PseudoPot. # 1 for Mg read from file:
     ../pseudo/Mg.pbe.UPF
     MD5 check sum: 4c04d8c6e0476e83eaecaf72fa8acc4d
     Pseudo is Norm-conserving, Zval = 10.0
     Generated using ONCVPSP code by D. R. Hamann
     Using radial grid of 1510 points,  4 beta functions with: 
                l(1) =   0
                l(2) =   0
                l(3) =   1
                l(4) =   1

     PseudoPot. # 2 for O  read from file:
     ../pseudo/O.pbe.UPF
     MD5 check sum: 3e3f909f7470e8921608ab6b1f57bbae
     Pseudo is Norm-conserving + core correction, Zval =  6.0
     Generated using ONCVPSP code by D. R. Hamann
     Using radial grid of  936 points,  5 beta functions with: 
                l(1) =   0
                l(2) =   0
                l(3) =   1
                l(4) =   1
                l(5) =   2

     atomic species   valence    mass     pseudopotential
        Mg            10.00    24.30500     Mg( 1.00)
        O              6.00    15.99940     O ( 1.00)

      6 Sym. Ops. (no inversion) found



   Cartesian axes

     site n.     atom                  positions (alat units)
         1           Mg  tau(   1) = (   0.0500000   0.0500000   0.0500000  )
         2           O   tau(   2) = (   0.5000000   0.5000000   0.5000000  )

     number of k points=    13
                       cart. coord. in units 2pi/alat
        k(    1) = (   0.0000000   0.0000000   0.0000000), wk =   0.0312500
        k(    2) = (  -0.2500000   0.2500000  -0.2500000), wk =   0.1875000
        k(    3) = (   0.5000000  -0.5000000   0.5000000), wk =   0.0937500
        k(    4) = (   0.0000000   0.5000000   0.0000000), wk =   0.1875000
        k(    5) = (   0.7500000  -0.2500000   0.7500000), wk =   0.1875000
        k(    6) = (   0.5000000   0.0000000   0.5000000), wk =   0.1875000
        k(    7) = (   0.0000000  -1.0000000   0.0000000), wk =   0.0937500
        k(    8) = (  -0.5000000  -1.0000000   0.0000000), wk =   0.1875000
        k(    9) = (  -0.2500000  -0.2500000  -0.2500000), wk =   0.0625000
        k(   10) = (   0.5000000   0.5000000   0.5000000), wk =   0.0312500
        k(   11) = (  -0.2500000  -0.7500000   0.7500000), wk =   0.3750000
        k(   12) = (   0.2500000   0.7500000   0.7500000), wk =   0.1875000
        k(   13) = (   0.0000000  -0.5000000   0.5000000), wk =   0.1875000

     Dense  grid:    16961 G-vectors     FFT dimensions: (  36,  36,  36)

     Estimated max dynamical RAM per process >       2.03MB

     Estimated total allocated dynamical RAM >      16.26MB

     Initial potential from superposition of free atoms

     starting charge   15.99920, renormalised to   16.00000
     Starting wfc are    9 randomized atomic wfcs

     total cpu time spent up to now is        0.2 secs

     per-process dynamical memory:    37.8 Mb

     Self-consistent Calculation

     iteration #  1     ecut=   100.00 Ry     beta=0.70
     Davidson diagonalization with overlap
     ethr =  1.00E-02,  avg # of iterations =  2.0

     total cpu time spent up to now is        0.3 secs

     total energy              =    -151.89192677 Ry
     Harris-Foulkes estimate   =    -152.20476020 Ry
     estimated scf accuracy    <       0.43458050 Ry

     iteration #  2     ecut=   100.00 Ry     beta=0.70
     Davidson diagonalization with overlap
     ethr =  2.72E-03,  avg # of iterations =  2.6

     total cpu time spent up to now is        0.3 secs

     total energy              =    -152.00285655 Ry
     Harris-Foulkes estimate   =    -152.18175683 Ry
     estimated scf accuracy    <       0.36498530 Ry

     iteration #  3     ecut=   100.00 Ry     beta=0.70
     Davidson diagonalization with overlap
     ethr =  2.28E-03,  avg # of iterations =  2.0

     total cpu time spent up to now is        0.4 secs

     total energy              =    -152.07538020 Ry
     Harris-Foulkes estimate   =    -152.07554611 Ry
     estimated scf accuracy    <       0.00175306 Ry

     iteration #  4     ecut=   100.00 Ry     beta=0.70
     Davidson diagonalization with overlap
     ethr =  1.10E-05,  avg # of iterations =  2.0

     total cpu time spent up to now is        0.5 secs

     total energy              =    -152.07575672 Ry
     Harris-Foulkes estimate   =    -152.07576693 Ry
     estimated scf accuracy    <       0.00002562 Ry

     iteration #  5     ecut=   100.00 Ry     beta=0.70
     Davidson diagonalization with overlap
     ethr =  1.60E-07,  avg # of iterations =  1.2

     total cpu time spent up to now is        0.5 secs

     total energy              =    -152.07575882 Ry
     Harris-Foulkes estimate   =    -152.07575831 Ry
     estimated scf accuracy    <       0.00000225 Ry

     iteration #  6     ecut=   100.00 Ry     beta=0.70
     Davidson diagonalization with overlap
     ethr =  1.41E-08,  avg # of iterations =  2.0

     total cpu time spent up to now is        0.6 secs

     total energy              =    -152.07575927 Ry
     Harris-Foulkes estimate   =    -152.07575939 Ry
     estimated scf accuracy    <       0.00000036 Ry

     iteration #  7     ecut=   100.00 Ry     beta=0.70
     Davidson diagonalization with overlap
     ethr =  2.23E-09,  avg # of iterations =  1.0

     total cpu time spent up to now is        0.6 secs

     total energy              =    -152.07575922 Ry
     Harris-Foulkes estimate   =    -152.07575928 Ry
     estimated scf accuracy    <       0.00000011 Ry

     iteration #  8     ecut=   100.00 Ry     beta=0.70
     Davidson diagonalization with overlap
     ethr =  6.66E-10,  avg # of iterations =  2.0

     total cpu time spent up to now is        0.7 secs

     End of self-consistent calculation

          k = 0.0000 0.0000 0.0000 (  2109 PWs)   bands (ev):

   -64.2347 -31.0346 -30.9886 -30.9886  -9.2071   7.7787   7.7787   7.9946

          k =-0.2500 0.2500-0.2500 (  2127 PWs)   bands (ev):

   -64.2302 -31.0507 -31.0229 -30.9938  -8.6200   5.2708   7.5110   7.7572

          k = 0.5000-0.5000 0.5000 (  2138 PWs)   bands (ev):

   -64.2257 -31.0881 -31.0353 -30.9990  -7.9338   3.4300   7.2615   7.5144

          k = 0.0000 0.5000 0.0000 (  2141 PWs)   bands (ev):

   -64.2288 -31.0595 -31.0195 -31.0033  -8.4631   5.3548   7.1145   7.2724

          k = 0.7500-0.2500 0.7500 (  2136 PWs)   bands (ev):

   -64.2244 -31.0656 -31.0614 -31.0086  -7.8258   4.2300   6.1990   6.8875

          k = 0.5000 0.0000 0.5000 (  2135 PWs)   bands (ev):

   -64.2260 -31.0866 -31.0304 -30.9983  -8.0110   4.5143   6.0376   7.2241

          k = 0.0000-1.0000 0.0000 (  2100 PWs)   bands (ev):

   -64.2230 -31.0876 -31.0428 -31.0182  -7.6980   4.0183   6.5504   6.6570

          k =-0.5000-1.0000 0.0000 (  2148 PWs)   bands (ev):

   -64.2230 -31.0779 -31.0468 -31.0257  -7.6437   5.0565   5.1364   6.2280

          k =-0.2500-0.2500-0.2500 (  2127 PWs)   bands (ev):

   -64.2304 -31.0758 -30.9930 -30.9930  -8.6248   5.3621   7.4742   7.4742

          k = 0.5000 0.5000 0.5000 (  2138 PWs)   bands (ev):

   -64.2262 -31.1165 -30.9974 -30.9974  -7.9419   3.4553   7.1925   7.1925

          k =-0.2500-0.7500 0.7500 (  2136 PWs)   bands (ev):

   -64.2244 -31.0775 -31.0392 -31.0189  -7.8261   4.2248   6.0805   7.0539

          k = 0.2500 0.7500 0.7500 (  2136 PWs)   bands (ev):

   -64.2246 -31.0977 -31.0245 -31.0078  -7.8283   4.2572   6.0505   6.8560

          k = 0.0000-0.5000 0.5000 (  2135 PWs)   bands (ev):

   -64.2258 -31.0574 -31.0509 -31.0126  -8.0089   4.5054   6.0323   7.4399

     highest occupied level (ev):     7.9946

!    total energy              =    -152.07575925 Ry
     Harris-Foulkes estimate   =    -152.07575925 Ry
     estimated scf accuracy    <          6.6E-09 Ry

     The total energy is the sum of the following terms:

     one-electron contribution =     -76.27825497 Ry
     hartree contribution      =      42.49824950 Ry
     xc contribution           =     -24.53896019 Ry
     ewald contribution        =     -93.75679359 Ry

     convergence has been achieved in   8 iterations

     Forces acting on atoms (cartesian axes, Ry/au):

     atom    1 type  1   force =    -0.04124843   -0.04124843   -0.04124843
     atom    2 type  2   force =     0.04124843    0.04124843    0.04124843

     Total force =     0.101038     Total SCF correction =     0.000044


     Computing stress (Cartesian axis) and pressure

          total   stress  (Ry/bohr**3)                   (kbar)     P=  158.27
   0.00107588  -0.00019918  -0.00019918        158.27    -29.30    -29.30
  -0.00019918   0.00107588  -0.00019918        -29.30    158.27    -29.30
  -0.00019918  -0.00019918   0.00107588        -29.30    -29.30    158.27


     Writing output data file diamond.7.97.100.4.save
 
     init_run     :      0.05s CPU      0.06s WALL (       1 calls)
     electrons    :      0.51s CPU      0.53s WALL (       1 calls)
     forces       :      0.01s CPU      0.01s WALL (       1 calls)
     stress       :      0.03s CPU      0.03s WALL (       1 calls)

     Called by init_run:
     wfcinit      :      0.02s CPU      0.03s WALL (       1 calls)
     potinit      :      0.01s CPU      0.01s WALL (       1 calls)

     Called by electrons:
     c_bands      :      0.41s CPU      0.42s WALL (       8 calls)
     sum_band     :      0.07s CPU      0.07s WALL (       8 calls)
     v_of_rho     :      0.02s CPU      0.02s WALL (       9 calls)
     mix_rho      :      0.00s CPU      0.00s WALL (       8 calls)

     Called by c_bands:
     init_us_2    :      0.01s CPU      0.02s WALL (     247 calls)
     cegterg      :      0.37s CPU      0.39s WALL (     104 calls)

     Called by sum_band:

     Called by *egterg:
     h_psi        :      0.30s CPU      0.33s WALL (     310 calls)
     g_psi        :      0.00s CPU      0.00s WALL (     193 calls)
     cdiaghg      :      0.04s CPU      0.03s WALL (     297 calls)

     Called by h_psi:
     h_psi:pot    :      0.30s CPU      0.33s WALL (     310 calls)
     h_psi:calbec :      0.01s CPU      0.02s WALL (     310 calls)
     vloc_psi     :      0.28s CPU      0.30s WALL (     310 calls)
     add_vuspsi   :      0.01s CPU      0.01s WALL (     310 calls)

     General routines
     calbec       :      0.02s CPU      0.02s WALL (     375 calls)
     fft          :      0.01s CPU      0.01s WALL (     123 calls)
     fftw         :      0.30s CPU      0.33s WALL (    5230 calls)
     davcio       :      0.00s CPU      0.00s WALL (      13 calls)
 
     Parallel routines
     fft_scatter  :      0.10s CPU      0.11s WALL (    5353 calls)
 
     PWSCF        :     0.79s CPU         0.85s WALL

 
   This run was terminated on:  17:52:40  15Apr2018            

=------------------------------------------------------------------------------=
   JOB DONE.
=------------------------------------------------------------------------------=
