
     Program PWSCF v.6.1 (svn rev. 13369) starts on 15Apr2018 at 17:52:34 

     This program is part of the open-source Quantum ESPRESSO suite
     for quantum simulation of materials; please cite
         "P. Giannozzi et al., J. Phys.:Condens. Matter 21 395502 (2009);
          URL http://www.quantum-espresso.org", 
     in publications or presentations arising from this work. More details at
     http://www.quantum-espresso.org/quote

     Parallel version (MPI), running on     8 processors
     R & G space division:  proc/nbgrp/npool/nimage =       8
     Waiting for input...
     Reading input from standard input

     Current dimensions of program PWSCF are:
     Max number of different atomic species (ntypx) = 10
     Max number of k-points (npk) =  40000
     Max angular momentum in pseudopotentials (lmaxx) =  3

     Subspace diagonalization in iterative solution of the eigenvalue problem:
     a serial algorithm will be used

 
     Parallelization info
     --------------------
     sticks:   dense  smooth     PW     G-vecs:    dense   smooth      PW
     Min          74      74     23                 1229     1229     209
     Max          75      75     24                 1233     1233     212
     Sum         595     595    187                 9841     9841    1687
 


     bravais-lattice index     =            2
     lattice parameter (alat)  =       7.9700  a.u.
     unit-cell volume          =     126.5654 (a.u.)^3
     number of atoms/cell      =            2
     number of atomic types    =            2
     number of electrons       =        16.00
     number of Kohn-Sham states=            8
     kinetic-energy cutoff     =      70.0000  Ry
     charge density cutoff     =     280.0000  Ry
     convergence threshold     =      1.0E-08
     mixing beta               =       0.7000
     number of iterations used =            8  plain     mixing
     Exchange-correlation      = PBE ( 1  4  3  4 0 0)

     celldm(1)=   7.970000  celldm(2)=   0.000000  celldm(3)=   0.000000
     celldm(4)=   0.000000  celldm(5)=   0.000000  celldm(6)=   0.000000

     crystal axes: (cart. coord. in units of alat)
               a(1) = (  -0.500000   0.000000   0.500000 )  
               a(2) = (   0.000000   0.500000   0.500000 )  
               a(3) = (  -0.500000   0.500000   0.000000 )  

     reciprocal axes: (cart. coord. in units 2 pi/alat)
               b(1) = ( -1.000000 -1.000000  1.000000 )  
               b(2) = (  1.000000  1.000000  1.000000 )  
               b(3) = ( -1.000000  1.000000 -1.000000 )  


     PseudoPot. # 1 for Mg read from file:
     ../pseudo/Mg.pbe.UPF
     MD5 check sum: 4c04d8c6e0476e83eaecaf72fa8acc4d
     Pseudo is Norm-conserving, Zval = 10.0
     Generated using ONCVPSP code by D. R. Hamann
     Using radial grid of 1510 points,  4 beta functions with: 
                l(1) =   0
                l(2) =   0
                l(3) =   1
                l(4) =   1

     PseudoPot. # 2 for O  read from file:
     ../pseudo/O.pbe.UPF
     MD5 check sum: 3e3f909f7470e8921608ab6b1f57bbae
     Pseudo is Norm-conserving + core correction, Zval =  6.0
     Generated using ONCVPSP code by D. R. Hamann
     Using radial grid of  936 points,  5 beta functions with: 
                l(1) =   0
                l(2) =   0
                l(3) =   1
                l(4) =   1
                l(5) =   2

     atomic species   valence    mass     pseudopotential
        Mg            10.00    24.30500     Mg( 1.00)
        O              6.00    15.99940     O ( 1.00)

      6 Sym. Ops. (no inversion) found



   Cartesian axes

     site n.     atom                  positions (alat units)
         1           Mg  tau(   1) = (   0.0500000   0.0500000   0.0500000  )
         2           O   tau(   2) = (   0.5000000   0.5000000   0.5000000  )

     number of k points=    13
                       cart. coord. in units 2pi/alat
        k(    1) = (   0.0000000   0.0000000   0.0000000), wk =   0.0312500
        k(    2) = (  -0.2500000   0.2500000  -0.2500000), wk =   0.1875000
        k(    3) = (   0.5000000  -0.5000000   0.5000000), wk =   0.0937500
        k(    4) = (   0.0000000   0.5000000   0.0000000), wk =   0.1875000
        k(    5) = (   0.7500000  -0.2500000   0.7500000), wk =   0.1875000
        k(    6) = (   0.5000000   0.0000000   0.5000000), wk =   0.1875000
        k(    7) = (   0.0000000  -1.0000000   0.0000000), wk =   0.0937500
        k(    8) = (  -0.5000000  -1.0000000   0.0000000), wk =   0.1875000
        k(    9) = (  -0.2500000  -0.2500000  -0.2500000), wk =   0.0625000
        k(   10) = (   0.5000000   0.5000000   0.5000000), wk =   0.0312500
        k(   11) = (  -0.2500000  -0.7500000   0.7500000), wk =   0.3750000
        k(   12) = (   0.2500000   0.7500000   0.7500000), wk =   0.1875000
        k(   13) = (   0.0000000  -0.5000000   0.5000000), wk =   0.1875000

     Dense  grid:     9841 G-vectors     FFT dimensions: (  30,  30,  30)

     Estimated max dynamical RAM per process >       1.19MB

     Estimated total allocated dynamical RAM >       9.49MB

     Check: negative/imaginary core charge=   -0.000008    0.000000

     Initial potential from superposition of free atoms

     starting charge   15.99920, renormalised to   16.00000
     Starting wfc are    9 randomized atomic wfcs

     total cpu time spent up to now is        0.2 secs

     per-process dynamical memory:    31.5 Mb

     Self-consistent Calculation

     iteration #  1     ecut=    70.00 Ry     beta=0.70
     Davidson diagonalization with overlap
     ethr =  1.00E-02,  avg # of iterations =  2.0

     total cpu time spent up to now is        0.2 secs

     total energy              =    -151.88704250 Ry
     Harris-Foulkes estimate   =    -152.19979442 Ry
     estimated scf accuracy    <       0.43492182 Ry

     iteration #  2     ecut=    70.00 Ry     beta=0.70
     Davidson diagonalization with overlap
     ethr =  2.72E-03,  avg # of iterations =  2.5

     total cpu time spent up to now is        0.3 secs

     total energy              =    -151.99833262 Ry
     Harris-Foulkes estimate   =    -152.17726813 Ry
     estimated scf accuracy    <       0.36504603 Ry

     iteration #  3     ecut=    70.00 Ry     beta=0.70
     Davidson diagonalization with overlap
     ethr =  2.28E-03,  avg # of iterations =  2.0

     total cpu time spent up to now is        0.3 secs

     total energy              =    -152.07083589 Ry
     Harris-Foulkes estimate   =    -152.07099543 Ry
     estimated scf accuracy    <       0.00174378 Ry

     iteration #  4     ecut=    70.00 Ry     beta=0.70
     Davidson diagonalization with overlap
     ethr =  1.09E-05,  avg # of iterations =  2.0

     total cpu time spent up to now is        0.4 secs

     total energy              =    -152.07119293 Ry
     Harris-Foulkes estimate   =    -152.07120115 Ry
     estimated scf accuracy    <       0.00002295 Ry

     iteration #  5     ecut=    70.00 Ry     beta=0.70
     Davidson diagonalization with overlap
     ethr =  1.43E-07,  avg # of iterations =  1.6

     total cpu time spent up to now is        0.4 secs

     total energy              =    -152.07119517 Ry
     Harris-Foulkes estimate   =    -152.07119441 Ry
     estimated scf accuracy    <       0.00000193 Ry

     iteration #  6     ecut=    70.00 Ry     beta=0.70
     Davidson diagonalization with overlap
     ethr =  1.21E-08,  avg # of iterations =  2.0

     total cpu time spent up to now is        0.5 secs

     total energy              =    -152.07119554 Ry
     Harris-Foulkes estimate   =    -152.07119561 Ry
     estimated scf accuracy    <       0.00000021 Ry

     iteration #  7     ecut=    70.00 Ry     beta=0.70
     Davidson diagonalization with overlap
     ethr =  1.32E-09,  avg # of iterations =  1.0

     total cpu time spent up to now is        0.5 secs

     total energy              =    -152.07119551 Ry
     Harris-Foulkes estimate   =    -152.07119555 Ry
     estimated scf accuracy    <       0.00000006 Ry

     iteration #  8     ecut=    70.00 Ry     beta=0.70
     Davidson diagonalization with overlap
     ethr =  4.00E-10,  avg # of iterations =  2.0

     total cpu time spent up to now is        0.5 secs

     End of self-consistent calculation

          k = 0.0000 0.0000 0.0000 (  1243 PWs)   bands (ev):

   -64.2693 -31.0507 -31.0044 -31.0044  -9.2083   7.7808   7.7808   7.9965

          k =-0.2500 0.2500-0.2500 (  1257 PWs)   bands (ev):

   -64.2649 -31.0672 -31.0393 -31.0098  -8.6211   5.2714   7.5128   7.7587

          k = 0.5000-0.5000 0.5000 (  1224 PWs)   bands (ev):

   -64.2604 -31.1007 -31.0503 -31.0140  -7.9344   3.4312   7.2635   7.5165

          k = 0.0000 0.5000 0.0000 (  1283 PWs)   bands (ev):

   -64.2635 -31.0777 -31.0377 -31.0219  -8.4643   5.3555   7.1154   7.2730

          k = 0.7500-0.2500 0.7500 (  1240 PWs)   bands (ev):

   -64.2591 -31.0806 -31.0763 -31.0254  -7.8268   4.2319   6.2014   6.8894

          k = 0.5000 0.0000 0.5000 (  1264 PWs)   bands (ev):

   -64.2607 -31.1032 -31.0477 -31.0155  -8.0122   4.5152   6.0393   7.2252

          k = 0.0000-1.0000 0.0000 (  1234 PWs)   bands (ev):

   -64.2577 -31.1020 -31.0581 -31.0337  -7.6992   4.0224   6.5529   6.6590

          k =-0.5000-1.0000 0.0000 (  1232 PWs)   bands (ev):

   -64.2577 -31.0933 -31.0619 -31.0407  -7.6448   5.0596   5.1395   6.2294

          k =-0.2500-0.2500-0.2500 (  1257 PWs)   bands (ev):

   -64.2651 -31.0926 -31.0090 -31.0090  -8.6260   5.3628   7.4758   7.4758

          k = 0.5000 0.5000 0.5000 (  1224 PWs)   bands (ev):

   -64.2609 -31.1291 -31.0124 -31.0124  -7.9428   3.4572   7.1944   7.1944

          k =-0.2500-0.7500 0.7500 (  1240 PWs)   bands (ev):

   -64.2591 -31.0920 -31.0553 -31.0350  -7.8271   4.2269   6.0832   7.0555

          k = 0.2500 0.7500 0.7500 (  1240 PWs)   bands (ev):

   -64.2593 -31.1119 -31.0403 -31.0246  -7.8295   4.2596   6.0526   6.8576

          k = 0.0000-0.5000 0.5000 (  1264 PWs)   bands (ev):

   -64.2605 -31.0742 -31.0679 -31.0298  -8.0100   4.5062   6.0340   7.4412

     highest occupied level (ev):     7.9965

!    total energy              =    -152.07119552 Ry
     Harris-Foulkes estimate   =    -152.07119553 Ry
     estimated scf accuracy    <          4.5E-09 Ry

     The total energy is the sum of the following terms:

     one-electron contribution =     -76.25880555 Ry
     hartree contribution      =      42.48208261 Ry
     xc contribution           =     -24.53767899 Ry
     ewald contribution        =     -93.75679359 Ry

     convergence has been achieved in   8 iterations

     Forces acting on atoms (cartesian axes, Ry/au):

     atom    1 type  1   force =    -0.04126231   -0.04126231   -0.04126231
     atom    2 type  2   force =     0.04126231    0.04126231    0.04126231

     Total force =     0.101072     Total SCF correction =     0.000027


     Computing stress (Cartesian axis) and pressure

          total   stress  (Ry/bohr**3)                   (kbar)     P=   90.57
   0.00061566  -0.00019777  -0.00019777         90.57    -29.09    -29.09
  -0.00019777   0.00061566  -0.00019777        -29.09     90.57    -29.09
  -0.00019777  -0.00019777   0.00061566        -29.09    -29.09     90.57


     Writing output data file diamond.7.97.70.4.save
 
     init_run     :      0.03s CPU      0.04s WALL (       1 calls)
     electrons    :      0.33s CPU      0.35s WALL (       1 calls)
     forces       :      0.01s CPU      0.01s WALL (       1 calls)
     stress       :      0.02s CPU      0.02s WALL (       1 calls)

     Called by init_run:
     wfcinit      :      0.02s CPU      0.02s WALL (       1 calls)
     potinit      :      0.00s CPU      0.00s WALL (       1 calls)

     Called by electrons:
     c_bands      :      0.27s CPU      0.29s WALL (       8 calls)
     sum_band     :      0.04s CPU      0.04s WALL (       8 calls)
     v_of_rho     :      0.01s CPU      0.01s WALL (       9 calls)
     mix_rho      :      0.00s CPU      0.00s WALL (       8 calls)

     Called by c_bands:
     init_us_2    :      0.01s CPU      0.01s WALL (     247 calls)
     cegterg      :      0.25s CPU      0.27s WALL (     104 calls)

     Called by sum_band:

     Called by *egterg:
     h_psi        :      0.19s CPU      0.21s WALL (     313 calls)
     g_psi        :      0.00s CPU      0.00s WALL (     196 calls)
     cdiaghg      :      0.04s CPU      0.04s WALL (     300 calls)

     Called by h_psi:
     h_psi:pot    :      0.19s CPU      0.21s WALL (     313 calls)
     h_psi:calbec :      0.01s CPU      0.01s WALL (     313 calls)
     vloc_psi     :      0.17s CPU      0.18s WALL (     313 calls)
     add_vuspsi   :      0.00s CPU      0.01s WALL (     313 calls)

     General routines
     calbec       :      0.02s CPU      0.02s WALL (     378 calls)
     fft          :      0.00s CPU      0.01s WALL (     123 calls)
     fftw         :      0.19s CPU      0.20s WALL (    5232 calls)
     davcio       :      0.00s CPU      0.00s WALL (      13 calls)
 
     Parallel routines
     fft_scatter  :      0.07s CPU      0.08s WALL (    5355 calls)
 
     PWSCF        :     0.56s CPU         0.63s WALL

 
   This run was terminated on:  17:52:35  15Apr2018            

=------------------------------------------------------------------------------=
   JOB DONE.
=------------------------------------------------------------------------------=
