
     Program PWSCF v.6.1 (svn rev. 13369) starts on 22Apr2018 at 15: 1:36 

     This program is part of the open-source Quantum ESPRESSO suite
     for quantum simulation of materials; please cite
         "P. Giannozzi et al., J. Phys.:Condens. Matter 21 395502 (2009);
          URL http://www.quantum-espresso.org", 
     in publications or presentations arising from this work. More details at
     http://www.quantum-espresso.org/quote

     Parallel version (MPI), running on     8 processors
     R & G space division:  proc/nbgrp/npool/nimage =       8
     Waiting for input...
     Reading input from standard input
Warning: card       &CELL ignored
Warning: card       CELL_DYNAMICS = 'BFGS' ignored
Warning: card       PRESS = 0.0D0 ignored
Warning: card       PRESS_CONV_THR = 0.01D0 ignored
Warning: card       / ignored

     Current dimensions of program PWSCF are:
     Max number of different atomic species (ntypx) = 10
     Max number of k-points (npk) =  40000
     Max angular momentum in pseudopotentials (lmaxx) =  3

     Subspace diagonalization in iterative solution of the eigenvalue problem:
     a serial algorithm will be used

 
     Parallelization info
     --------------------
     sticks:   dense  smooth     PW     G-vecs:    dense   smooth      PW
     Min         182     182     52                 5238     5238     826
     Max         183     183     53                 5241     5241     831
     Sum        1457    1457    421                41915    41915    6627
 


     bravais-lattice index     =            8
     lattice parameter (alat)  =       8.1080  a.u.
     unit-cell volume          =     528.8536 (a.u.)^3
     number of atoms/cell      =            8
     number of atomic types    =            2
     number of electrons       =        64.00
     number of Kohn-Sham states=           32
     kinetic-energy cutoff     =      70.0000  Ry
     charge density cutoff     =     280.0000  Ry
     convergence threshold     =      1.0E-08
     mixing beta               =       0.7000
     number of iterations used =            8  plain     mixing
     Exchange-correlation      = PBE ( 1  4  3  4 0 0)
     nstep                     =           50


     celldm(1)=   8.107958  celldm(2)=   0.992143  celldm(3)=   1.000062
     celldm(4)=   0.000000  celldm(5)=   0.000000  celldm(6)=   0.000000

     crystal axes: (cart. coord. in units of alat)
               a(1) = (   1.000000   0.000000   0.000000 )  
               a(2) = (   0.000000   0.992143   0.000000 )  
               a(3) = (   0.000000   0.000000   1.000062 )  

     reciprocal axes: (cart. coord. in units 2 pi/alat)
               b(1) = (  1.000000  0.000000  0.000000 )  
               b(2) = (  0.000000  1.007919  0.000000 )  
               b(3) = (  0.000000  0.000000  0.999938 )  


     PseudoPot. # 1 for Mg read from file:
     ../pseudo/Mg.pbe.UPF
     MD5 check sum: 4c04d8c6e0476e83eaecaf72fa8acc4d
     Pseudo is Norm-conserving, Zval = 10.0
     Generated using ONCVPSP code by D. R. Hamann
     Using radial grid of 1510 points,  4 beta functions with: 
                l(1) =   0
                l(2) =   0
                l(3) =   1
                l(4) =   1

     PseudoPot. # 2 for O  read from file:
     ../pseudo/O.pbe.UPF
     MD5 check sum: 3e3f909f7470e8921608ab6b1f57bbae
     Pseudo is Norm-conserving + core correction, Zval =  6.0
     Generated using ONCVPSP code by D. R. Hamann
     Using radial grid of  936 points,  5 beta functions with: 
                l(1) =   0
                l(2) =   0
                l(3) =   1
                l(4) =   1
                l(5) =   2

     atomic species   valence    mass     pseudopotential
        Mg            10.00    24.30500     Mg( 1.00)
        O              6.00    15.99940     O ( 1.00)

      2 Sym. Ops. (no inversion) found



   Cartesian axes

     site n.     atom                  positions (alat units)
         1           Mg  tau(   1) = (   0.0000000   0.0000000   0.0000000  )
         2           Mg  tau(   2) = (   0.0000000   0.5000000   0.5000000  )
         3           Mg  tau(   3) = (   0.5000000   0.0000000   0.5000000  )
         4           Mg  tau(   4) = (   0.5000000   0.5000000   0.0000000  )
         5           O   tau(   5) = (   0.5000000   0.0000000   0.0000000  )
         6           O   tau(   6) = (   0.0000000   0.5000000   0.0000000  )
         7           O   tau(   7) = (   0.0000000   0.0000000   0.5000000  )
         8           O   tau(   8) = (   0.5000000   0.5000000   0.5000000  )

     number of k points=    30
                       cart. coord. in units 2pi/alat
        k(    1) = (   0.0000000   0.0000000   0.0000000), wk =   0.0312500
        k(    2) = (   0.0000000   0.0000000   0.2499846), wk =   0.0625000
        k(    3) = (   0.0000000   0.0000000  -0.4999691), wk =   0.0312500
        k(    4) = (   0.0000000   0.2519798   0.0000000), wk =   0.0625000
        k(    5) = (   0.0000000   0.2519798   0.2499846), wk =   0.0625000
        k(    6) = (   0.0000000   0.2519798  -0.4999691), wk =   0.0625000
        k(    7) = (   0.0000000  -0.5039596   0.0000000), wk =   0.0312500
        k(    8) = (   0.0000000  -0.5039596   0.2499846), wk =   0.0625000
        k(    9) = (   0.0000000  -0.5039596  -0.4999691), wk =   0.0312500
        k(   10) = (   0.2500000   0.0000000   0.0000000), wk =   0.0625000
        k(   11) = (   0.2500000   0.0000000   0.2499846), wk =   0.1250000
        k(   12) = (   0.2500000   0.0000000  -0.4999691), wk =   0.0625000
        k(   13) = (   0.2500000   0.2519798   0.0000000), wk =   0.1250000
        k(   14) = (   0.2500000   0.2519798   0.2499846), wk =   0.1250000
        k(   15) = (   0.2500000   0.2519798  -0.4999691), wk =   0.1250000
        k(   16) = (   0.2500000  -0.5039596   0.0000000), wk =   0.0625000
        k(   17) = (   0.2500000  -0.5039596   0.2499846), wk =   0.1250000
        k(   18) = (   0.2500000  -0.5039596  -0.4999691), wk =   0.0625000
        k(   19) = (  -0.5000000   0.0000000   0.0000000), wk =   0.0312500
        k(   20) = (  -0.5000000   0.0000000   0.2499846), wk =   0.0625000
        k(   21) = (  -0.5000000   0.0000000  -0.4999691), wk =   0.0312500
        k(   22) = (  -0.5000000   0.2519798   0.0000000), wk =   0.0625000
        k(   23) = (  -0.5000000   0.2519798   0.2499846), wk =   0.0625000
        k(   24) = (  -0.5000000   0.2519798  -0.4999691), wk =   0.0625000
        k(   25) = (  -0.5000000  -0.5039596   0.0000000), wk =   0.0312500
        k(   26) = (  -0.5000000  -0.5039596   0.2499846), wk =   0.0625000
        k(   27) = (  -0.5000000  -0.5039596  -0.4999691), wk =   0.0312500
        k(   28) = (   0.0000000   0.2519798  -0.2499846), wk =   0.0625000
        k(   29) = (  -0.2500000   0.2519798  -0.2499846), wk =   0.1250000
        k(   30) = (   0.5000000   0.2519798  -0.2499846), wk =   0.0625000

     Dense  grid:    41915 G-vectors     FFT dimensions: (  45,  45,  45)

     Estimated max dynamical RAM per process >      15.55MB

     Estimated total allocated dynamical RAM >     124.41MB

     Check: negative/imaginary core charge=   -0.000007    0.000000

     Initial potential from superposition of free atoms

     starting charge   63.99678, renormalised to   64.00000
     Starting wfc are   36 randomized atomic wfcs

     total cpu time spent up to now is        0.7 secs

     per-process dynamical memory:    51.4 Mb

     Self-consistent Calculation

     iteration #  1     ecut=    70.00 Ry     beta=0.70
     Davidson diagonalization with overlap
     ethr =  1.00E-02,  avg # of iterations =  2.0

     total cpu time spent up to now is        1.9 secs

     total energy              =    -607.71053455 Ry
     Harris-Foulkes estimate   =    -608.84282315 Ry
     estimated scf accuracy    <       1.57203677 Ry

     iteration #  2     ecut=    70.00 Ry     beta=0.70
     Davidson diagonalization with overlap
     ethr =  2.46E-03,  avg # of iterations =  2.9

     total cpu time spent up to now is        3.3 secs

     total energy              =    -608.09442871 Ry
     Harris-Foulkes estimate   =    -608.81522407 Ry
     estimated scf accuracy    <       1.50433776 Ry

     iteration #  3     ecut=    70.00 Ry     beta=0.70
     Davidson diagonalization with overlap
     ethr =  2.35E-03,  avg # of iterations =  2.0

     total cpu time spent up to now is        4.6 secs

     total energy              =    -608.39007302 Ry
     Harris-Foulkes estimate   =    -608.39077697 Ry
     estimated scf accuracy    <       0.00693892 Ry

     iteration #  4     ecut=    70.00 Ry     beta=0.70
     Davidson diagonalization with overlap
     ethr =  1.08E-05,  avg # of iterations =  2.0

     total cpu time spent up to now is        5.8 secs

     total energy              =    -608.39161281 Ry
     Harris-Foulkes estimate   =    -608.39166175 Ry
     estimated scf accuracy    <       0.00011953 Ry

     iteration #  5     ecut=    70.00 Ry     beta=0.70
     Davidson diagonalization with overlap
     ethr =  1.87E-07,  avg # of iterations =  1.7

     total cpu time spent up to now is        6.9 secs

     total energy              =    -608.39162079 Ry
     Harris-Foulkes estimate   =    -608.39161933 Ry
     estimated scf accuracy    <       0.00001050 Ry

     iteration #  6     ecut=    70.00 Ry     beta=0.70
     Davidson diagonalization with overlap
     ethr =  1.64E-08,  avg # of iterations =  2.0

     total cpu time spent up to now is        8.3 secs

     total energy              =    -608.39162223 Ry
     Harris-Foulkes estimate   =    -608.39162268 Ry
     estimated scf accuracy    <       0.00000099 Ry

     iteration #  7     ecut=    70.00 Ry     beta=0.70
     Davidson diagonalization with overlap
     ethr =  1.54E-09,  avg # of iterations =  2.1

     total cpu time spent up to now is        9.5 secs

     total energy              =    -608.39162230 Ry
     Harris-Foulkes estimate   =    -608.39162238 Ry
     estimated scf accuracy    <       0.00000024 Ry

     iteration #  8     ecut=    70.00 Ry     beta=0.70
     Davidson diagonalization with overlap
     ethr =  3.69E-10,  avg # of iterations =  2.0

     total cpu time spent up to now is       10.6 secs

     total energy              =    -608.39162229 Ry
     Harris-Foulkes estimate   =    -608.39162232 Ry
     estimated scf accuracy    <       0.00000006 Ry

     iteration #  9     ecut=    70.00 Ry     beta=0.70
     Davidson diagonalization with overlap
     ethr =  8.83E-11,  avg # of iterations =  2.0

     total cpu time spent up to now is       12.1 secs

     End of self-consistent calculation

          k = 0.0000 0.0000 0.0000 (  5217 PWs)   bands (ev):

   -65.0750 -65.0663 -65.0662 -65.0654 -31.8664 -31.8664 -31.8624 -31.8323
   -31.8323 -31.8305 -31.8304 -31.8274 -31.8274 -31.8093 -31.8093 -31.8024
    -9.4758  -8.0743  -8.0742  -8.0540   3.6257   3.6259   3.6519   6.1954
     6.1958   6.2023   6.2028   6.2517   6.2518   7.4740   7.4918   7.4920

          k = 0.0000 0.0000 0.2500 (  5206 PWs)   bands (ev):

   -65.0737 -65.0674 -65.0662 -65.0656 -31.8608 -31.8588 -31.8568 -31.8377
   -31.8332 -31.8320 -31.8313 -31.8274 -31.8238 -31.8188 -31.8116 -31.8067
    -9.2747  -8.2823  -8.0449  -8.0306   3.9115   3.9358   3.9570   5.6851
     5.6977   6.0009   6.0388   6.3640   6.4088   6.4849   7.2567   7.2814

          k = 0.0000 0.0000-0.5000 (  5246 PWs)   bands (ev):

   -65.0708 -65.0703 -65.0662 -65.0656 -31.8503 -31.8500 -31.8452 -31.8450
   -31.8399 -31.8399 -31.8338 -31.8338 -31.8206 -31.8204 -31.8153 -31.8150
    -8.7824  -8.7821  -8.0113  -8.0112   4.6945   4.6950   4.7144   4.7149
     4.9696   4.9700   5.8272   5.8276   6.7829   6.7833   6.8181   6.8184

          k = 0.0000 0.2520 0.0000 (  5209 PWs)   bands (ev):

   -65.0736 -65.0672 -65.0663 -65.0657 -31.8610 -31.8609 -31.8530 -31.8366
   -31.8365 -31.8298 -31.8291 -31.8282 -31.8281 -31.8127 -31.8118 -31.8117
    -9.2705  -8.2627  -8.0457  -8.0456   3.9165   3.9167   3.9711   5.7286
     5.7287   5.9892   5.9895   6.3584   6.3585   6.4682   7.2708   7.2710

          k = 0.0000 0.2520 0.2500 (  5229 PWs)   bands (ev):

   -65.0725 -65.0673 -65.0670 -65.0660 -31.8589 -31.8565 -31.8544 -31.8433
   -31.8347 -31.8335 -31.8298 -31.8262 -31.8239 -31.8221 -31.8158 -31.8070
    -9.0875  -8.2184  -8.2038  -8.0489   4.0235   4.0304   4.1915   4.9277
     5.6699   5.8828   5.9209   6.3033   6.3176   6.4289   7.0043   7.3245

          k = 0.0000 0.2520-0.5000 (  5240 PWs)   bands (ev):

   -65.0701 -65.0697 -65.0668 -65.0663 -31.8529 -31.8527 -31.8473 -31.8472
   -31.8459 -31.8456 -31.8252 -31.8249 -31.8227 -31.8226 -31.8121 -31.8119
    -8.6483  -8.6480  -8.0984  -8.0983   4.2790   4.2792   4.5969   4.5973
     4.9445   4.9450   6.3971   6.3975   6.4261   6.4265   6.9147   6.9148

          k = 0.0000-0.5040 0.0000 (  5222 PWs)   bands (ev):

   -65.0707 -65.0701 -65.0663 -65.0658 -31.8499 -31.8499 -31.8481 -31.8481
   -31.8366 -31.8343 -31.8262 -31.8261 -31.8220 -31.8220 -31.8207 -31.8206
    -8.7896  -8.7476  -8.0167  -8.0167   4.6829   4.6830   4.7495   4.7496
     4.9485   4.9757   5.7888   5.7890   6.7650   6.7653   6.8061   6.8063

          k = 0.0000-0.5040 0.2500 (  5232 PWs)   bands (ev):

   -65.0701 -65.0695 -65.0669 -65.0664 -31.8550 -31.8537 -31.8459 -31.8458
   -31.8448 -31.8439 -31.8264 -31.8248 -31.8203 -31.8193 -31.8148 -31.8147
    -8.6575  -8.6206  -8.1070  -8.0998   4.2653   4.2914   4.5764   4.6062
     4.9288   4.9934   6.3628   6.3810   6.3870   6.4285   6.9167   6.9292

          k = 0.0000-0.5040-0.5000 (  5240 PWs)   bands (ev):

   -65.0686 -65.0685 -65.0683 -65.0674 -31.8550 -31.8549 -31.8541 -31.8540
   -31.8363 -31.8361 -31.8347 -31.8344 -31.8144 -31.8143 -31.8135 -31.8134
    -8.3615  -8.3613  -8.3383  -8.3381   4.1388   4.1389   4.1500   4.1502
     5.5883   5.5887   5.6462   5.6466   6.8878   6.8880   6.9070   6.9073

          k = 0.2500 0.0000 0.0000 (  5206 PWs)   bands (ev):

   -65.0737 -65.0674 -65.0662 -65.0656 -31.8608 -31.8587 -31.8568 -31.8377
   -31.8331 -31.8320 -31.8313 -31.8275 -31.8238 -31.8188 -31.8116 -31.8067
    -9.2747  -8.2822  -8.0451  -8.0306   3.9114   3.9359   3.9570   5.6853
     5.6980   6.0005   6.0387   6.3636   6.4088   6.4848   7.2567   7.2815

          k = 0.2500 0.0000 0.2500 (  5233 PWs)   bands (ev):

   -65.0726 -65.0674 -65.0670 -65.0659 -31.8589 -31.8588 -31.8520 -31.8459
   -31.8314 -31.8292 -31.8291 -31.8275 -31.8263 -31.8262 -31.8110 -31.8098
    -9.0913  -8.2188  -8.2186  -8.0393   4.0284   4.0284   4.2098   4.9265
     5.6934   5.8909   5.8912   6.3409   6.3410   6.4017   6.9858   7.3281

          k = 0.2500 0.0000-0.5000 (  5240 PWs)   bands (ev):

   -65.0701 -65.0697 -65.0668 -65.0663 -31.8557 -31.8555 -31.8479 -31.8478
   -31.8405 -31.8403 -31.8253 -31.8252 -31.8199 -31.8197 -31.8162 -31.8160
    -8.6506  -8.6503  -8.1014  -8.1012   4.2892   4.2895   4.6150   4.6153
     4.9591   4.9596   6.3749   6.3752   6.4065   6.4068   6.9285   6.9286

          k = 0.2500 0.2520 0.0000 (  5229 PWs)   bands (ev):

   -65.0725 -65.0673 -65.0670 -65.0660 -31.8589 -31.8565 -31.8544 -31.8433
   -31.8348 -31.8336 -31.8298 -31.8261 -31.8239 -31.8221 -31.8158 -31.8070
    -9.0875  -8.2183  -8.2038  -8.0490   4.0235   4.0304   4.1914   4.9277
     5.6697   5.8830   5.9209   6.3031   6.3173   6.4291   7.0044   7.3245

          k = 0.2500 0.2520 0.2500 (  5234 PWs)   bands (ev):

   -65.0716 -65.0674 -65.0673 -65.0665 -31.8619 -31.8618 -31.8601 -31.8435
   -31.8316 -31.8315 -31.8306 -31.8247 -31.8206 -31.8206 -31.8133 -31.8089
    -8.9242  -8.1856  -8.1855  -8.1752   3.8676   3.8706   3.8706   4.9322
     5.6886   5.6887   5.7008   6.5238   6.5468   6.5470   7.1773   7.1794

          k = 0.2500 0.2520-0.5000 (  5228 PWs)   bands (ev):

   -65.0696 -65.0692 -65.0673 -65.0667 -31.8640 -31.8638 -31.8576 -31.8575
   -31.8304 -31.8302 -31.8210 -31.8209 -31.8184 -31.8183 -31.8140 -31.8138
    -8.5419  -8.5417  -8.1493  -8.1493   3.6949   3.6949   4.0625   4.0628
     5.6772   5.6772   6.5758   6.5761   6.6977   6.6979   6.8496   6.8499

          k = 0.2500-0.5040 0.0000 (  5232 PWs)   bands (ev):

   -65.0701 -65.0695 -65.0669 -65.0664 -31.8550 -31.8536 -31.8459 -31.8459
   -31.8448 -31.8439 -31.8264 -31.8248 -31.8203 -31.8193 -31.8148 -31.8147
    -8.6575  -8.6206  -8.1070  -8.0998   4.2652   4.2913   4.5762   4.6061
     4.9287   4.9933   6.3629   6.3812   6.3871   6.4286   6.9166   6.9291

          k = 0.2500-0.5040 0.2500 (  5226 PWs)   bands (ev):

   -65.0696 -65.0691 -65.0674 -65.0668 -31.8647 -31.8646 -31.8568 -31.8565
   -31.8331 -31.8329 -31.8193 -31.8183 -31.8169 -31.8169 -31.8152 -31.8146
    -8.5501  -8.5187  -8.1520  -8.1520   3.6930   3.6931   4.0350   4.0658
     5.6782   5.6783   6.5705   6.5707   6.7017   6.7152   6.8216   6.8512

          k = 0.2500-0.5040-0.5000 (  5228 PWs)   bands (ev):

   -65.0685 -65.0685 -65.0684 -65.0674 -31.8671 -31.8669 -31.8668 -31.8667
   -31.8235 -31.8233 -31.8229 -31.8227 -31.8133 -31.8132 -31.8127 -31.8126
    -8.3234  -8.3233  -8.3068  -8.3066   3.5022   3.5023   3.5178   3.5179
     6.3418   6.3420   6.3754   6.3757   6.8917   6.8920   6.9053   6.9055

          k =-0.5000 0.0000 0.0000 (  5246 PWs)   bands (ev):

   -65.0708 -65.0703 -65.0662 -65.0656 -31.8503 -31.8500 -31.8452 -31.8450
   -31.8399 -31.8399 -31.8337 -31.8337 -31.8207 -31.8204 -31.8153 -31.8150
    -8.7822  -8.7821  -8.0113  -8.0113   4.6948   4.6948   4.7148   4.7148
     4.9696   4.9699   5.8269   5.8273   6.7828   6.7829   6.8183   6.8183

          k =-0.5000 0.0000 0.2500 (  5240 PWs)   bands (ev):

   -65.0701 -65.0697 -65.0668 -65.0663 -31.8558 -31.8556 -31.8478 -31.8478
   -31.8405 -31.8402 -31.8253 -31.8252 -31.8199 -31.8197 -31.8163 -31.8161
    -8.6505  -8.6504  -8.1014  -8.1013   4.2893   4.2894   4.6150   4.6152
     4.9594   4.9594   6.3748   6.3750   6.4065   6.4065   6.9285   6.9286

          k =-0.5000 0.0000-0.5000 (  5272 PWs)   bands (ev):

   -65.0685 -65.0685 -65.0685 -65.0675 -31.8567 -31.8565 -31.8565 -31.8565
   -31.8313 -31.8312 -31.8312 -31.8309 -31.8176 -31.8173 -31.8173 -31.8173
    -8.3552  -8.3552  -8.3550  -8.3550   4.1733   4.1734   4.1735   4.1736
     5.6142   5.6143   5.6147   5.6147   6.8858   6.8860   6.8860   6.8862

          k =-0.5000 0.2520 0.0000 (  5240 PWs)   bands (ev):

   -65.0701 -65.0697 -65.0668 -65.0663 -31.8529 -31.8527 -31.8472 -31.8472
   -31.8459 -31.8457 -31.8252 -31.8250 -31.8227 -31.8226 -31.8120 -31.8119
    -8.6481  -8.6481  -8.0984  -8.0983   4.2789   4.2790   4.5968   4.5970
     4.9447   4.9448   6.3971   6.3974   6.4264   6.4264   6.9147   6.9148

          k =-0.5000 0.2520 0.2500 (  5228 PWs)   bands (ev):

   -65.0696 -65.0692 -65.0673 -65.0667 -31.8640 -31.8638 -31.8576 -31.8575
   -31.8305 -31.8302 -31.8210 -31.8209 -31.8185 -31.8183 -31.8140 -31.8138
    -8.5418  -8.5417  -8.1494  -8.1493   3.6948   3.6949   4.0625   4.0626
     5.6772   5.6772   6.5758   6.5760   6.6978   6.6980   6.8497   6.8497

          k =-0.5000 0.2520-0.5000 (  5232 PWs)   bands (ev):

   -65.0685 -65.0684 -65.0684 -65.0675 -31.8675 -31.8672 -31.8672 -31.8672
   -31.8194 -31.8193 -31.8193 -31.8190 -31.8169 -31.8166 -31.8166 -31.8166
    -8.3178  -8.3178  -8.3177  -8.3176   3.5196   3.5197   3.5198   3.5199
     6.3677   6.3678   6.3681   6.3681   6.8871   6.8873   6.8873   6.8874

          k =-0.5000-0.5040 0.0000 (  5240 PWs)   bands (ev):

   -65.0686 -65.0685 -65.0683 -65.0674 -31.8550 -31.8548 -31.8541 -31.8540
   -31.8364 -31.8361 -31.8347 -31.8344 -31.8144 -31.8142 -31.8135 -31.8133
    -8.3614  -8.3613  -8.3382  -8.3381   4.1385   4.1387   4.1498   4.1500
     5.5885   5.5886   5.6464   5.6464   6.8879   6.8881   6.9072   6.9073

          k =-0.5000-0.5040 0.2500 (  5228 PWs)   bands (ev):

   -65.0685 -65.0685 -65.0684 -65.0674 -31.8671 -31.8669 -31.8668 -31.8667
   -31.8236 -31.8233 -31.8229 -31.8227 -31.8133 -31.8132 -31.8127 -31.8125
    -8.3233  -8.3233  -8.3067  -8.3066   3.5021   3.5022   3.5177   3.5178
     6.3418   6.3419   6.3755   6.3755   6.8919   6.8920   6.9054   6.9056

          k =-0.5000-0.5040-0.5000 (  5232 PWs)   bands (ev):

   -65.0685 -65.0684 -65.0684 -65.0674 -31.8749 -31.8747 -31.8747 -31.8746
   -31.8165 -31.8162 -31.8162 -31.8162 -31.8124 -31.8122 -31.8122 -31.8120
    -8.2798  -8.2798  -8.2797  -8.2797   3.0979   3.0980   3.0981   3.0981
     6.8883   6.8885   6.8885   6.8886   6.9031   6.9032   6.9033   6.9033

          k = 0.0000 0.2520-0.2500 (  5229 PWs)   bands (ev):

   -65.0725 -65.0673 -65.0670 -65.0660 -31.8589 -31.8565 -31.8544 -31.8433
   -31.8347 -31.8335 -31.8298 -31.8262 -31.8239 -31.8221 -31.8158 -31.8070
    -9.0875  -8.2184  -8.2038  -8.0489   4.0235   4.0304   4.1915   4.9277
     5.6699   5.8828   5.9209   6.3033   6.3176   6.4289   7.0043   7.3245

          k =-0.2500 0.2520-0.2500 (  5234 PWs)   bands (ev):

   -65.0716 -65.0674 -65.0673 -65.0665 -31.8619 -31.8618 -31.8601 -31.8435
   -31.8316 -31.8315 -31.8306 -31.8247 -31.8206 -31.8206 -31.8133 -31.8089
    -8.9242  -8.1856  -8.1855  -8.1752   3.8676   3.8706   3.8706   4.9322
     5.6886   5.6887   5.7008   6.5238   6.5468   6.5470   7.1773   7.1794

          k = 0.5000 0.2520-0.2500 (  5228 PWs)   bands (ev):

   -65.0696 -65.0692 -65.0673 -65.0667 -31.8640 -31.8638 -31.8576 -31.8575
   -31.8305 -31.8302 -31.8210 -31.8209 -31.8185 -31.8183 -31.8140 -31.8138
    -8.5418  -8.5417  -8.1494  -8.1493   3.6948   3.6949   4.0625   4.0626
     5.6772   5.6772   6.5758   6.5760   6.6978   6.6979   6.8497   6.8497

     highest occupied level (ev):     7.4920

!    total energy              =    -608.39162230 Ry
     Harris-Foulkes estimate   =    -608.39162230 Ry
     estimated scf accuracy    <          3.4E-09 Ry

     The total energy is the sum of the following terms:

     one-electron contribution =    -306.64754116 Ry
     hartree contribution      =     169.11043901 Ry
     xc contribution           =     -97.78355078 Ry
     ewald contribution        =    -373.07096937 Ry

     convergence has been achieved in   9 iterations

     Forces acting on atoms (cartesian axes, Ry/au):

     atom    1 type  1   force =     0.00000000    0.00429141   -0.00003033
     atom    2 type  1   force =     0.00000000   -0.00422381    0.00002860
     atom    3 type  1   force =     0.00000000    0.00429497    0.00002950
     atom    4 type  1   force =     0.00000000   -0.00422362   -0.00002953
     atom    5 type  2   force =     0.00000000    0.00490036   -0.00003484
     atom    6 type  2   force =     0.00000000   -0.00495821   -0.00003499
     atom    7 type  2   force =     0.00000000    0.00489937    0.00003554
     atom    8 type  2   force =     0.00000000   -0.00498047    0.00003605

     Total force =     0.013037     Total SCF correction =     0.000067


     Computing stress (Cartesian axis) and pressure

          total   stress  (Ry/bohr**3)                   (kbar)     P=  -88.92
  -0.00063371   0.00000000   0.00000000        -93.22      0.00      0.00
   0.00000000  -0.00054572   0.00000000          0.00    -80.28      0.00
   0.00000000   0.00000000  -0.00063394          0.00      0.00    -93.26


     BFGS Geometry Optimization

     number of scf cycles    =   1
     number of bfgs steps    =   0

     energy   new            =    -608.3916222980 Ry

     new trust radius        =       0.0049806026 bohr
     new conv_thr            =       0.0000000100 Ry


ATOMIC_POSITIONS (alat)
Mg       0.000000000   0.000529283  -0.000003741
Mg       0.000000000   0.499479054   0.500003528
Mg       0.500000000   0.000529723   0.500003639
Mg       0.500000000   0.499479077  -0.000003642
O        0.500000000   0.000604389  -0.000004297
O        0.000000000   0.499388476  -0.000004315
O        0.000000000   0.000604267   0.500004383
O        0.500000000   0.499385730   0.500004446



     Writing output data file diamond.8.10795760075.70.4.save
     NEW-OLD atomic charge density approx. for the potential

     Check: negative/imaginary core charge=   -0.000007    0.000000

     total cpu time spent up to now is       12.9 secs

     per-process dynamical memory:    52.1 Mb

     Self-consistent Calculation

     iteration #  1     ecut=    70.00 Ry     beta=0.70
     Davidson diagonalization with overlap
     ethr =  1.00E-06,  avg # of iterations =  3.0

     Threshold (ethr) on eigenvalues was too large:
     Diagonalizing with lowered threshold

     Davidson diagonalization with overlap
     ethr =  4.75E-08,  avg # of iterations =  1.2

     total cpu time spent up to now is       15.7 secs

     total energy              =    -608.39175626 Ry
     Harris-Foulkes estimate   =    -608.39177866 Ry
     estimated scf accuracy    <       0.00003061 Ry

     iteration #  2     ecut=    70.00 Ry     beta=0.70
     Davidson diagonalization with overlap
     ethr =  4.78E-08,  avg # of iterations =  2.2

     total cpu time spent up to now is       17.0 secs

     total energy              =    -608.39176549 Ry
     Harris-Foulkes estimate   =    -608.39176859 Ry
     estimated scf accuracy    <       0.00000513 Ry

     iteration #  3     ecut=    70.00 Ry     beta=0.70
     Davidson diagonalization with overlap
     ethr =  8.02E-09,  avg # of iterations =  2.0

     total cpu time spent up to now is       18.2 secs

     total energy              =    -608.39176661 Ry
     Harris-Foulkes estimate   =    -608.39176659 Ry
     estimated scf accuracy    <       0.00000004 Ry

     iteration #  4     ecut=    70.00 Ry     beta=0.70
     Davidson diagonalization with overlap
     ethr =  6.04E-11,  avg # of iterations =  2.6

     total cpu time spent up to now is       19.6 secs

     End of self-consistent calculation

          k = 0.0000 0.0000 0.0000 (  5217 PWs)   bands (ev):

   -65.0754 -65.0667 -65.0666 -65.0659 -31.8667 -31.8667 -31.8627 -31.8327
   -31.8326 -31.8309 -31.8308 -31.8278 -31.8277 -31.8097 -31.8097 -31.8027
    -9.4756  -8.0742  -8.0741  -8.0540   3.6259   3.6261   3.6516   6.1956
     6.1960   6.2022   6.2027   6.2516   6.2517   7.4743   7.4918   7.4919

          k = 0.0000 0.0000 0.2500 (  5206 PWs)   bands (ev):

   -65.0741 -65.0679 -65.0666 -65.0660 -31.8611 -31.8591 -31.8571 -31.8380
   -31.8335 -31.8323 -31.8317 -31.8278 -31.8241 -31.8192 -31.8119 -31.8070
    -9.2746  -8.2822  -8.0449  -8.0306   3.9117   3.9356   3.9572   5.6853
     5.6976   6.0012   6.0392   6.3635   6.4086   6.4849   7.2568   7.2813

          k = 0.0000 0.0000-0.5000 (  5246 PWs)   bands (ev):

   -65.0712 -65.0707 -65.0666 -65.0661 -31.8506 -31.8504 -31.8454 -31.8452
   -31.8404 -31.8404 -31.8341 -31.8341 -31.8210 -31.8207 -31.8156 -31.8154
    -8.7822  -8.7820  -8.0113  -8.0112   4.6948   4.6952   4.7144   4.7148
     4.9695   4.9699   5.8276   5.8279   6.7827   6.7829   6.8180   6.8182

          k = 0.0000 0.2520 0.0000 (  5209 PWs)   bands (ev):

   -65.0741 -65.0677 -65.0667 -65.0661 -31.8613 -31.8613 -31.8533 -31.8370
   -31.8369 -31.8302 -31.8295 -31.8285 -31.8285 -31.8131 -31.8122 -31.8121
    -9.2702  -8.2628  -8.0456  -8.0455   3.9168   3.9170   3.9709   5.7283
     5.7284   5.9891   5.9895   6.3586   6.3588   6.4683   7.2707   7.2709

          k = 0.0000 0.2520 0.2500 (  5229 PWs)   bands (ev):

   -65.0730 -65.0678 -65.0674 -65.0665 -31.8593 -31.8568 -31.8548 -31.8436
   -31.8351 -31.8339 -31.8301 -31.8266 -31.8243 -31.8225 -31.8161 -31.8074
    -9.0873  -8.2183  -8.2038  -8.0489   4.0237   4.0303   4.1918   4.9276
     5.6700   5.8831   5.9207   6.3038   6.3176   6.4283   7.0041   7.3246

          k = 0.0000 0.2520-0.5000 (  5240 PWs)   bands (ev):

   -65.0705 -65.0701 -65.0673 -65.0667 -31.8532 -31.8531 -31.8476 -31.8476
   -31.8462 -31.8460 -31.8256 -31.8253 -31.8231 -31.8230 -31.8124 -31.8123
    -8.6481  -8.6479  -8.0984  -8.0983   4.2789   4.2791   4.5970   4.5973
     4.9449   4.9452   6.3973   6.3976   6.4260   6.4262   6.9145   6.9146

          k = 0.0000-0.5040 0.0000 (  5222 PWs)   bands (ev):

   -65.0711 -65.0705 -65.0667 -65.0662 -31.8501 -31.8500 -31.8487 -31.8487
   -31.8366 -31.8349 -31.8265 -31.8265 -31.8222 -31.8221 -31.8212 -31.8212
    -8.7832  -8.7539  -8.0167  -8.0166   4.6928   4.6930   4.7396   4.7397
     4.9526   4.9715   5.7888   5.7889   6.7713   6.7716   6.7999   6.8002

          k = 0.0000-0.5040 0.2500 (  5232 PWs)   bands (ev):

   -65.0705 -65.0699 -65.0674 -65.0668 -31.8552 -31.8542 -31.8461 -31.8460
   -31.8453 -31.8445 -31.8265 -31.8254 -31.8205 -31.8198 -31.8152 -31.8151
    -8.6519  -8.6261  -8.1058  -8.1008   4.2692   4.2876   4.5809   4.6015
     4.9385   4.9838   6.3664   6.3832   6.3882   6.4214   6.9186   6.9274

          k = 0.0000-0.5040-0.5000 (  5240 PWs)   bands (ev):

   -65.0690 -65.0689 -65.0688 -65.0679 -31.8552 -31.8551 -31.8545 -31.8544
   -31.8365 -31.8362 -31.8352 -31.8350 -31.8147 -31.8145 -31.8140 -31.8138
    -8.3579  -8.3578  -8.3417  -8.3415   4.1406   4.1407   4.1482   4.1483
     5.5971   5.5974   5.6376   5.6379   6.8907   6.8909   6.9041   6.9043

          k = 0.2500 0.0000 0.0000 (  5206 PWs)   bands (ev):

   -65.0741 -65.0679 -65.0666 -65.0660 -31.8612 -31.8591 -31.8571 -31.8381
   -31.8335 -31.8323 -31.8317 -31.8278 -31.8241 -31.8192 -31.8120 -31.8070
    -9.2745  -8.2821  -8.0450  -8.0306   3.9116   3.9356   3.9573   5.6855
     5.6979   6.0008   6.0391   6.3632   6.4086   6.4848   7.2567   7.2814

          k = 0.2500 0.0000 0.2500 (  5233 PWs)   bands (ev):

   -65.0730 -65.0678 -65.0674 -65.0663 -31.8593 -31.8592 -31.8523 -31.8463
   -31.8318 -31.8295 -31.8294 -31.8279 -31.8267 -31.8266 -31.8113 -31.8102
    -9.0911  -8.2187  -8.2185  -8.0393   4.0286   4.0287   4.2096   4.9267
     5.6934   5.8909   5.8912   6.3407   6.3408   6.4019   6.9858   7.3281

          k = 0.2500 0.0000-0.5000 (  5240 PWs)   bands (ev):

   -65.0705 -65.0701 -65.0673 -65.0667 -31.8561 -31.8559 -31.8481 -31.8481
   -31.8409 -31.8407 -31.8256 -31.8255 -31.8203 -31.8201 -31.8166 -31.8164
    -8.6505  -8.6502  -8.1013  -8.1012   4.2895   4.2896   4.6153   4.6156
     4.9587   4.9590   6.3774   6.3777   6.4041   6.4043   6.9284   6.9285

          k = 0.2500 0.2520 0.0000 (  5229 PWs)   bands (ev):

   -65.0730 -65.0678 -65.0674 -65.0665 -31.8592 -31.8568 -31.8547 -31.8436
   -31.8351 -31.8339 -31.8301 -31.8266 -31.8243 -31.8225 -31.8162 -31.8074
    -9.0873  -8.2182  -8.2038  -8.0490   4.0237   4.0302   4.1917   4.9276
     5.6698   5.8833   5.9206   6.3036   6.3173   6.4285   7.0042   7.3246

          k = 0.2500 0.2520 0.2500 (  5234 PWs)   bands (ev):

   -65.0720 -65.0678 -65.0677 -65.0670 -31.8623 -31.8622 -31.8605 -31.8438
   -31.8320 -31.8318 -31.8310 -31.8251 -31.8210 -31.8209 -31.8137 -31.8093
    -8.9240  -8.1855  -8.1854  -8.1752   3.8676   3.8707   3.8707   4.9322
     5.6886   5.6887   5.7007   6.5241   6.5466   6.5468   7.1773   7.1795

          k = 0.2500 0.2520-0.5000 (  5228 PWs)   bands (ev):

   -65.0700 -65.0696 -65.0677 -65.0671 -31.8643 -31.8641 -31.8580 -31.8579
   -31.8308 -31.8306 -31.8214 -31.8213 -31.8188 -31.8186 -31.8143 -31.8141
    -8.5418  -8.5416  -8.1493  -8.1492   3.6949   3.6950   4.0626   4.0628
     5.6772   5.6772   6.5761   6.5764   6.6976   6.6977   6.8495   6.8496

          k = 0.2500-0.5040 0.0000 (  5232 PWs)   bands (ev):

   -65.0705 -65.0699 -65.0674 -65.0668 -31.8551 -31.8542 -31.8461 -31.8460
   -31.8453 -31.8446 -31.8266 -31.8254 -31.8205 -31.8198 -31.8152 -31.8150
    -8.6519  -8.6260  -8.1058  -8.1008   4.2691   4.2875   4.5808   4.6014
     4.9384   4.9837   6.3665   6.3834   6.3884   6.4216   6.9185   6.9273

          k = 0.2500-0.5040 0.2500 (  5226 PWs)   bands (ev):

   -65.0700 -65.0695 -65.0678 -65.0672 -31.8650 -31.8650 -31.8571 -31.8569
   -31.8335 -31.8333 -31.8195 -31.8188 -31.8173 -31.8173 -31.8155 -31.8151
    -8.5453  -8.5233  -8.1520  -8.1519   3.6930   3.6931   4.0397   4.0610
     5.6784   5.6785   6.5703   6.5705   6.7037   6.7132   6.8262   6.8468

          k = 0.2500-0.5040-0.5000 (  5228 PWs)   bands (ev):

   -65.0689 -65.0689 -65.0688 -65.0679 -31.8674 -31.8672 -31.8672 -31.8671
   -31.8238 -31.8236 -31.8233 -31.8231 -31.8136 -31.8135 -31.8131 -31.8130
    -8.3208  -8.3207  -8.3092  -8.3090   3.5046   3.5047   3.5154   3.5155
     6.3469   6.3471   6.3705   6.3707   6.8938   6.8940   6.9032   6.9034

          k =-0.5000 0.0000 0.0000 (  5246 PWs)   bands (ev):

   -65.0712 -65.0707 -65.0666 -65.0661 -31.8507 -31.8504 -31.8454 -31.8452
   -31.8404 -31.8403 -31.8341 -31.8341 -31.8210 -31.8208 -31.8156 -31.8154
    -8.7820  -8.7820  -8.0113  -8.0113   4.6950   4.6950   4.7148   4.7148
     4.9695   4.9698   5.8273   5.8276   6.7825   6.7825   6.8181   6.8181

          k =-0.5000 0.0000 0.2500 (  5240 PWs)   bands (ev):

   -65.0705 -65.0701 -65.0673 -65.0667 -31.8561 -31.8559 -31.8481 -31.8480
   -31.8409 -31.8407 -31.8256 -31.8255 -31.8203 -31.8201 -31.8166 -31.8164
    -8.6503  -8.6503  -8.1013  -8.1013   4.2895   4.2896   4.6153   4.6155
     4.9590   4.9590   6.3772   6.3775   6.4040   6.4040   6.9285   6.9286

          k =-0.5000 0.0000-0.5000 (  5272 PWs)   bands (ev):

   -65.0689 -65.0689 -65.0689 -65.0679 -31.8571 -31.8568 -31.8568 -31.8568
   -31.8317 -31.8315 -31.8315 -31.8312 -31.8180 -31.8177 -31.8177 -31.8177
    -8.3551  -8.3551  -8.3550  -8.3548   4.1734   4.1736   4.1737   4.1737
     5.6140   5.6140   5.6144   5.6144   6.8858   6.8861   6.8862   6.8862

          k =-0.5000 0.2520 0.0000 (  5240 PWs)   bands (ev):

   -65.0705 -65.0701 -65.0673 -65.0667 -31.8532 -31.8530 -31.8476 -31.8476
   -31.8463 -31.8460 -31.8256 -31.8253 -31.8231 -31.8230 -31.8124 -31.8122
    -8.6479  -8.6479  -8.0984  -8.0984   4.2789   4.2790   4.5968   4.5971
     4.9451   4.9451   6.3973   6.3975   6.4261   6.4261   6.9145   6.9145

          k =-0.5000 0.2520 0.2500 (  5228 PWs)   bands (ev):

   -65.0700 -65.0696 -65.0677 -65.0671 -31.8643 -31.8641 -31.8580 -31.8578
   -31.8308 -31.8306 -31.8213 -31.8213 -31.8188 -31.8187 -31.8143 -31.8141
    -8.5416  -8.5416  -8.1493  -8.1493   3.6949   3.6950   4.0625   4.0626
     5.6772   5.6772   6.5761   6.5763   6.6977   6.6978   6.8494   6.8495

          k =-0.5000 0.2520-0.5000 (  5232 PWs)   bands (ev):

   -65.0689 -65.0689 -65.0689 -65.0679 -31.8678 -31.8676 -31.8676 -31.8675
   -31.8198 -31.8196 -31.8196 -31.8194 -31.8173 -31.8170 -31.8170 -31.8170
    -8.3177  -8.3177  -8.3176  -8.3175   3.5196   3.5198   3.5198   3.5199
     6.3677   6.3677   6.3679   6.3680   6.8871   6.8874   6.8874   6.8875

          k =-0.5000-0.5040 0.0000 (  5240 PWs)   bands (ev):

   -65.0690 -65.0689 -65.0688 -65.0679 -31.8552 -31.8551 -31.8545 -31.8544
   -31.8365 -31.8362 -31.8353 -31.8350 -31.8146 -31.8145 -31.8139 -31.8138
    -8.3578  -8.3578  -8.3416  -8.3415   4.1403   4.1405   4.1480   4.1481
     5.5973   5.5973   5.6378   5.6378   6.8908   6.8910   6.9042   6.9044

          k =-0.5000-0.5040 0.2500 (  5228 PWs)   bands (ev):

   -65.0689 -65.0689 -65.0688 -65.0679 -31.8674 -31.8672 -31.8672 -31.8671
   -31.8238 -31.8236 -31.8233 -31.8232 -31.8136 -31.8135 -31.8131 -31.8130
    -8.3208  -8.3207  -8.3091  -8.3091   3.5045   3.5046   3.5153   3.5154
     6.3469   6.3470   6.3705   6.3705   6.8939   6.8941   6.9033   6.9035

          k =-0.5000-0.5040-0.5000 (  5232 PWs)   bands (ev):

   -65.0689 -65.0689 -65.0689 -65.0679 -31.8753 -31.8750 -31.8750 -31.8750
   -31.8168 -31.8166 -31.8165 -31.8165 -31.8127 -31.8125 -31.8125 -31.8124
    -8.2797  -8.2797  -8.2797  -8.2795   3.0979   3.0980   3.0980   3.0980
     6.8883   6.8886   6.8886   6.8887   6.9031   6.9032   6.9033   6.9033

          k = 0.0000 0.2520-0.2500 (  5229 PWs)   bands (ev):

   -65.0730 -65.0678 -65.0674 -65.0665 -31.8593 -31.8568 -31.8548 -31.8436
   -31.8351 -31.8339 -31.8301 -31.8266 -31.8243 -31.8225 -31.8161 -31.8074
    -9.0873  -8.2183  -8.2038  -8.0489   4.0237   4.0303   4.1918   4.9276
     5.6700   5.8831   5.9207   6.3038   6.3176   6.4283   7.0041   7.3246

          k =-0.2500 0.2520-0.2500 (  5234 PWs)   bands (ev):

   -65.0720 -65.0678 -65.0677 -65.0670 -31.8623 -31.8622 -31.8605 -31.8438
   -31.8320 -31.8318 -31.8310 -31.8251 -31.8210 -31.8209 -31.8137 -31.8093
    -8.9240  -8.1855  -8.1854  -8.1752   3.8676   3.8707   3.8707   4.9322
     5.6886   5.6887   5.7007   6.5241   6.5466   6.5468   7.1773   7.1795

          k = 0.5000 0.2520-0.2500 (  5228 PWs)   bands (ev):

   -65.0700 -65.0696 -65.0677 -65.0671 -31.8643 -31.8641 -31.8580 -31.8578
   -31.8308 -31.8306 -31.8213 -31.8213 -31.8188 -31.8187 -31.8143 -31.8141
    -8.5416  -8.5416  -8.1493  -8.1493   3.6949   3.6950   4.0625   4.0626
     5.6772   5.6772   6.5761   6.5763   6.6977   6.6978   6.8494   6.8495

     highest occupied level (ev):     7.4919

!    total energy              =    -608.39176662 Ry
     Harris-Foulkes estimate   =    -608.39176662 Ry
     estimated scf accuracy    <          9.2E-09 Ry

     The total energy is the sum of the following terms:

     one-electron contribution =    -306.62227337 Ry
     hartree contribution      =     169.09795325 Ry
     xc contribution           =     -97.78341324 Ry
     ewald contribution        =    -373.08403326 Ry

     convergence has been achieved in   4 iterations

     Forces acting on atoms (cartesian axes, Ry/au):

     atom    1 type  1   force =     0.00000000    0.00304690   -0.00002247
     atom    2 type  1   force =     0.00000000   -0.00306217    0.00002218
     atom    3 type  1   force =     0.00000000    0.00313576    0.00002263
     atom    4 type  1   force =     0.00000000   -0.00306221   -0.00002319
     atom    5 type  2   force =     0.00000000    0.00335503   -0.00002489
     atom    6 type  2   force =     0.00000000   -0.00337760   -0.00002493
     atom    7 type  2   force =     0.00000000    0.00335450    0.00002526
     atom    8 type  2   force =     0.00000000   -0.00339021    0.00002541

     Total force =     0.009126     Total SCF correction =     0.000458


     Computing stress (Cartesian axis) and pressure

          total   stress  (Ry/bohr**3)                   (kbar)     P=  -88.91
  -0.00063280   0.00000000   0.00000000        -93.09      0.00      0.00
   0.00000000  -0.00054745   0.00000000          0.00    -80.53      0.00
   0.00000000   0.00000000  -0.00063303          0.00      0.00    -93.12


     number of scf cycles    =   2
     number of bfgs steps    =   1

     energy   old            =    -608.3916222980 Ry
     energy   new            =    -608.3917666152 Ry

     CASE: energy  _new < energy  _old

     new trust radius        =       0.0054786629 bohr
     new conv_thr            =       0.0000000014 Ry


ATOMIC_POSITIONS (alat)
Mg       0.000000000   0.001136504  -0.000008220
Mg       0.000000000   0.498868814   0.500007948
Mg       0.500000000   0.001154620   0.500008149
Mg       0.500000000   0.498868830  -0.000008263
O        0.500000000   0.001273065  -0.000009258
O        0.000000000   0.498715295  -0.000009283
O        0.000000000   0.001272837   0.500009417
O        0.500000000   0.498710035   0.500009510



     Writing output data file diamond.8.10795760075.70.4.save
     NEW-OLD atomic charge density approx. for the potential

     Check: negative/imaginary core charge=   -0.000007    0.000000

     total cpu time spent up to now is       20.4 secs

     per-process dynamical memory:    52.1 Mb

     Self-consistent Calculation

     iteration #  1     ecut=    70.00 Ry     beta=0.70
     Davidson diagonalization with overlap
     ethr =  1.00E-06,  avg # of iterations =  3.1

     Threshold (ethr) on eigenvalues was too large:
     Diagonalizing with lowered threshold

     Davidson diagonalization with overlap
     ethr =  5.89E-08,  avg # of iterations =  1.1

     total cpu time spent up to now is       23.3 secs

     total energy              =    -608.39185600 Ry
     Harris-Foulkes estimate   =    -608.39188372 Ry
     estimated scf accuracy    <       0.00003790 Ry

     iteration #  2     ecut=    70.00 Ry     beta=0.70
     Davidson diagonalization with overlap
     ethr =  5.92E-08,  avg # of iterations =  2.2

     total cpu time spent up to now is       24.6 secs

     total energy              =    -608.39186744 Ry
     Harris-Foulkes estimate   =    -608.39187130 Ry
     estimated scf accuracy    <       0.00000641 Ry

     iteration #  3     ecut=    70.00 Ry     beta=0.70
     Davidson diagonalization with overlap
     ethr =  1.00E-08,  avg # of iterations =  2.0

     total cpu time spent up to now is       25.8 secs

     total energy              =    -608.39186883 Ry
     Harris-Foulkes estimate   =    -608.39186882 Ry
     estimated scf accuracy    <       0.00000005 Ry

     iteration #  4     ecut=    70.00 Ry     beta=0.70
     Davidson diagonalization with overlap
     ethr =  8.14E-11,  avg # of iterations =  2.9

     total cpu time spent up to now is       27.3 secs

     total energy              =    -608.39186884 Ry
     Harris-Foulkes estimate   =    -608.39186885 Ry
     estimated scf accuracy    <       0.00000002 Ry

     iteration #  5     ecut=    70.00 Ry     beta=0.70
     Davidson diagonalization with overlap
     ethr =  2.90E-11,  avg # of iterations =  2.8

     total cpu time spent up to now is       28.6 secs

     End of self-consistent calculation

          k = 0.0000 0.0000 0.0000 (  5217 PWs)   bands (ev):

   -65.0756 -65.0669 -65.0668 -65.0661 -31.8669 -31.8669 -31.8629 -31.8328
   -31.8328 -31.8310 -31.8310 -31.8279 -31.8278 -31.8099 -31.8098 -31.8029
    -9.4753  -8.0739  -8.0737  -8.0538   3.6263   3.6265   3.6516   6.1960
     6.1963   6.2024   6.2030   6.2517   6.2518   7.4748   7.4920   7.4921

          k = 0.0000 0.0000 0.2500 (  5206 PWs)   bands (ev):

   -65.0743 -65.0680 -65.0668 -65.0662 -31.8613 -31.8592 -31.8572 -31.8382
   -31.8337 -31.8325 -31.8318 -31.8280 -31.8243 -31.8194 -31.8121 -31.8072
    -9.2742  -8.2819  -8.0446  -8.0304   3.9121   3.9356   3.9575   5.6856
     5.6977   6.0016   6.0396   6.3634   6.4088   6.4851   7.2570   7.2815

          k = 0.0000 0.0000-0.5000 (  5246 PWs)   bands (ev):

   -65.0714 -65.0709 -65.0668 -65.0662 -31.8508 -31.8505 -31.8455 -31.8453
   -31.8406 -31.8406 -31.8343 -31.8342 -31.8212 -31.8209 -31.8158 -31.8155
    -8.7818  -8.7817  -8.0110  -8.0109   4.6952   4.6954   4.7147   4.7149
     4.9697   4.9700   5.8281   5.8284   6.7828   6.7829   6.8182   6.8183

          k = 0.0000 0.2520 0.0000 (  5209 PWs)   bands (ev):

   -65.0742 -65.0678 -65.0669 -65.0663 -31.8614 -31.8614 -31.8535 -31.8372
   -31.8371 -31.8303 -31.8296 -31.8287 -31.8286 -31.8133 -31.8123 -31.8123
    -9.2698  -8.2626  -8.0453  -8.0451   3.9172   3.9174   3.9710   5.7283
     5.7284   5.9892   5.9897   6.3591   6.3592   6.4686   7.2708   7.2710

          k = 0.0000 0.2520 0.2500 (  5229 PWs)   bands (ev):

   -65.0731 -65.0679 -65.0676 -65.0666 -31.8594 -31.8569 -31.8549 -31.8438
   -31.8352 -31.8341 -31.8302 -31.8268 -31.8244 -31.8226 -31.8163 -31.8075
    -9.0869  -8.2179  -8.2036  -8.0486   4.0240   4.0303   4.1923   4.9277
     5.6703   5.8835   5.9207   6.3043   6.3178   6.4281   7.0042   7.3249

          k = 0.0000 0.2520-0.5000 (  5240 PWs)   bands (ev):

   -65.0707 -65.0703 -65.0674 -65.0669 -31.8533 -31.8532 -31.8478 -31.8477
   -31.8464 -31.8461 -31.8257 -31.8255 -31.8233 -31.8232 -31.8126 -31.8124
    -8.6477  -8.6476  -8.0982  -8.0981   4.2791   4.2792   4.5972   4.5975
     4.9454   4.9456   6.3977   6.3980   6.4261   6.4263   6.9146   6.9147

          k = 0.0000-0.5040 0.0000 (  5222 PWs)   bands (ev):

   -65.0712 -65.0708 -65.0669 -65.0664 -31.8499 -31.8499 -31.8492 -31.8491
   -31.8364 -31.8354 -31.8267 -31.8266 -31.8221 -31.8221 -31.8216 -31.8215
    -8.7759  -8.7606  -8.0164  -8.0162   4.7041   4.7043   4.7287   4.7288
     4.9574   4.9670   5.7888   5.7892   6.7785   6.7788   6.7933   6.7936

          k = 0.0000-0.5040 0.2500 (  5232 PWs)   bands (ev):

   -65.0706 -65.0702 -65.0675 -65.0670 -31.8551 -31.8545 -31.8460 -31.8458
   -31.8456 -31.8450 -31.8265 -31.8258 -31.8205 -31.8201 -31.8154 -31.8153
    -8.6454  -8.6319  -8.1043  -8.1017   4.2737   4.2835   4.5862   4.5966
     4.9494   4.9732   6.3706   6.3794   6.3964   6.4137   6.9209   6.9256

          k = 0.0000-0.5040-0.5000 (  5240 PWs)   bands (ev):

   -65.0691 -65.0691 -65.0690 -65.0681 -31.8552 -31.8551 -31.8547 -31.8547
   -31.8364 -31.8361 -31.8357 -31.8354 -31.8147 -31.8145 -31.8142 -31.8141
    -8.3537  -8.3536  -8.3452  -8.3451   4.1427   4.1429   4.1464   4.1465
     5.6070   5.6072   5.6283   5.6284   6.8943   6.8945   6.9011   6.9013

          k = 0.2500 0.0000 0.0000 (  5206 PWs)   bands (ev):

   -65.0743 -65.0680 -65.0668 -65.0662 -31.8613 -31.8592 -31.8572 -31.8382
   -31.8336 -31.8325 -31.8318 -31.8280 -31.8243 -31.8193 -31.8122 -31.8072
    -9.2742  -8.2817  -8.0447  -8.0304   3.9119   3.9356   3.9576   5.6859
     5.6980   6.0012   6.0395   6.3630   6.4088   6.4850   7.2569   7.2816

          k = 0.2500 0.0000 0.2500 (  5233 PWs)   bands (ev):

   -65.0732 -65.0680 -65.0676 -65.0665 -31.8594 -31.8593 -31.8524 -31.8464
   -31.8320 -31.8296 -31.8296 -31.8280 -31.8269 -31.8268 -31.8115 -31.8103
    -9.0908  -8.2184  -8.2182  -8.0390   4.0289   4.0290   4.2096   4.9271
     5.6935   5.8910   5.8915   6.3408   6.3409   6.4023   6.9860   7.3283

          k = 0.2500 0.0000-0.5000 (  5240 PWs)   bands (ev):

   -65.0707 -65.0703 -65.0674 -65.0669 -31.8562 -31.8560 -31.8482 -31.8482
   -31.8411 -31.8409 -31.8257 -31.8257 -31.8205 -31.8202 -31.8168 -31.8166
    -8.6501  -8.6500  -8.1010  -8.1009   4.2898   4.2899   4.6157   4.6159
     4.9586   4.9588   6.3796   6.3799   6.4023   6.4024   6.9287   6.9288

          k = 0.2500 0.2520 0.0000 (  5229 PWs)   bands (ev):

   -65.0731 -65.0679 -65.0676 -65.0666 -31.8594 -31.8570 -31.8549 -31.8438
   -31.8353 -31.8341 -31.8302 -31.8268 -31.8244 -31.8226 -31.8164 -31.8075
    -9.0869  -8.2178  -8.2036  -8.0487   4.0240   4.0303   4.1921   4.9277
     5.6701   5.8837   5.9207   6.3042   6.3175   6.4283   7.0044   7.3249

          k = 0.2500 0.2520 0.2500 (  5234 PWs)   bands (ev):

   -65.0722 -65.0680 -65.0679 -65.0672 -31.8624 -31.8623 -31.8606 -31.8439
   -31.8321 -31.8320 -31.8312 -31.8252 -31.8211 -31.8211 -31.8139 -31.8094
    -8.9236  -8.1853  -8.1850  -8.1750   3.8677   3.8709   3.8710   4.9325
     5.6888   5.6890   5.7008   6.5245   6.5467   6.5470   7.1775   7.1798

          k = 0.2500 0.2520-0.5000 (  5228 PWs)   bands (ev):

   -65.0702 -65.0698 -65.0679 -65.0673 -31.8644 -31.8643 -31.8581 -31.8580
   -31.8309 -31.8307 -31.8215 -31.8214 -31.8190 -31.8188 -31.8145 -31.8143
    -8.5413  -8.5412  -8.1490  -8.1490   3.6951   3.6952   4.0628   4.0629
     5.6774   5.6774   6.5766   6.5768   6.6977   6.6979   6.8496   6.8497

          k = 0.2500-0.5040 0.0000 (  5232 PWs)   bands (ev):

   -65.0706 -65.0702 -65.0675 -65.0670 -31.8551 -31.8545 -31.8460 -31.8459
   -31.8456 -31.8450 -31.8265 -31.8258 -31.8205 -31.8201 -31.8153 -31.8152
    -8.6454  -8.6319  -8.1043  -8.1016   4.2736   4.2834   4.5860   4.5964
     4.9493   4.9731   6.3707   6.3795   6.3966   6.4139   6.9208   6.9255

          k = 0.2500-0.5040 0.2500 (  5226 PWs)   bands (ev):

   -65.0701 -65.0697 -65.0680 -65.0674 -31.8652 -31.8651 -31.8572 -31.8570
   -31.8336 -31.8335 -31.8195 -31.8191 -31.8174 -31.8174 -31.8156 -31.8153
    -8.5398  -8.5283  -8.1517  -8.1515   3.6933   3.6933   4.0451   4.0559
     5.6787   5.6788   6.5704   6.5706   6.7062   6.7113   6.8315   6.8421

          k = 0.2500-0.5040-0.5000 (  5228 PWs)   bands (ev):

   -65.0691 -65.0690 -65.0690 -65.0681 -31.8676 -31.8673 -31.8673 -31.8673
   -31.8239 -31.8237 -31.8235 -31.8234 -31.8137 -31.8136 -31.8134 -31.8132
    -8.3177  -8.3176  -8.3116  -8.3115   3.5074   3.5075   3.5128   3.5129
     6.3528   6.3530   6.3651   6.3652   6.8964   6.8966   6.9012   6.9014

          k =-0.5000 0.0000 0.0000 (  5246 PWs)   bands (ev):

   -65.0714 -65.0709 -65.0668 -65.0662 -31.8508 -31.8506 -31.8455 -31.8453
   -31.8406 -31.8406 -31.8342 -31.8342 -31.8212 -31.8210 -31.8158 -31.8156
    -8.7817  -8.7816  -8.0110  -8.0109   4.6953   4.6954   4.7149   4.7150
     4.9696   4.9699   5.8277   5.8281   6.7826   6.7826   6.8183   6.8183

          k =-0.5000 0.0000 0.2500 (  5240 PWs)   bands (ev):

   -65.0707 -65.0703 -65.0674 -65.0669 -31.8562 -31.8561 -31.8482 -31.8481
   -31.8411 -31.8409 -31.8257 -31.8257 -31.8205 -31.8202 -31.8168 -31.8166
    -8.6500  -8.6499  -8.1011  -8.1009   4.2899   4.2899   4.6157   4.6159
     4.9588   4.9588   6.3795   6.3797   6.4022   6.4022   6.9288   6.9288

          k =-0.5000 0.0000-0.5000 (  5272 PWs)   bands (ev):

   -65.0691 -65.0691 -65.0690 -65.0681 -31.8572 -31.8570 -31.8569 -31.8569
   -31.8319 -31.8317 -31.8317 -31.8314 -31.8181 -31.8179 -31.8178 -31.8178
    -8.3549  -8.3547  -8.3546  -8.3545   4.1738   4.1739   4.1739   4.1741
     5.6140   5.6140   5.6144   5.6144   6.8863   6.8863   6.8863   6.8866

          k =-0.5000 0.2520 0.0000 (  5240 PWs)   bands (ev):

   -65.0707 -65.0703 -65.0674 -65.0669 -31.8533 -31.8532 -31.8478 -31.8477
   -31.8464 -31.8462 -31.8258 -31.8255 -31.8232 -31.8231 -31.8126 -31.8124
    -8.6476  -8.6475  -8.0982  -8.0981   4.2790   4.2791   4.5970   4.5973
     4.9455   4.9455   6.3977   6.3979   6.4262   6.4262   6.9146   6.9146

          k =-0.5000 0.2520 0.2500 (  5228 PWs)   bands (ev):

   -65.0702 -65.0698 -65.0679 -65.0673 -31.8644 -31.8643 -31.8581 -31.8580
   -31.8310 -31.8307 -31.8215 -31.8214 -31.8190 -31.8188 -31.8145 -31.8143
    -8.5413  -8.5412  -8.1491  -8.1490   3.6951   3.6951   4.0627   4.0628
     5.6774   5.6775   6.5765   6.5768   6.6978   6.6980   6.8495   6.8496

          k =-0.5000 0.2520-0.5000 (  5232 PWs)   bands (ev):

   -65.0691 -65.0690 -65.0690 -65.0681 -31.8679 -31.8677 -31.8677 -31.8677
   -31.8200 -31.8198 -31.8198 -31.8196 -31.8174 -31.8172 -31.8171 -31.8171
    -8.3175  -8.3173  -8.3172  -8.3172   3.5198   3.5199   3.5199   3.5200
     6.3678   6.3679   6.3681   6.3681   6.8876   6.8876   6.8876   6.8879

          k =-0.5000-0.5040 0.0000 (  5240 PWs)   bands (ev):

   -65.0691 -65.0691 -65.0690 -65.0681 -31.8552 -31.8551 -31.8547 -31.8547
   -31.8364 -31.8362 -31.8357 -31.8354 -31.8147 -31.8145 -31.8142 -31.8141
    -8.3536  -8.3535  -8.3452  -8.3451   4.1425   4.1426   4.1461   4.1462
     5.6072   5.6072   5.6283   5.6284   6.8944   6.8945   6.9012   6.9014

          k =-0.5000-0.5040 0.2500 (  5228 PWs)   bands (ev):

   -65.0691 -65.0690 -65.0690 -65.0681 -31.8676 -31.8673 -31.8673 -31.8673
   -31.8239 -31.8237 -31.8236 -31.8234 -31.8137 -31.8135 -31.8133 -31.8132
    -8.3177  -8.3176  -8.3116  -8.3115   3.5073   3.5074   3.5128   3.5128
     6.3528   6.3529   6.3651   6.3651   6.8965   6.8967   6.9013   6.9015

          k =-0.5000-0.5040-0.5000 (  5232 PWs)   bands (ev):

   -65.0690 -65.0690 -65.0690 -65.0681 -31.8754 -31.8752 -31.8751 -31.8751
   -31.8170 -31.8167 -31.8167 -31.8167 -31.8129 -31.8127 -31.8127 -31.8125
    -8.2795  -8.2793  -8.2792  -8.2792   3.0980   3.0981   3.0981   3.0982
     6.8888   6.8888   6.8888   6.8891   6.9033   6.9034   6.9036   6.9036

          k = 0.0000 0.2520-0.2500 (  5229 PWs)   bands (ev):

   -65.0731 -65.0679 -65.0676 -65.0666 -31.8594 -31.8569 -31.8549 -31.8438
   -31.8352 -31.8341 -31.8302 -31.8268 -31.8244 -31.8226 -31.8163 -31.8075
    -9.0869  -8.2179  -8.2036  -8.0486   4.0240   4.0303   4.1923   4.9277
     5.6703   5.8835   5.9207   6.3043   6.3178   6.4281   7.0042   7.3249

          k =-0.2500 0.2520-0.2500 (  5234 PWs)   bands (ev):

   -65.0722 -65.0680 -65.0679 -65.0672 -31.8624 -31.8623 -31.8606 -31.8439
   -31.8321 -31.8320 -31.8312 -31.8252 -31.8211 -31.8211 -31.8139 -31.8094
    -8.9236  -8.1853  -8.1850  -8.1750   3.8677   3.8709   3.8710   4.9325
     5.6888   5.6890   5.7008   6.5245   6.5467   6.5470   7.1775   7.1798

          k = 0.5000 0.2520-0.2500 (  5228 PWs)   bands (ev):

   -65.0702 -65.0698 -65.0679 -65.0673 -31.8644 -31.8643 -31.8581 -31.8580
   -31.8310 -31.8307 -31.8215 -31.8214 -31.8190 -31.8188 -31.8145 -31.8143
    -8.5413  -8.5412  -8.1491  -8.1490   3.6951   3.6951   4.0627   4.0628
     5.6774   5.6775   6.5765   6.5768   6.6978   6.6980   6.8495   6.8496

     highest occupied level (ev):     7.4921

!    total energy              =    -608.39186885 Ry
     Harris-Foulkes estimate   =    -608.39186885 Ry
     estimated scf accuracy    <          1.4E-09 Ry

     The total energy is the sum of the following terms:

     one-electron contribution =    -306.60317160 Ry
     hartree contribution      =     169.08794996 Ry
     xc contribution           =     -97.78303544 Ry
     ewald contribution        =    -373.09361177 Ry

     convergence has been achieved in   5 iterations

     Forces acting on atoms (cartesian axes, Ry/au):

     atom    1 type  1   force =     0.00000000    0.00161534   -0.00001297
     atom    2 type  1   force =     0.00000000   -0.00171122    0.00001357
     atom    3 type  1   force =     0.00000000    0.00177591    0.00001370
     atom    4 type  1   force =     0.00000000   -0.00171092   -0.00001420
     atom    5 type  2   force =     0.00000000    0.00166601   -0.00001348
     atom    6 type  2   force =     0.00000000   -0.00165135   -0.00001348
     atom    7 type  2   force =     0.00000000    0.00166596    0.00001345
     atom    8 type  2   force =     0.00000000   -0.00164973    0.00001341

     Total force =     0.004756     Total SCF correction =     0.000243


     Computing stress (Cartesian axis) and pressure

          total   stress  (Ry/bohr**3)                   (kbar)     P=  -89.12
  -0.00063357   0.00000000   0.00000000        -93.20      0.00      0.00
   0.00000000  -0.00055013   0.00000000          0.00    -80.93      0.00
   0.00000000   0.00000000  -0.00063380          0.00      0.00    -93.24


     number of scf cycles    =   3
     number of bfgs steps    =   2

     energy   old            =    -608.3917666152 Ry
     energy   new            =    -608.3918688455 Ry

     CASE: energy  _new < energy  _old

     new trust radius        =       0.0058076238 bohr
     new conv_thr            =       0.0000000010 Ry


ATOMIC_POSITIONS (alat)
Mg       0.000000000   0.001804219  -0.000013416
Mg       0.000000000   0.498175251   0.500013272
Mg       0.500000000   0.001870887   0.500013545
Mg       0.500000000   0.498175342  -0.000013833
O        0.500000000   0.001979462  -0.000014785
O        0.000000000   0.498010776  -0.000014812
O        0.000000000   0.001979178   0.500014967
O        0.500000000   0.498004886   0.500015062



     Writing output data file diamond.8.10795760075.70.4.save
     NEW-OLD atomic charge density approx. for the potential

     Check: negative/imaginary core charge=   -0.000007    0.000000

     total cpu time spent up to now is       29.4 secs

     per-process dynamical memory:    52.1 Mb

     Self-consistent Calculation

     iteration #  1     ecut=    70.00 Ry     beta=0.70
     Davidson diagonalization with overlap
     ethr =  1.00E-06,  avg # of iterations =  3.1

     Threshold (ethr) on eigenvalues was too large:
     Diagonalizing with lowered threshold

     Davidson diagonalization with overlap
     ethr =  6.69E-08,  avg # of iterations =  1.1

     total cpu time spent up to now is       32.3 secs

     total energy              =    -608.39189247 Ry
     Harris-Foulkes estimate   =    -608.39192397 Ry
     estimated scf accuracy    <       0.00004309 Ry

     iteration #  2     ecut=    70.00 Ry     beta=0.70
     Davidson diagonalization with overlap
     ethr =  6.73E-08,  avg # of iterations =  2.2

     total cpu time spent up to now is       33.6 secs

     total energy              =    -608.39190552 Ry
     Harris-Foulkes estimate   =    -608.39190988 Ry
     estimated scf accuracy    <       0.00000726 Ry

     iteration #  3     ecut=    70.00 Ry     beta=0.70
     Davidson diagonalization with overlap
     ethr =  1.13E-08,  avg # of iterations =  2.0

     total cpu time spent up to now is       34.8 secs

     total energy              =    -608.39190709 Ry
     Harris-Foulkes estimate   =    -608.39190707 Ry
     estimated scf accuracy    <       0.00000005 Ry

     iteration #  4     ecut=    70.00 Ry     beta=0.70
     Davidson diagonalization with overlap
     ethr =  8.34E-11,  avg # of iterations =  2.6

     total cpu time spent up to now is       36.2 secs

     total energy              =    -608.39190710 Ry
     Harris-Foulkes estimate   =    -608.39190711 Ry
     estimated scf accuracy    <          8.4E-09 Ry

     iteration #  5     ecut=    70.00 Ry     beta=0.70
     Davidson diagonalization with overlap
     ethr =  1.31E-11,  avg # of iterations =  2.9

     total cpu time spent up to now is       37.5 secs

     End of self-consistent calculation

          k = 0.0000 0.0000 0.0000 (  5217 PWs)   bands (ev):

   -65.0756 -65.0669 -65.0668 -65.0661 -31.8669 -31.8669 -31.8629 -31.8328
   -31.8328 -31.8311 -31.8310 -31.8279 -31.8279 -31.8099 -31.8099 -31.8029
    -9.4752  -8.0738  -8.0737  -8.0538   3.6263   3.6265   3.6516   6.1960
     6.1964   6.2024   6.2029   6.2517   6.2518   7.4749   7.4920   7.4921

          k = 0.0000 0.0000 0.2500 (  5206 PWs)   bands (ev):

   -65.0743 -65.0681 -65.0668 -65.0662 -31.8613 -31.8593 -31.8572 -31.8382
   -31.8337 -31.8325 -31.8319 -31.8280 -31.8243 -31.8194 -31.8122 -31.8072
    -9.2741  -8.2818  -8.0445  -8.0303   3.9121   3.9355   3.9575   5.6857
     5.6976   6.0017   6.0397   6.3633   6.4088   6.4851   7.2570   7.2815

          k = 0.0000 0.0000-0.5000 (  5246 PWs)   bands (ev):

   -65.0714 -65.0710 -65.0668 -65.0663 -31.8508 -31.8506 -31.8455 -31.8452
   -31.8407 -31.8407 -31.8343 -31.8343 -31.8212 -31.8210 -31.8158 -31.8156
    -8.7817  -8.7816  -8.0110  -8.0109   4.6954   4.6954   4.7148   4.7148
     4.9697   4.9700   5.8281   5.8285   6.7827   6.7828   6.8183   6.8183

          k = 0.0000 0.2520 0.0000 (  5209 PWs)   bands (ev):

   -65.0743 -65.0679 -65.0669 -65.0664 -31.8615 -31.8614 -31.8535 -31.8372
   -31.8372 -31.8303 -31.8297 -31.8287 -31.8286 -31.8133 -31.8124 -31.8123
    -9.2697  -8.2626  -8.0452  -8.0451   3.9173   3.9175   3.9709   5.7283
     5.7284   5.9893   5.9896   6.3592   6.3593   6.4687   7.2708   7.2710

          k = 0.0000 0.2520 0.2500 (  5229 PWs)   bands (ev):

   -65.0732 -65.0680 -65.0676 -65.0667 -31.8594 -31.8570 -31.8549 -31.8438
   -31.8352 -31.8341 -31.8302 -31.8269 -31.8244 -31.8226 -31.8164 -31.8076
    -9.0868  -8.2179  -8.2036  -8.0485   4.0241   4.0303   4.1924   4.9277
     5.6704   5.8836   5.9207   6.3045   6.3178   6.4279   7.0042   7.3249

          k = 0.0000 0.2520-0.5000 (  5240 PWs)   bands (ev):

   -65.0707 -65.0703 -65.0675 -65.0669 -31.8533 -31.8532 -31.8478 -31.8478
   -31.8464 -31.8462 -31.8258 -31.8255 -31.8233 -31.8232 -31.8126 -31.8124
    -8.6476  -8.6475  -8.0982  -8.0981   4.2791   4.2791   4.5973   4.5975
     4.9455   4.9456   6.3978   6.3980   6.4261   6.4262   6.9146   6.9146

          k = 0.0000-0.5040 0.0000 (  5222 PWs)   bands (ev):

   -65.0713 -65.0708 -65.0669 -65.0664 -31.8497 -31.8497 -31.8495 -31.8494
   -31.8360 -31.8358 -31.8267 -31.8266 -31.8220 -31.8219 -31.8218 -31.8218
    -8.7683  -8.7681  -8.0163  -8.0163   4.7161   4.7162   4.7168   4.7169
     4.9621   4.9623   5.7889   5.7891   6.7859   6.7860   6.7862   6.7863

          k = 0.0000-0.5040 0.2500 (  5232 PWs)   bands (ev):

   -65.0706 -65.0702 -65.0676 -65.0670 -31.8549 -31.8548 -31.8459 -31.8458
   -31.8455 -31.8453 -31.8263 -31.8261 -31.8204 -31.8203 -31.8154 -31.8153
    -8.6388  -8.6385  -8.1030  -8.1029   4.2784   4.2789   4.5912   4.5915
     4.9610   4.9617   6.3749   6.3751   6.4050   6.4052   6.9232   6.9234

          k = 0.0000-0.5040-0.5000 (  5240 PWs)   bands (ev):

   -65.0691 -65.0691 -65.0691 -65.0681 -31.8552 -31.8550 -31.8548 -31.8548
   -31.8361 -31.8359 -31.8359 -31.8357 -31.8146 -31.8145 -31.8143 -31.8143
    -8.3495  -8.3494  -8.3493  -8.3492   4.1444   4.1444   4.1447   4.1449
     5.6174   5.6175   5.6180   5.6182   6.8976   6.8978   6.8978   6.8980

          k = 0.2500 0.0000 0.0000 (  5206 PWs)   bands (ev):

   -65.0743 -65.0681 -65.0668 -65.0662 -31.8614 -31.8592 -31.8572 -31.8383
   -31.8337 -31.8325 -31.8318 -31.8281 -31.8243 -31.8194 -31.8122 -31.8072
    -9.2741  -8.2817  -8.0446  -8.0303   3.9120   3.9356   3.9576   5.6860
     5.6980   6.0013   6.0396   6.3629   6.4088   6.4850   7.2570   7.2816

          k = 0.2500 0.0000 0.2500 (  5233 PWs)   bands (ev):

   -65.0732 -65.0680 -65.0677 -65.0666 -31.8595 -31.8594 -31.8524 -31.8464
   -31.8320 -31.8296 -31.8296 -31.8280 -31.8269 -31.8268 -31.8115 -31.8104
    -9.0907  -8.2183  -8.2182  -8.0390   4.0290   4.0290   4.2096   4.9272
     5.6935   5.8910   5.8914   6.3408   6.3409   6.4023   6.9860   7.3283

          k = 0.2500 0.0000-0.5000 (  5240 PWs)   bands (ev):

   -65.0707 -65.0703 -65.0675 -65.0669 -31.8562 -31.8561 -31.8482 -31.8482
   -31.8412 -31.8409 -31.8258 -31.8257 -31.8205 -31.8203 -31.8168 -31.8166
    -8.6500  -8.6499  -8.1010  -8.1009   4.2899   4.2900   4.6158   4.6161
     4.9586   4.9586   6.3805   6.3807   6.4016   6.4016   6.9287   6.9288

          k = 0.2500 0.2520 0.0000 (  5229 PWs)   bands (ev):

   -65.0732 -65.0680 -65.0676 -65.0667 -31.8594 -31.8570 -31.8549 -31.8438
   -31.8353 -31.8342 -31.8302 -31.8268 -31.8244 -31.8226 -31.8164 -31.8075
    -9.0868  -8.2178  -8.2036  -8.0486   4.0241   4.0303   4.1922   4.9277
     5.6702   5.8838   5.9206   6.3043   6.3175   6.4281   7.0043   7.3249

          k = 0.2500 0.2520 0.2500 (  5234 PWs)   bands (ev):

   -65.0723 -65.0680 -65.0679 -65.0672 -31.8625 -31.8623 -31.8606 -31.8439
   -31.8321 -31.8320 -31.8312 -31.8253 -31.8211 -31.8211 -31.8139 -31.8095
    -8.9235  -8.1851  -8.1851  -8.1750   3.8677   3.8710   3.8710   4.9325
     5.6889   5.6890   5.7008   6.5245   6.5467   6.5469   7.1775   7.1798

          k = 0.2500 0.2520-0.5000 (  5228 PWs)   bands (ev):

   -65.0702 -65.0698 -65.0679 -65.0674 -31.8645 -31.8643 -31.8581 -31.8580
   -31.8310 -31.8307 -31.8215 -31.8215 -31.8190 -31.8189 -31.8145 -31.8143
    -8.5413  -8.5412  -8.1490  -8.1489   3.6951   3.6952   4.0628   4.0629
     5.6774   5.6775   6.5767   6.5769   6.6977   6.6979   6.8496   6.8496

          k = 0.2500-0.5040 0.0000 (  5232 PWs)   bands (ev):

   -65.0706 -65.0702 -65.0676 -65.0670 -31.8549 -31.8547 -31.8458 -31.8458
   -31.8456 -31.8454 -31.8263 -31.8261 -31.8203 -31.8203 -31.8154 -31.8153
    -8.6387  -8.6385  -8.1029  -8.1029   4.2783   4.2788   4.5910   4.5914
     4.9609   4.9616   6.3750   6.3752   6.4052   6.4054   6.9231   6.9233

          k = 0.2500-0.5040 0.2500 (  5226 PWs)   bands (ev):

   -65.0702 -65.0698 -65.0680 -65.0674 -31.8652 -31.8651 -31.8572 -31.8571
   -31.8337 -31.8335 -31.8194 -31.8192 -31.8175 -31.8174 -31.8155 -31.8155
    -8.5341  -8.5339  -8.1516  -8.1515   3.6933   3.6934   4.0504   4.0506
     5.6788   5.6788   6.5704   6.5705   6.7086   6.7090   6.8368   6.8369

          k = 0.2500-0.5040-0.5000 (  5228 PWs)   bands (ev):

   -65.0691 -65.0691 -65.0691 -65.0681 -31.8676 -31.8674 -31.8673 -31.8673
   -31.8239 -31.8236 -31.8236 -31.8235 -31.8137 -31.8135 -31.8134 -31.8133
    -8.3147  -8.3146  -8.3146  -8.3144   3.5100   3.5101   3.5102   3.5103
     6.3589   6.3590   6.3592   6.3593   6.8988   6.8989   6.8989   6.8991

          k =-0.5000 0.0000 0.0000 (  5246 PWs)   bands (ev):

   -65.0714 -65.0710 -65.0668 -65.0663 -31.8508 -31.8506 -31.8455 -31.8452
   -31.8407 -31.8406 -31.8342 -31.8342 -31.8213 -31.8210 -31.8158 -31.8156
    -8.7816  -8.7816  -8.0110  -8.0109   4.6954   4.6954   4.7149   4.7149
     4.9696   4.9699   5.8279   5.8282   6.7825   6.7825   6.8183   6.8183

          k =-0.5000 0.0000 0.2500 (  5240 PWs)   bands (ev):

   -65.0707 -65.0703 -65.0675 -65.0669 -31.8563 -31.8561 -31.8482 -31.8481
   -31.8411 -31.8409 -31.8258 -31.8257 -31.8205 -31.8203 -31.8168 -31.8166
    -8.6499  -8.6499  -8.1010  -8.1009   4.2899   4.2900   4.6158   4.6160
     4.9587   4.9587   6.3803   6.3805   6.4014   6.4014   6.9288   6.9289

          k =-0.5000 0.0000-0.5000 (  5272 PWs)   bands (ev):

   -65.0691 -65.0691 -65.0691 -65.0681 -31.8572 -31.8570 -31.8569 -31.8569
   -31.8319 -31.8317 -31.8317 -31.8314 -31.8182 -31.8179 -31.8179 -31.8179
    -8.3547  -8.3547  -8.3546  -8.3545   4.1738   4.1740   4.1740   4.1741
     5.6140   5.6141   5.6142   5.6143   6.8862   6.8865   6.8865   6.8866

          k =-0.5000 0.2520 0.0000 (  5240 PWs)   bands (ev):

   -65.0707 -65.0703 -65.0675 -65.0669 -31.8533 -31.8532 -31.8478 -31.8478
   -31.8464 -31.8462 -31.8258 -31.8256 -31.8232 -31.8232 -31.8126 -31.8124
    -8.6475  -8.6474  -8.0982  -8.0981   4.2790   4.2791   4.5971   4.5973
     4.9456   4.9456   6.3977   6.3980   6.4262   6.4262   6.9145   6.9146

          k =-0.5000 0.2520 0.2500 (  5228 PWs)   bands (ev):

   -65.0702 -65.0698 -65.0679 -65.0674 -31.8645 -31.8643 -31.8581 -31.8580
   -31.8310 -31.8308 -31.8215 -31.8214 -31.8190 -31.8189 -31.8145 -31.8143
    -8.5412  -8.5411  -8.1490  -8.1490   3.6951   3.6952   4.0627   4.0628
     5.6774   5.6775   6.5766   6.5769   6.6978   6.6980   6.8495   6.8495

          k =-0.5000 0.2520-0.5000 (  5232 PWs)   bands (ev):

   -65.0691 -65.0691 -65.0691 -65.0681 -31.8680 -31.8677 -31.8677 -31.8677
   -31.8200 -31.8198 -31.8198 -31.8196 -31.8175 -31.8172 -31.8172 -31.8172
    -8.3173  -8.3173  -8.3172  -8.3172   3.5198   3.5200   3.5200   3.5200
     6.3679   6.3679   6.3681   6.3681   6.8875   6.8877   6.8877   6.8879

          k =-0.5000-0.5040 0.0000 (  5240 PWs)   bands (ev):

   -65.0691 -65.0691 -65.0691 -65.0681 -31.8551 -31.8550 -31.8548 -31.8548
   -31.8362 -31.8360 -31.8360 -31.8357 -31.8146 -31.8144 -31.8143 -31.8142
    -8.3494  -8.3494  -8.3493  -8.3492   4.1441   4.1442   4.1445   4.1447
     5.6174   5.6175   5.6181   5.6182   6.8978   6.8979   6.8979   6.8981

          k =-0.5000-0.5040 0.2500 (  5228 PWs)   bands (ev):

   -65.0691 -65.0691 -65.0691 -65.0681 -31.8676 -31.8674 -31.8673 -31.8673
   -31.8239 -31.8237 -31.8237 -31.8235 -31.8137 -31.8135 -31.8134 -31.8133
    -8.3146  -8.3146  -8.3145  -8.3144   3.5100   3.5100   3.5101   3.5103
     6.3588   6.3589   6.3592   6.3592   6.8989   6.8990   6.8990   6.8992

          k =-0.5000-0.5040-0.5000 (  5232 PWs)   bands (ev):

   -65.0691 -65.0691 -65.0691 -65.0681 -31.8754 -31.8752 -31.8752 -31.8751
   -31.8170 -31.8168 -31.8167 -31.8167 -31.8129 -31.8127 -31.8127 -31.8125
    -8.2794  -8.2793  -8.2793  -8.2792   3.0980   3.0981   3.0981   3.0982
     6.8887   6.8890   6.8890   6.8891   6.9034   6.9035   6.9036   6.9036

          k = 0.0000 0.2520-0.2500 (  5229 PWs)   bands (ev):

   -65.0732 -65.0680 -65.0676 -65.0667 -31.8594 -31.8570 -31.8549 -31.8438
   -31.8352 -31.8341 -31.8302 -31.8269 -31.8244 -31.8226 -31.8164 -31.8076
    -9.0868  -8.2179  -8.2036  -8.0485   4.0241   4.0303   4.1924   4.9277
     5.6704   5.8836   5.9207   6.3045   6.3178   6.4279   7.0042   7.3249

          k =-0.2500 0.2520-0.2500 (  5234 PWs)   bands (ev):

   -65.0723 -65.0680 -65.0679 -65.0672 -31.8625 -31.8623 -31.8606 -31.8439
   -31.8321 -31.8320 -31.8312 -31.8253 -31.8211 -31.8211 -31.8139 -31.8095
    -8.9235  -8.1851  -8.1851  -8.1750   3.8677   3.8710   3.8710   4.9325
     5.6889   5.6890   5.7008   6.5245   6.5467   6.5469   7.1775   7.1798

          k = 0.5000 0.2520-0.2500 (  5228 PWs)   bands (ev):

   -65.0702 -65.0698 -65.0679 -65.0674 -31.8645 -31.8643 -31.8581 -31.8580
   -31.8310 -31.8308 -31.8215 -31.8214 -31.8190 -31.8189 -31.8145 -31.8143
    -8.5412  -8.5411  -8.1490  -8.1490   3.6951   3.6952   4.0627   4.0628
     5.6774   5.6775   6.5766   6.5769   6.6978   6.6980   6.8495   6.8495

     highest occupied level (ev):     7.4921

!    total energy              =    -608.39190711 Ry
     Harris-Foulkes estimate   =    -608.39190711 Ry
     estimated scf accuracy    <          9.9E-10 Ry

     The total energy is the sum of the following terms:

     one-electron contribution =    -306.59529408 Ry
     hartree contribution      =     169.08398034 Ry
     xc contribution           =     -97.78295311 Ry
     ewald contribution        =    -373.09764025 Ry

     convergence has been achieved in   5 iterations

     Forces acting on atoms (cartesian axes, Ry/au):

     atom    1 type  1   force =     0.00000000    0.00002727   -0.00000178
     atom    2 type  1   force =     0.00000000   -0.00017584    0.00000304
     atom    3 type  1   force =     0.00000000    0.00021885    0.00000293
     atom    4 type  1   force =     0.00000000   -0.00017549   -0.00000330
     atom    5 type  2   force =     0.00000000   -0.00010296   -0.00000076
     atom    6 type  2   force =     0.00000000    0.00014199   -0.00000081
     atom    7 type  2   force =     0.00000000   -0.00010236    0.00000045
     atom    8 type  2   force =     0.00000000    0.00016854    0.00000023

     Total force =     0.000424     Total SCF correction =     0.000299
     SCF correction compared to forces is large: reduce conv_thr to get better values


     Computing stress (Cartesian axis) and pressure

          total   stress  (Ry/bohr**3)                   (kbar)     P=  -89.16
  -0.00063359   0.00000000   0.00000000        -93.20      0.00      0.00
   0.00000000  -0.00055095   0.00000000          0.00    -81.05      0.00
   0.00000000   0.00000000  -0.00063382          0.00      0.00    -93.24


     number of scf cycles    =   4
     number of bfgs steps    =   3

     energy   old            =    -608.3918688455 Ry
     energy   new            =    -608.3919071054 Ry

     CASE: energy  _new < energy  _old

     new trust radius        =       0.0002531280 bohr
     new conv_thr            =       0.0000000002 Ry


ATOMIC_POSITIONS (alat)
Mg       0.000000000   0.001811483  -0.000013666
Mg       0.000000000   0.498149479   0.500013679
Mg       0.500000000   0.001902104   0.500013938
Mg       0.500000000   0.498149614  -0.000014272
O        0.500000000   0.001970905  -0.000014912
O        0.000000000   0.498024164  -0.000014945
O        0.000000000   0.001970694   0.500015054
O        0.500000000   0.498021557   0.500015123



     Writing output data file diamond.8.10795760075.70.4.save
     NEW-OLD atomic charge density approx. for the potential

     Check: negative/imaginary core charge=   -0.000007    0.000000

     total cpu time spent up to now is       38.3 secs

     per-process dynamical memory:    52.1 Mb

     Self-consistent Calculation

     iteration #  1     ecut=    70.00 Ry     beta=0.70
     Davidson diagonalization with overlap
     ethr =  1.00E-06,  avg # of iterations =  2.0

     Threshold (ethr) on eigenvalues was too large:
     Diagonalizing with lowered threshold

     Davidson diagonalization with overlap
     ethr =  5.87E-12,  avg # of iterations =  3.8

     total cpu time spent up to now is       41.6 secs

     total energy              =    -608.39190726 Ry
     Harris-Foulkes estimate   =    -608.39190726 Ry
     estimated scf accuracy    <          7.7E-09 Ry

     iteration #  2     ecut=    70.00 Ry     beta=0.70
     Davidson diagonalization with overlap
     ethr =  1.21E-11,  avg # of iterations =  3.0

     total cpu time spent up to now is       43.0 secs

     total energy              =    -608.39190726 Ry
     Harris-Foulkes estimate   =    -608.39190726 Ry
     estimated scf accuracy    <          6.1E-09 Ry

     iteration #  3     ecut=    70.00 Ry     beta=0.70
     Davidson diagonalization with overlap
     ethr =  9.47E-12,  avg # of iterations =  2.9

     total cpu time spent up to now is       44.3 secs

     total energy              =    -608.39190726 Ry
     Harris-Foulkes estimate   =    -608.39190726 Ry
     estimated scf accuracy    <          5.8E-10 Ry

     iteration #  4     ecut=    70.00 Ry     beta=0.70
     Davidson diagonalization with overlap
     ethr =  9.12E-13,  avg # of iterations =  2.8

     total cpu time spent up to now is       45.6 secs

     End of self-consistent calculation

          k = 0.0000 0.0000 0.0000 (  5217 PWs)   bands (ev):

   -65.0756 -65.0669 -65.0668 -65.0661 -31.8669 -31.8669 -31.8629 -31.8328
   -31.8328 -31.8311 -31.8310 -31.8279 -31.8279 -31.8099 -31.8099 -31.8029
    -9.4752  -8.0739  -8.0737  -8.0538   3.6263   3.6265   3.6516   6.1960
     6.1964   6.2024   6.2029   6.2517   6.2518   7.4749   7.4920   7.4921

          k = 0.0000 0.0000 0.2500 (  5206 PWs)   bands (ev):

   -65.0743 -65.0681 -65.0668 -65.0662 -31.8613 -31.8593 -31.8572 -31.8382
   -31.8337 -31.8325 -31.8319 -31.8280 -31.8243 -31.8194 -31.8122 -31.8072
    -9.2741  -8.2818  -8.0445  -8.0303   3.9121   3.9355   3.9575   5.6857
     5.6976   6.0017   6.0397   6.3633   6.4088   6.4851   7.2570   7.2815

          k = 0.0000 0.0000-0.5000 (  5246 PWs)   bands (ev):

   -65.0714 -65.0710 -65.0668 -65.0663 -31.8508 -31.8506 -31.8455 -31.8452
   -31.8407 -31.8407 -31.8343 -31.8343 -31.8212 -31.8210 -31.8158 -31.8156
    -8.7817  -8.7817  -8.0110  -8.0109   4.6954   4.6954   4.7148   4.7148
     4.9697   4.9700   5.8282   5.8285   6.7828   6.7828   6.8183   6.8183

          k = 0.0000 0.2520 0.0000 (  5209 PWs)   bands (ev):

   -65.0743 -65.0679 -65.0669 -65.0664 -31.8615 -31.8614 -31.8535 -31.8372
   -31.8372 -31.8303 -31.8297 -31.8287 -31.8286 -31.8133 -31.8124 -31.8123
    -9.2697  -8.2626  -8.0452  -8.0451   3.9173   3.9175   3.9709   5.7283
     5.7284   5.9892   5.9897   6.3592   6.3593   6.4687   7.2708   7.2710

          k = 0.0000 0.2520 0.2500 (  5229 PWs)   bands (ev):

   -65.0732 -65.0680 -65.0676 -65.0667 -31.8594 -31.8570 -31.8549 -31.8438
   -31.8352 -31.8341 -31.8302 -31.8269 -31.8244 -31.8226 -31.8164 -31.8076
    -9.0868  -8.2179  -8.2036  -8.0485   4.0241   4.0303   4.1924   4.9277
     5.6703   5.8836   5.9207   6.3045   6.3178   6.4279   7.0042   7.3249

          k = 0.0000 0.2520-0.5000 (  5240 PWs)   bands (ev):

   -65.0707 -65.0703 -65.0675 -65.0669 -31.8533 -31.8532 -31.8478 -31.8478
   -31.8464 -31.8462 -31.8258 -31.8255 -31.8233 -31.8232 -31.8126 -31.8124
    -8.6476  -8.6475  -8.0982  -8.0981   4.2791   4.2791   4.5973   4.5975
     4.9455   4.9456   6.3978   6.3980   6.4261   6.4262   6.9146   6.9146

          k = 0.0000-0.5040 0.0000 (  5222 PWs)   bands (ev):

   -65.0713 -65.0708 -65.0669 -65.0664 -31.8497 -31.8497 -31.8495 -31.8495
   -31.8360 -31.8358 -31.8267 -31.8266 -31.8220 -31.8219 -31.8218 -31.8218
    -8.7684  -8.7680  -8.0163  -8.0162   4.7160   4.7162   4.7168   4.7170
     4.9621   4.9623   5.7888   5.7891   6.7858   6.7861   6.7861   6.7863

          k = 0.0000-0.5040 0.2500 (  5232 PWs)   bands (ev):

   -65.0706 -65.0702 -65.0676 -65.0670 -31.8549 -31.8548 -31.8458 -31.8458
   -31.8455 -31.8453 -31.8263 -31.8261 -31.8204 -31.8203 -31.8154 -31.8153
    -8.6388  -8.6385  -8.1030  -8.1029   4.2784   4.2789   4.5912   4.5915
     4.9610   4.9617   6.3748   6.3751   6.4049   6.4053   6.9232   6.9234

          k = 0.0000-0.5040-0.5000 (  5240 PWs)   bands (ev):

   -65.0691 -65.0691 -65.0691 -65.0681 -31.8552 -31.8550 -31.8548 -31.8548
   -31.8361 -31.8360 -31.8359 -31.8357 -31.8146 -31.8145 -31.8143 -31.8143
    -8.3495  -8.3494  -8.3493  -8.3492   4.1444   4.1445   4.1447   4.1449
     5.6174   5.6174   5.6181   5.6182   6.8976   6.8978   6.8978   6.8980

          k = 0.2500 0.0000 0.0000 (  5206 PWs)   bands (ev):

   -65.0743 -65.0681 -65.0668 -65.0662 -31.8614 -31.8592 -31.8572 -31.8383
   -31.8337 -31.8325 -31.8318 -31.8281 -31.8243 -31.8194 -31.8122 -31.8072
    -9.2741  -8.2817  -8.0446  -8.0303   3.9120   3.9356   3.9576   5.6860
     5.6980   6.0013   6.0396   6.3629   6.4087   6.4850   7.2570   7.2816

          k = 0.2500 0.0000 0.2500 (  5233 PWs)   bands (ev):

   -65.0732 -65.0680 -65.0677 -65.0666 -31.8595 -31.8594 -31.8524 -31.8464
   -31.8320 -31.8296 -31.8296 -31.8280 -31.8269 -31.8268 -31.8115 -31.8104
    -9.0907  -8.2183  -8.2182  -8.0390   4.0290   4.0290   4.2096   4.9272
     5.6935   5.8910   5.8914   6.3408   6.3409   6.4023   6.9860   7.3283

          k = 0.2500 0.0000-0.5000 (  5240 PWs)   bands (ev):

   -65.0707 -65.0703 -65.0675 -65.0669 -31.8562 -31.8561 -31.8482 -31.8482
   -31.8412 -31.8409 -31.8258 -31.8257 -31.8205 -31.8203 -31.8168 -31.8166
    -8.6500  -8.6499  -8.1010  -8.1009   4.2899   4.2900   4.6158   4.6160
     4.9586   4.9586   6.3805   6.3807   6.4016   6.4016   6.9287   6.9288

          k = 0.2500 0.2520 0.0000 (  5229 PWs)   bands (ev):

   -65.0732 -65.0680 -65.0676 -65.0667 -31.8594 -31.8570 -31.8549 -31.8438
   -31.8353 -31.8342 -31.8302 -31.8268 -31.8244 -31.8226 -31.8164 -31.8075
    -9.0868  -8.2178  -8.2036  -8.0486   4.0241   4.0303   4.1922   4.9277
     5.6702   5.8838   5.9206   6.3043   6.3175   6.4281   7.0043   7.3249

          k = 0.2500 0.2520 0.2500 (  5234 PWs)   bands (ev):

   -65.0723 -65.0680 -65.0679 -65.0672 -31.8625 -31.8623 -31.8606 -31.8439
   -31.8321 -31.8320 -31.8312 -31.8253 -31.8211 -31.8211 -31.8139 -31.8095
    -8.9235  -8.1852  -8.1851  -8.1750   3.8677   3.8710   3.8710   4.9325
     5.6889   5.6890   5.7008   6.5245   6.5467   6.5469   7.1775   7.1798

          k = 0.2500 0.2520-0.5000 (  5228 PWs)   bands (ev):

   -65.0702 -65.0698 -65.0679 -65.0674 -31.8645 -31.8643 -31.8581 -31.8580
   -31.8310 -31.8307 -31.8215 -31.8215 -31.8190 -31.8189 -31.8145 -31.8143
    -8.5413  -8.5412  -8.1490  -8.1489   3.6951   3.6952   4.0628   4.0629
     5.6774   5.6775   6.5767   6.5769   6.6977   6.6979   6.8496   6.8496

          k = 0.2500-0.5040 0.0000 (  5232 PWs)   bands (ev):

   -65.0706 -65.0702 -65.0676 -65.0670 -31.8549 -31.8547 -31.8458 -31.8458
   -31.8456 -31.8454 -31.8263 -31.8261 -31.8203 -31.8203 -31.8154 -31.8153
    -8.6388  -8.6385  -8.1030  -8.1029   4.2783   4.2788   4.5911   4.5913
     4.9609   4.9616   6.3750   6.3752   6.4051   6.4055   6.9231   6.9233

          k = 0.2500-0.5040 0.2500 (  5226 PWs)   bands (ev):

   -65.0702 -65.0698 -65.0680 -65.0674 -31.8652 -31.8651 -31.8572 -31.8571
   -31.8337 -31.8335 -31.8194 -31.8192 -31.8175 -31.8174 -31.8155 -31.8155
    -8.5341  -8.5338  -8.1516  -8.1515   3.6933   3.6933   4.0504   4.0506
     5.6788   5.6788   6.5704   6.5706   6.7086   6.7089   6.8368   6.8369

          k = 0.2500-0.5040-0.5000 (  5228 PWs)   bands (ev):

   -65.0691 -65.0691 -65.0691 -65.0681 -31.8676 -31.8674 -31.8673 -31.8673
   -31.8239 -31.8236 -31.8236 -31.8235 -31.8137 -31.8135 -31.8134 -31.8133
    -8.3147  -8.3146  -8.3145  -8.3144   3.5101   3.5102   3.5102   3.5103
     6.3588   6.3589   6.3593   6.3593   6.8988   6.8989   6.8989   6.8991

          k =-0.5000 0.0000 0.0000 (  5246 PWs)   bands (ev):

   -65.0714 -65.0710 -65.0668 -65.0663 -31.8508 -31.8506 -31.8455 -31.8452
   -31.8407 -31.8406 -31.8342 -31.8342 -31.8213 -31.8210 -31.8158 -31.8156
    -8.7816  -8.7815  -8.0110  -8.0109   4.6954   4.6954   4.7149   4.7150
     4.9696   4.9699   5.8278   5.8282   6.7825   6.7825   6.8183   6.8183

          k =-0.5000 0.0000 0.2500 (  5240 PWs)   bands (ev):

   -65.0707 -65.0703 -65.0675 -65.0669 -31.8563 -31.8561 -31.8482 -31.8481
   -31.8411 -31.8409 -31.8258 -31.8257 -31.8205 -31.8203 -31.8168 -31.8166
    -8.6499  -8.6499  -8.1010  -8.1009   4.2899   4.2900   4.6158   4.6160
     4.9587   4.9587   6.3803   6.3805   6.4014   6.4014   6.9288   6.9289

          k =-0.5000 0.0000-0.5000 (  5272 PWs)   bands (ev):

   -65.0691 -65.0691 -65.0691 -65.0681 -31.8572 -31.8570 -31.8569 -31.8569
   -31.8319 -31.8317 -31.8317 -31.8314 -31.8182 -31.8179 -31.8179 -31.8179
    -8.3548  -8.3546  -8.3546  -8.3546   4.1739   4.1740   4.1740   4.1741
     5.6140   5.6140   5.6143   5.6143   6.8863   6.8864   6.8864   6.8866

          k =-0.5000 0.2520 0.0000 (  5240 PWs)   bands (ev):

   -65.0707 -65.0703 -65.0675 -65.0669 -31.8533 -31.8532 -31.8478 -31.8478
   -31.8464 -31.8462 -31.8258 -31.8256 -31.8232 -31.8232 -31.8126 -31.8124
[...]
   -31.8321 -31.8320 -31.8312 -31.8253 -31.8211 -31.8211 -31.8139 -31.8095
    -8.9235  -8.1852  -8.1851  -8.1750   3.8677   3.8710   3.8710   4.9325
     5.6889   5.6890   5.7008   6.5245   6.5467   6.5469   7.1775   7.1798

          k = 0.5000 0.2520-0.2500 (  5228 PWs)   bands (ev):

   -65.0702 -65.0698 -65.0679 -65.0674 -31.8645 -31.8643 -31.8581 -31.8580
   -31.8310 -31.8308 -31.8215 -31.8214 -31.8190 -31.8189 -31.8145 -31.8143
    -8.5412  -8.5411  -8.1490  -8.1490   3.6951   3.6952   4.0627   4.0628
     5.6774   5.6775   6.5766   6.5769   6.6978   6.6980   6.8495   6.8495

     highest occupied level (ev):     7.4921

!    total energy              =    -608.39190726 Ry
     Harris-Foulkes estimate   =    -608.39190726 Ry
     estimated scf accuracy    <          9.7E-12 Ry

     The total energy is the sum of the following terms:

     one-electron contribution =    -306.59529522 Ry
     hartree contribution      =     169.08399286 Ry
     xc contribution           =     -97.78295892 Ry
     ewald contribution        =    -373.09764598 Ry

     convergence has been achieved in   4 iterations

     Forces acting on atoms (cartesian axes, Ry/au):

     atom    1 type  1   force =     0.00000000   -0.00000752   -0.00000108
     atom    2 type  1   force =     0.00000000   -0.00011678    0.00000220
     atom    3 type  1   force =     0.00000000    0.00015329    0.00000210
     atom    4 type  1   force =     0.00000000   -0.00011662   -0.00000240
     atom    5 type  2   force =     0.00000000   -0.00007560   -0.00000054
     atom    6 type  2   force =     0.00000000    0.00010388   -0.00000057
     atom    7 type  2   force =     0.00000000   -0.00007545    0.00000024
     atom    8 type  2   force =     0.00000000    0.00013480    0.00000004

     Total force =     0.000302     Total SCF correction =     0.000012


     Computing stress (Cartesian axis) and pressure

          total   stress  (Ry/bohr**3)                   (kbar)     P=  -89.16
  -0.00063356   0.00000000   0.00000000        -93.20      0.00      0.00
   0.00000000  -0.00055092   0.00000000          0.00    -81.04      0.00
   0.00000000   0.00000000  -0.00063379          0.00      0.00    -93.23


     number of scf cycles    =   5
     number of bfgs steps    =   4

     energy   old            =    -608.3919071054 Ry
     energy   new            =    -608.3919072608 Ry

     CASE: energy  _new < energy  _old

     new trust radius        =       0.0002784408 bohr
     new conv_thr            =            1.0E-10 Ry


ATOMIC_POSITIONS (alat)
Mg       0.000000000   0.001811114  -0.000013910
Mg       0.000000000   0.498123031   0.500014165
Mg       0.500000000   0.001936442   0.500014402
Mg       0.500000000   0.498123201  -0.000014801
O        0.500000000   0.001955553  -0.000015037
O        0.000000000   0.498045654  -0.000015076
O        0.000000000   0.001955377   0.500015116
O        0.500000000   0.498049627   0.500015141



     Writing output data file diamond.8.10795760075.70.4.save
     NEW-OLD atomic charge density approx. for the potential

     Check: negative/imaginary core charge=   -0.000007    0.000000

     total cpu time spent up to now is       46.4 secs

     per-process dynamical memory:    52.1 Mb

     Self-consistent Calculation

     iteration #  1     ecut=    70.00 Ry     beta=0.70
     Davidson diagonalization with overlap
     ethr =  1.00E-06,  avg # of iterations =  2.0

     Threshold (ethr) on eigenvalues was too large:
     Diagonalizing with lowered threshold

     Davidson diagonalization with overlap
     ethr =  2.65E-11,  avg # of iterations =  3.7

     total cpu time spent up to now is       49.4 secs

     total energy              =    -608.39190737 Ry
     Harris-Foulkes estimate   =    -608.39190738 Ry
     estimated scf accuracy    <       0.00000002 Ry

     iteration #  2     ecut=    70.00 Ry     beta=0.70
     Davidson diagonalization with overlap
     ethr =  2.38E-11,  avg # of iterations =  2.0

     total cpu time spent up to now is       50.6 secs

     total energy              =    -608.39190738 Ry
     Harris-Foulkes estimate   =    -608.39190738 Ry
     estimated scf accuracy    <          2.2E-09 Ry

     iteration #  3     ecut=    70.00 Ry     beta=0.70
     Davidson diagonalization with overlap
     ethr =  3.49E-12,  avg # of iterations =  2.0

     total cpu time spent up to now is       51.8 secs

     End of self-consistent calculation

          k = 0.0000 0.0000 0.0000 (  5217 PWs)   bands (ev):

   -65.0756 -65.0669 -65.0668 -65.0661 -31.8669 -31.8669 -31.8629 -31.8328
   -31.8328 -31.8311 -31.8310 -31.8279 -31.8279 -31.8099 -31.8099 -31.8029
    -9.4752  -8.0739  -8.0737  -8.0538   3.6263   3.6265   3.6516   6.1960
     6.1964   6.2024   6.2029   6.2517   6.2518   7.4749   7.4920   7.4921

          k = 0.0000 0.0000 0.2500 (  5206 PWs)   bands (ev):

   -65.0743 -65.0681 -65.0668 -65.0662 -31.8613 -31.8593 -31.8572 -31.8382
   -31.8337 -31.8325 -31.8319 -31.8280 -31.8243 -31.8194 -31.8122 -31.8072
    -9.2741  -8.2818  -8.0445  -8.0303   3.9121   3.9355   3.9575   5.6857
     5.6976   6.0017   6.0397   6.3633   6.4088   6.4851   7.2570   7.2815

          k = 0.0000 0.0000-0.5000 (  5246 PWs)   bands (ev):

   -65.0714 -65.0710 -65.0668 -65.0663 -31.8508 -31.8506 -31.8455 -31.8452
   -31.8407 -31.8407 -31.8343 -31.8343 -31.8212 -31.8210 -31.8158 -31.8156
    -8.7817  -8.7817  -8.0110  -8.0109   4.6954   4.6954   4.7148   4.7148
     4.9697   4.9700   5.8282   5.8285   6.7828   6.7828   6.8183   6.8183

          k = 0.0000 0.2520 0.0000 (  5209 PWs)   bands (ev):

   -65.0743 -65.0679 -65.0669 -65.0664 -31.8615 -31.8614 -31.8535 -31.8372
   -31.8372 -31.8303 -31.8297 -31.8287 -31.8286 -31.8133 -31.8124 -31.8123
    -9.2697  -8.2626  -8.0452  -8.0451   3.9173   3.9175   3.9709   5.7283
     5.7284   5.9892   5.9897   6.3592   6.3593   6.4687   7.2708   7.2710

          k = 0.0000 0.2520 0.2500 (  5229 PWs)   bands (ev):

   -65.0732 -65.0680 -65.0676 -65.0667 -31.8594 -31.8570 -31.8549 -31.8438
   -31.8352 -31.8341 -31.8302 -31.8269 -31.8244 -31.8226 -31.8164 -31.8076
    -9.0868  -8.2179  -8.2036  -8.0485   4.0241   4.0303   4.1924   4.9277
     5.6703   5.8836   5.9207   6.3045   6.3178   6.4279   7.0042   7.3249

          k = 0.0000 0.2520-0.5000 (  5240 PWs)   bands (ev):

   -65.0707 -65.0703 -65.0675 -65.0669 -31.8533 -31.8532 -31.8478 -31.8478
   -31.8464 -31.8462 -31.8258 -31.8255 -31.8233 -31.8232 -31.8126 -31.8124
    -8.6476  -8.6475  -8.0981  -8.0981   4.2791   4.2791   4.5973   4.5975
     4.9455   4.9456   6.3978   6.3980   6.4261   6.4262   6.9146   6.9146

          k = 0.0000-0.5040 0.0000 (  5222 PWs)   bands (ev):

   -65.0713 -65.0708 -65.0669 -65.0664 -31.8497 -31.8496 -31.8495 -31.8495
   -31.8360 -31.8359 -31.8267 -31.8266 -31.8220 -31.8219 -31.8218 -31.8218
    -8.7685  -8.7679  -8.0163  -8.0162   4.7159   4.7160   4.7170   4.7171
     4.9620   4.9623   5.7888   5.7891   6.7857   6.7860   6.7862   6.7865

          k = 0.0000-0.5040 0.2500 (  5232 PWs)   bands (ev):

   -65.0706 -65.0702 -65.0676 -65.0670 -31.8549 -31.8548 -31.8458 -31.8458
   -31.8455 -31.8453 -31.8262 -31.8261 -31.8204 -31.8203 -31.8154 -31.8153
    -8.6389  -8.6384  -8.1030  -8.1029   4.2783   4.2789   4.5912   4.5915
     4.9608   4.9619   6.3748   6.3752   6.4048   6.4054   6.9232   6.9234

          k = 0.0000-0.5040-0.5000 (  5240 PWs)   bands (ev):

   -65.0691 -65.0691 -65.0691 -65.0681 -31.8552 -31.8550 -31.8548 -31.8548
   -31.8361 -31.8360 -31.8359 -31.8357 -31.8146 -31.8145 -31.8143 -31.8143
    -8.3496  -8.3495  -8.3492  -8.3491   4.1445   4.1446   4.1446   4.1448
     5.6173   5.6173   5.6182   5.6183   6.8976   6.8978   6.8978   6.8980

          k = 0.2500 0.0000 0.0000 (  5206 PWs)   bands (ev):

   -65.0743 -65.0681 -65.0668 -65.0662 -31.8614 -31.8592 -31.8572 -31.8383
   -31.8337 -31.8325 -31.8318 -31.8281 -31.8243 -31.8194 -31.8122 -31.8072
    -9.2741  -8.2817  -8.0446  -8.0303   3.9120   3.9356   3.9576   5.6860
     5.6980   6.0013   6.0396   6.3629   6.4087   6.4850   7.2570   7.2816

          k = 0.2500 0.0000 0.2500 (  5233 PWs)   bands (ev):

   -65.0732 -65.0680 -65.0677 -65.0666 -31.8595 -31.8594 -31.8524 -31.8464
   -31.8320 -31.8296 -31.8296 -31.8280 -31.8269 -31.8268 -31.8115 -31.8104
    -9.0907  -8.2183  -8.2182  -8.0390   4.0290   4.0290   4.2096   4.9272
     5.6935   5.8910   5.8914   6.3408   6.3409   6.4023   6.9860   7.3283

          k = 0.2500 0.0000-0.5000 (  5240 PWs)   bands (ev):

   -65.0707 -65.0703 -65.0675 -65.0669 -31.8562 -31.8561 -31.8482 -31.8482
   -31.8412 -31.8409 -31.8258 -31.8257 -31.8205 -31.8203 -31.8168 -31.8166
    -8.6500  -8.6499  -8.1010  -8.1009   4.2899   4.2900   4.6158   4.6160
     4.9586   4.9586   6.3805   6.3807   6.4016   6.4016   6.9287   6.9288

          k = 0.2500 0.2520 0.0000 (  5229 PWs)   bands (ev):

   -65.0732 -65.0680 -65.0676 -65.0667 -31.8594 -31.8570 -31.8549 -31.8438
   -31.8353 -31.8342 -31.8302 -31.8268 -31.8244 -31.8226 -31.8164 -31.8075
    -9.0868  -8.2178  -8.2036  -8.0486   4.0241   4.0303   4.1922   4.9277
     5.6702   5.8838   5.9206   6.3043   6.3175   6.4281   7.0043   7.3249

          k = 0.2500 0.2520 0.2500 (  5234 PWs)   bands (ev):

   -65.0723 -65.0680 -65.0679 -65.0672 -31.8625 -31.8623 -31.8606 -31.8439
   -31.8322 -31.8320 -31.8312 -31.8253 -31.8211 -31.8211 -31.8139 -31.8095
    -8.9235  -8.1852  -8.1850  -8.1750   3.8677   3.8710   3.8710   4.9325
     5.6889   5.6890   5.7008   6.5245   6.5467   6.5469   7.1775   7.1798

          k = 0.2500 0.2520-0.5000 (  5228 PWs)   bands (ev):

   -65.0702 -65.0698 -65.0679 -65.0674 -31.8645 -31.8643 -31.8581 -31.8580
   -31.8310 -31.8307 -31.8215 -31.8215 -31.8190 -31.8189 -31.8145 -31.8143
    -8.5413  -8.5412  -8.1490  -8.1489   3.6951   3.6952   4.0628   4.0629
     5.6774   5.6775   6.5767   6.5769   6.6977   6.6979   6.8496   6.8496

          k = 0.2500-0.5040 0.0000 (  5232 PWs)   bands (ev):

   -65.0706 -65.0702 -65.0676 -65.0670 -31.8549 -31.8547 -31.8458 -31.8458
   -31.8456 -31.8454 -31.8263 -31.8261 -31.8203 -31.8203 -31.8154 -31.8153
    -8.6389  -8.6384  -8.1030  -8.1028   4.2782   4.2788   4.5911   4.5913
     4.9607   4.9618   6.3749   6.3753   6.4050   6.4056   6.9231   6.9233

          k = 0.2500-0.5040 0.2500 (  5226 PWs)   bands (ev):

   -65.0702 -65.0698 -65.0680 -65.0674 -31.8652 -31.8651 -31.8572 -31.8571
   -31.8337 -31.8335 -31.8194 -31.8192 -31.8175 -31.8174 -31.8155 -31.8155
    -8.5342  -8.5337  -8.1516  -8.1515   3.6933   3.6933   4.0504   4.0506
     5.6788   5.6788   6.5704   6.5706   6.7086   6.7089   6.8367   6.8370

          k = 0.2500-0.5040-0.5000 (  5228 PWs)   bands (ev):

   -65.0691 -65.0691 -65.0691 -65.0681 -31.8676 -31.8674 -31.8673 -31.8673
   -31.8239 -31.8236 -31.8236 -31.8235 -31.8137 -31.8135 -31.8134 -31.8133
    -8.3147  -8.3146  -8.3145  -8.3144   3.5100   3.5102   3.5102   3.5102
     6.3588   6.3589   6.3593   6.3594   6.8987   6.8989   6.8989   6.8991

          k =-0.5000 0.0000 0.0000 (  5246 PWs)   bands (ev):

   -65.0714 -65.0710 -65.0668 -65.0663 -31.8508 -31.8506 -31.8455 -31.8452
   -31.8407 -31.8406 -31.8343 -31.8342 -31.8213 -31.8210 -31.8158 -31.8156
    -8.7816  -8.7815  -8.0110  -8.0109   4.6954   4.6954   4.7149   4.7150
     4.9696   4.9699   5.8278   5.8282   6.7825   6.7825   6.8183   6.8183

          k =-0.5000 0.0000 0.2500 (  5240 PWs)   bands (ev):

   -65.0707 -65.0703 -65.0675 -65.0669 -31.8563 -31.8561 -31.8482 -31.8481
   -31.8411 -31.8409 -31.8258 -31.8257 -31.8205 -31.8203 -31.8168 -31.8166
    -8.6499  -8.6499  -8.1010  -8.1009   4.2899   4.2900   4.6158   4.6160
     4.9587   4.9587   6.3803   6.3805   6.4014   6.4014   6.9288   6.9289

          k =-0.5000 0.0000-0.5000 (  5272 PWs)   bands (ev):

   -65.0691 -65.0691 -65.0691 -65.0681 -31.8572 -31.8570 -31.8569 -31.8569
   -31.8319 -31.8317 -31.8317 -31.8314 -31.8182 -31.8179 -31.8179 -31.8179
    -8.3548  -8.3546  -8.3546  -8.3546   4.1739   4.1740   4.1740   4.1741
     5.6140   5.6140   5.6143   5.6143   6.8863   6.8864   6.8864   6.8866

          k =-0.5000 0.2520 0.0000 (  5240 PWs)   bands (ev):

   -65.0707 -65.0703 -65.0675 -65.0669 -31.8533 -31.8532 -31.8478 -31.8478
   -31.8464 -31.8462 -31.8258 -31.8256 -31.8232 -31.8232 -31.8126 -31.8124
    -8.6475  -8.6474  -8.0982  -8.0981   4.2790   4.2790   4.5971   4.5973
     4.9456   4.9456   6.3977   6.3980   6.4262   6.4262   6.9145   6.9146

          k =-0.5000 0.2520 0.2500 (  5228 PWs)   bands (ev):

   -65.0702 -65.0698 -65.0679 -65.0674 -31.8645 -31.8643 -31.8581 -31.8580
   -31.8310 -31.8308 -31.8215 -31.8214 -31.8190 -31.8189 -31.8145 -31.8143
    -8.5412  -8.5411  -8.1490  -8.1490   3.6951   3.6952   4.0627   4.0628
     5.6774   5.6775   6.5766   6.5769   6.6978   6.6980   6.8495   6.8495

          k =-0.5000 0.2520-0.5000 (  5232 PWs)   bands (ev):

   -65.0691 -65.0691 -65.0691 -65.0681 -31.8680 -31.8677 -31.8677 -31.8677
   -31.8200 -31.8198 -31.8198 -31.8196 -31.8175 -31.8173 -31.8172 -31.8172
    -8.3174  -8.3172  -8.3172  -8.3172   3.5198   3.5200   3.5200   3.5200
     6.3678   6.3679   6.3681   6.3681   6.8876   6.8877   6.8877   6.8879

          k =-0.5000-0.5040 0.0000 (  5240 PWs)   bands (ev):

   -65.0691 -65.0691 -65.0691 -65.0681 -31.8551 -31.8550 -31.8548 -31.8548
   -31.8362 -31.8360 -31.8359 -31.8357 -31.8146 -31.8144 -31.8143 -31.8142
    -8.3495  -8.3494  -8.3492  -8.3491   4.1443   4.1443   4.1444   4.1446
     5.6173   5.6173   5.6182   5.6183   6.8977   6.8979   6.8979   6.8981

          k =-0.5000-0.5040 0.2500 (  5228 PWs)   bands (ev):

   -65.0691 -65.0691 -65.0691 -65.0681 -31.8676 -31.8674 -31.8673 -31.8673
   -31.8239 -31.8237 -31.8237 -31.8235 -31.8137 -31.8135 -31.8134 -31.8133
    -8.3147  -8.3146  -8.3144  -8.3144   3.5100   3.5101   3.5101   3.5102
     6.3587   6.3588   6.3593   6.3593   6.8988   6.8990   6.8990   6.8992

          k =-0.5000-0.5040-0.5000 (  5232 PWs)   bands (ev):

   -65.0691 -65.0691 -65.0691 -65.0681 -31.8754 -31.8752 -31.8752 -31.8751
   -31.8170 -31.8168 -31.8167 -31.8167 -31.8129 -31.8127 -31.8127 -31.8125
    -8.2794  -8.2792  -8.2792  -8.2792   3.0980   3.0981   3.0981   3.0981
     6.8888   6.8889   6.8889   6.8891   6.9034   6.9035   6.9036   6.9036

          k = 0.0000 0.2520-0.2500 (  5229 PWs)   bands (ev):

   -65.0732 -65.0680 -65.0676 -65.0667 -31.8594 -31.8570 -31.8549 -31.8438
   -31.8352 -31.8341 -31.8302 -31.8269 -31.8244 -31.8226 -31.8164 -31.8076
    -9.0868  -8.2179  -8.2036  -8.0485   4.0241   4.0303   4.1924   4.9277
     5.6703   5.8836   5.9207   6.3045   6.3178   6.4279   7.0042   7.3249

          k =-0.2500 0.2520-0.2500 (  5234 PWs)   bands (ev):

   -65.0723 -65.0680 -65.0679 -65.0672 -31.8625 -31.8623 -31.8606 -31.8439
   -31.8322 -31.8320 -31.8312 -31.8253 -31.8211 -31.8211 -31.8139 -31.8095
    -8.9235  -8.1852  -8.1850  -8.1750   3.8677   3.8710   3.8710   4.9325
     5.6889   5.6890   5.7008   6.5245   6.5467   6.5469   7.1775   7.1798

          k = 0.5000 0.2520-0.2500 (  5228 PWs)   bands (ev):

   -65.0702 -65.0698 -65.0679 -65.0674 -31.8645 -31.8643 -31.8581 -31.8580
   -31.8310 -31.8308 -31.8215 -31.8214 -31.8190 -31.8189 -31.8145 -31.8143
    -8.5412  -8.5411  -8.1490  -8.1490   3.6951   3.6952   4.0627   4.0628
     5.6774   5.6775   6.5766   6.5769   6.6978   6.6980   6.8495   6.8495

     highest occupied level (ev):     7.4921

!    total energy              =    -608.39190738 Ry
     Harris-Foulkes estimate   =    -608.39190738 Ry
     estimated scf accuracy    <          2.9E-11 Ry

     The total energy is the sum of the following terms:

     one-electron contribution =    -306.59529023 Ry
     hartree contribution      =     169.08398811 Ry
     xc contribution           =     -97.78295761 Ry
     ewald contribution        =    -373.09764765 Ry

     convergence has been achieved in   3 iterations

     Forces acting on atoms (cartesian axes, Ry/au):

     atom    1 type  1   force =     0.00000000   -0.00002394   -0.00000023
     atom    2 type  1   force =     0.00000000   -0.00006332    0.00000111
     atom    3 type  1   force =     0.00000000    0.00009107    0.00000102
     atom    4 type  1   force =     0.00000000   -0.00006344   -0.00000124
     atom    5 type  2   force =     0.00000000   -0.00002690   -0.00000042
     atom    6 type  2   force =     0.00000000    0.00003947   -0.00000043
     atom    7 type  2   force =     0.00000000   -0.00002730    0.00000021
     atom    8 type  2   force =     0.00000000    0.00007436   -0.00000003

     Total force =     0.000160     Total SCF correction =     0.000009


     Computing stress (Cartesian axis) and pressure

          total   stress  (Ry/bohr**3)                   (kbar)     P=  -89.16
  -0.00063356   0.00000000   0.00000000        -93.20      0.00      0.00
   0.00000000  -0.00055093   0.00000000          0.00    -81.04      0.00
   0.00000000   0.00000000  -0.00063379          0.00      0.00    -93.23


     bfgs converged in   6 scf cycles and   5 bfgs steps
     (criteria: energy <  1.0E-05 Ry, force <  1.0E-04 Ry/Bohr)

     End of BFGS Geometry Optimization

     Final energy   =    -608.3919073784 Ry
Begin final coordinates

ATOMIC_POSITIONS (alat)
Mg       0.000000000   0.001811114  -0.000013910
Mg       0.000000000   0.498123031   0.500014165
Mg       0.500000000   0.001936442   0.500014402
Mg       0.500000000   0.498123201  -0.000014801
O        0.500000000   0.001955553  -0.000015037
O        0.000000000   0.498045654  -0.000015076
O        0.000000000   0.001955377   0.500015116
O        0.500000000   0.498049627   0.500015141
End final coordinates



     Writing output data file diamond.8.10795760075.70.4.save
 
     init_run     :      0.55s CPU      0.57s WALL (       1 calls)
     electrons    :     46.08s CPU     47.27s WALL (       6 calls)
     update_pot   :      0.64s CPU      0.65s WALL (       5 calls)
     forces       :      1.00s CPU      1.01s WALL (       6 calls)
     stress       :      2.35s CPU      2.36s WALL (       6 calls)

     Called by init_run:
     wfcinit      :      0.42s CPU      0.44s WALL (       1 calls)
     potinit      :      0.05s CPU      0.05s WALL (       1 calls)

     Called by electrons:
     c_bands      :     40.30s CPU     41.35s WALL (      35 calls)
     sum_band     :      5.56s CPU      5.68s WALL (      35 calls)
     v_of_rho     :      0.19s CPU      0.19s WALL (      36 calls)
     mix_rho      :      0.02s CPU      0.03s WALL (      35 calls)

     Called by c_bands:
     init_us_2    :      0.60s CPU      0.63s WALL (    2490 calls)
     cegterg      :     37.60s CPU     38.56s WALL (    1050 calls)

     Called by sum_band:

     Called by *egterg:
     h_psi        :     27.42s CPU     28.01s WALL (    3538 calls)
     g_psi        :      0.21s CPU      0.22s WALL (    2458 calls)
     cdiaghg      :      5.43s CPU      5.44s WALL (    3208 calls)

     Called by h_psi:
     h_psi:pot    :     27.31s CPU     27.86s WALL (    3538 calls)
     h_psi:calbec :      1.57s CPU      1.57s WALL (    3538 calls)
     vloc_psi     :     24.43s CPU     24.96s WALL (    3538 calls)
     add_vuspsi   :      1.31s CPU      1.31s WALL (    3538 calls)

     General routines
     calbec       :      2.09s CPU      2.09s WALL (    4438 calls)
     fft          :      0.23s CPU      0.23s WALL (     555 calls)
     fftw         :     27.61s CPU     27.29s WALL (  213410 calls)
     davcio       :      0.00s CPU      0.00s WALL (      30 calls)
 
     Parallel routines
     fft_scatter  :      7.26s CPU      7.13s WALL (  213965 calls)
 
     PWSCF        :    51.08s CPU        52.46s WALL

 
   This run was terminated on:  15: 2:29  22Apr2018            

=------------------------------------------------------------------------------=
   JOB DONE.
=------------------------------------------------------------------------------=
