
     Program PWSCF v.6.1 (svn rev. 13369) starts on 22Apr2018 at 14:55:12 

     This program is part of the open-source Quantum ESPRESSO suite
     for quantum simulation of materials; please cite
         "P. Giannozzi et al., J. Phys.:Condens. Matter 21 395502 (2009);
          URL http://www.quantum-espresso.org", 
     in publications or presentations arising from this work. More details at
     http://www.quantum-espresso.org/quote

     Parallel version (MPI), running on     8 processors
     R & G space division:  proc/nbgrp/npool/nimage =       8
     Waiting for input...
     Reading input from standard input
Warning: card       &CELL ignored
Warning: card       CELL_DYNAMICS = 'BFGS' ignored
Warning: card       PRESS = 0.0D0 ignored
Warning: card       PRESS_CONV_THR = 0.01D0 ignored
Warning: card       / ignored

     Current dimensions of program PWSCF are:
     Max number of different atomic species (ntypx) = 10
     Max number of k-points (npk) =  40000
     Max angular momentum in pseudopotentials (lmaxx) =  3

     Subspace diagonalization in iterative solution of the eigenvalue problem:
     a serial algorithm will be used

     Found symmetry operation: I + ( -0.5000  0.0000  0.5000)
     This is a supercell, fractional translations are disabled
 
     Parallelization info
     --------------------
     sticks:   dense  smooth     PW     G-vecs:    dense   smooth      PW
     Min         181     181     52                 5171     5171     824
     Max         182     182     53                 5174     5174     829
     Sum        1449    1449    421                41379    41379    6619
 


     bravais-lattice index     =            8
     lattice parameter (alat)  =       8.0620  a.u.
     unit-cell volume          =     522.8740 (a.u.)^3
     number of atoms/cell      =            8
     number of atomic types    =            2
     number of electrons       =        64.00
     number of Kohn-Sham states=           32
     kinetic-energy cutoff     =      70.0000  Ry
     charge density cutoff     =     280.0000  Ry
     convergence threshold     =      1.0E-08
     mixing beta               =       0.7000
     number of iterations used =            8  plain     mixing
     Exchange-correlation      = PBE ( 1  4  3  4 0 0)
     nstep                     =           50


     celldm(1)=   8.061990  celldm(2)=   0.997857  celldm(3)=   1.000005
     celldm(4)=   0.000000  celldm(5)=   0.000000  celldm(6)=   0.000000

     crystal axes: (cart. coord. in units of alat)
               a(1) = (   1.000000   0.000000   0.000000 )  
               a(2) = (   0.000000   0.997857   0.000000 )  
               a(3) = (   0.000000   0.000000   1.000005 )  

     reciprocal axes: (cart. coord. in units 2 pi/alat)
               b(1) = (  1.000000  0.000000  0.000000 )  
               b(2) = (  0.000000  1.002148  0.000000 )  
               b(3) = (  0.000000  0.000000  0.999995 )  


     PseudoPot. # 1 for Mg read from file:
     ../pseudo/Mg.pbe.UPF
     MD5 check sum: 4c04d8c6e0476e83eaecaf72fa8acc4d
     Pseudo is Norm-conserving, Zval = 10.0
     Generated using ONCVPSP code by D. R. Hamann
     Using radial grid of 1510 points,  4 beta functions with: 
                l(1) =   0
                l(2) =   0
                l(3) =   1
                l(4) =   1

     PseudoPot. # 2 for O  read from file:
     ../pseudo/O.pbe.UPF
     MD5 check sum: 3e3f909f7470e8921608ab6b1f57bbae
     Pseudo is Norm-conserving + core correction, Zval =  6.0
     Generated using ONCVPSP code by D. R. Hamann
     Using radial grid of  936 points,  5 beta functions with: 
                l(1) =   0
                l(2) =   0
                l(3) =   1
                l(4) =   1
                l(5) =   2

     atomic species   valence    mass     pseudopotential
        Mg            10.00    24.30500     Mg( 1.00)
        O              6.00    15.99940     O ( 1.00)

      4 Sym. Ops. (no inversion) found



   Cartesian axes

     site n.     atom                  positions (alat units)
         1           Mg  tau(   1) = (   0.0000000   0.0000000   0.0000000  )
         2           Mg  tau(   2) = (   0.0000000   0.5000000   0.5000000  )
         3           Mg  tau(   3) = (   0.5000000   0.0000000   0.5000000  )
         4           Mg  tau(   4) = (   0.5000000   0.5000000   0.0000000  )
         5           O   tau(   5) = (   0.5000000   0.0000000   0.0000000  )
         6           O   tau(   6) = (   0.0000000   0.5000000   0.0000000  )
         7           O   tau(   7) = (   0.0000000   0.0000000   0.5000000  )
         8           O   tau(   8) = (   0.5000000   0.5000000   0.5000000  )

     number of k points=    27
                       cart. coord. in units 2pi/alat
        k(    1) = (   0.0000000   0.0000000   0.0000000), wk =   0.0312500
        k(    2) = (   0.0000000   0.0000000   0.2499989), wk =   0.0625000
        k(    3) = (   0.0000000   0.0000000  -0.4999977), wk =   0.0312500
        k(    4) = (   0.0000000   0.2505369   0.0000000), wk =   0.0625000
        k(    5) = (   0.0000000   0.2505369   0.2499989), wk =   0.1250000
        k(    6) = (   0.0000000   0.2505369  -0.4999977), wk =   0.0625000
        k(    7) = (   0.0000000  -0.5010738   0.0000000), wk =   0.0312500
        k(    8) = (   0.0000000  -0.5010738   0.2499989), wk =   0.0625000
        k(    9) = (   0.0000000  -0.5010738  -0.4999977), wk =   0.0312500
        k(   10) = (   0.2500000   0.0000000   0.0000000), wk =   0.0625000
        k(   11) = (   0.2500000   0.0000000   0.2499989), wk =   0.1250000
        k(   12) = (   0.2500000   0.0000000  -0.4999977), wk =   0.0625000
        k(   13) = (   0.2500000   0.2505369   0.0000000), wk =   0.1250000
        k(   14) = (   0.2500000   0.2505369   0.2499989), wk =   0.2500000
        k(   15) = (   0.2500000   0.2505369  -0.4999977), wk =   0.1250000
        k(   16) = (   0.2500000  -0.5010738   0.0000000), wk =   0.0625000
        k(   17) = (   0.2500000  -0.5010738   0.2499989), wk =   0.1250000
        k(   18) = (   0.2500000  -0.5010738  -0.4999977), wk =   0.0625000
        k(   19) = (  -0.5000000   0.0000000   0.0000000), wk =   0.0312500
        k(   20) = (  -0.5000000   0.0000000   0.2499989), wk =   0.0625000
        k(   21) = (  -0.5000000   0.0000000  -0.4999977), wk =   0.0312500
        k(   22) = (  -0.5000000   0.2505369   0.0000000), wk =   0.0625000
        k(   23) = (  -0.5000000   0.2505369   0.2499989), wk =   0.1250000
        k(   24) = (  -0.5000000   0.2505369  -0.4999977), wk =   0.0625000
        k(   25) = (  -0.5000000  -0.5010738   0.0000000), wk =   0.0312500
        k(   26) = (  -0.5000000  -0.5010738   0.2499989), wk =   0.0625000
        k(   27) = (  -0.5000000  -0.5010738  -0.4999977), wk =   0.0312500

     Dense  grid:    41379 G-vectors     FFT dimensions: (  45,  45,  45)

     Estimated max dynamical RAM per process >      14.45MB

     Estimated total allocated dynamical RAM >     115.58MB

     Check: negative/imaginary core charge=   -0.000007    0.000000

     Initial potential from superposition of free atoms

     starting charge   63.99678, renormalised to   64.00000
     Starting wfc are   36 randomized atomic wfcs

     total cpu time spent up to now is        0.7 secs

     per-process dynamical memory:    50.1 Mb

     Self-consistent Calculation

     iteration #  1     ecut=    70.00 Ry     beta=0.70
     Davidson diagonalization with overlap
     ethr =  1.00E-02,  avg # of iterations =  2.0

     total cpu time spent up to now is        1.8 secs

     total energy              =    -607.71743155 Ry
     Harris-Foulkes estimate   =    -608.84347962 Ry
     estimated scf accuracy    <       1.56431396 Ry

     iteration #  2     ecut=    70.00 Ry     beta=0.70
     Davidson diagonalization with overlap
     ethr =  2.44E-03,  avg # of iterations =  2.9

     total cpu time spent up to now is        3.0 secs

     total energy              =    -608.10282315 Ry
     Harris-Foulkes estimate   =    -608.80683579 Ry
     estimated scf accuracy    <       1.46370794 Ry

     iteration #  3     ecut=    70.00 Ry     beta=0.70
     Davidson diagonalization with overlap
     ethr =  2.29E-03,  avg # of iterations =  2.0

     total cpu time spent up to now is        4.1 secs

     total energy              =    -608.39105253 Ry
     Harris-Foulkes estimate   =    -608.39171996 Ry
     estimated scf accuracy    <       0.00680326 Ry

     iteration #  4     ecut=    70.00 Ry     beta=0.70
     Davidson diagonalization with overlap
     ethr =  1.06E-05,  avg # of iterations =  2.0

     total cpu time spent up to now is        5.3 secs

     total energy              =    -608.39254693 Ry
     Harris-Foulkes estimate   =    -608.39259291 Ry
     estimated scf accuracy    <       0.00011381 Ry

     iteration #  5     ecut=    70.00 Ry     beta=0.70
     Davidson diagonalization with overlap
     ethr =  1.78E-07,  avg # of iterations =  1.6

     total cpu time spent up to now is        6.2 secs

     total energy              =    -608.39255434 Ry
     Harris-Foulkes estimate   =    -608.39255297 Ry
     estimated scf accuracy    <       0.00001040 Ry

     iteration #  6     ecut=    70.00 Ry     beta=0.70
     Davidson diagonalization with overlap
     ethr =  1.62E-08,  avg # of iterations =  2.0

     total cpu time spent up to now is        7.5 secs

     total energy              =    -608.39255593 Ry
     Harris-Foulkes estimate   =    -608.39255633 Ry
     estimated scf accuracy    <       0.00000101 Ry

     iteration #  7     ecut=    70.00 Ry     beta=0.70
     Davidson diagonalization with overlap
     ethr =  1.57E-09,  avg # of iterations =  2.0

     total cpu time spent up to now is        8.5 secs

     total energy              =    -608.39255592 Ry
     Harris-Foulkes estimate   =    -608.39255602 Ry
     estimated scf accuracy    <       0.00000026 Ry

     iteration #  8     ecut=    70.00 Ry     beta=0.70
     Davidson diagonalization with overlap
     ethr =  4.02E-10,  avg # of iterations =  2.0

     total cpu time spent up to now is        9.7 secs

     total energy              =    -608.39255592 Ry
     Harris-Foulkes estimate   =    -608.39255595 Ry
     estimated scf accuracy    <       0.00000004 Ry

     iteration #  9     ecut=    70.00 Ry     beta=0.70
     Davidson diagonalization with overlap
     ethr =  6.94E-11,  avg # of iterations =  2.0

     total cpu time spent up to now is       10.9 secs

     End of self-consistent calculation

          k = 0.0000 0.0000 0.0000 (  5169 PWs)   bands (ev):

   -64.9008 -64.8915 -64.8915 -64.8907 -31.6957 -31.6957 -31.6947 -31.6592
   -31.6592 -31.6587 -31.6587 -31.6579 -31.6579 -31.6321 -31.6321 -31.6290
    -9.3951  -7.9578  -7.9578  -7.9522   3.7217   3.7218   3.7288   6.3294
     6.3294   6.3311   6.3314   6.3446   6.3446   7.6183   7.6231   7.6231

          k = 0.0000 0.0000 0.2500 (  5189 PWs)   bands (ev):

   -64.8994 -64.8927 -64.8915 -64.8909 -31.6899 -31.6882 -31.6871 -31.6647
   -31.6628 -31.6597 -31.6594 -31.6551 -31.6536 -31.6454 -31.6375 -31.6363
    -9.1887  -8.1708  -7.9291  -7.9252   4.0108   4.0173   4.0566   5.8102
     5.8140   6.1240   6.1344   6.4934   6.5058   6.6106   7.3971   7.4038

          k = 0.0000 0.0000-0.5000 (  5110 PWs)   bands (ev):

   -64.8963 -64.8958 -64.8915 -64.8909 -31.6745 -31.6743 -31.6734 -31.6732
   -31.6673 -31.6672 -31.6559 -31.6559 -31.6462 -31.6460 -31.6452 -31.6450
    -8.6834  -8.6832  -7.8990  -7.8989   4.8063   4.8066   4.8115   4.8118
     5.0806   5.0809   5.9337   5.9341   6.9173   6.9174   6.9272   6.9274

          k = 0.0000 0.2505 0.0000 (  5185 PWs)   bands (ev):

   -64.8994 -64.8927 -64.8915 -64.8909 -31.6898 -31.6898 -31.6848 -31.6644
   -31.6644 -31.6587 -31.6586 -31.6554 -31.6554 -31.6428 -31.6374 -31.6374
    -9.1875  -8.1654  -7.9293  -7.9293   4.0122   4.0122   4.0610   5.8219
     5.8219   6.1206   6.1209   6.4922   6.4922   6.6067   7.4010   7.4010

          k = 0.0000 0.2505 0.2500 (  5175 PWs)   bands (ev):

   -64.8982 -64.8927 -64.8923 -64.8913 -31.6861 -31.6854 -31.6849 -31.6721
   -31.6601 -31.6597 -31.6580 -31.6529 -31.6525 -31.6516 -31.6414 -31.6339
    -8.9993  -8.1063  -8.1023  -7.9339   4.1235   4.1252   4.2908   5.0319
     5.7984   6.0082   6.0184   6.4351   6.4387   6.5407   7.1267   7.4560

          k = 0.0000 0.2505-0.5000 (  5166 PWs)   bands (ev):

   -64.8956 -64.8951 -64.8922 -64.8916 -31.6819 -31.6817 -31.6751 -31.6750
   -31.6723 -31.6721 -31.6509 -31.6506 -31.6494 -31.6494 -31.6407 -31.6406
    -8.5477  -8.5475  -7.9886  -7.9885   4.3801   4.3803   4.7088   4.7090
     5.0546   5.0548   6.5065   6.5068   6.5347   6.5349   7.0448   7.0448

          k = 0.0000-0.5011 0.0000 (  5110 PWs)   bands (ev):

   -64.8962 -64.8958 -64.8915 -64.8909 -31.6745 -31.6745 -31.6738 -31.6738
   -31.6665 -31.6659 -31.6551 -31.6550 -31.6465 -31.6465 -31.6461 -31.6461
    -8.6854  -8.6738  -7.9005  -7.9005   4.8031   4.8031   4.8213   4.8213
     5.0751   5.0823   5.9229   5.9231   6.9129   6.9129   6.9240   6.9240

          k = 0.0000-0.5011 0.2500 (  5162 PWs)   bands (ev):

   -64.8955 -64.8951 -64.8922 -64.8916 -31.6821 -31.6818 -31.6748 -31.6745
   -31.6723 -31.6717 -31.6511 -31.6507 -31.6489 -31.6486 -31.6412 -31.6410
    -8.5502  -8.5400  -7.9909  -7.9889   4.3765   4.3837   4.7033   4.7113
     5.0502   5.0678   6.4972   6.5037   6.5226   6.5355   7.0456   7.0489

          k = 0.0000-0.5011-0.5000 (  5216 PWs)   bands (ev):

   -64.8939 -64.8939 -64.8938 -64.8928 -31.6840 -31.6838 -31.6836 -31.6836
   -31.6631 -31.6629 -31.6626 -31.6624 -31.6422 -31.6420 -31.6418 -31.6417
    -8.2483  -8.2481  -8.2418  -8.2417   4.2508   4.2509   4.2539   4.2540
     5.7179   5.7181   5.7337   5.7339   7.0151   7.0152   7.0204   7.0206

          k = 0.2500 0.0000 0.0000 (  5189 PWs)   bands (ev):

   -64.8994 -64.8927 -64.8915 -64.8909 -31.6899 -31.6882 -31.6871 -31.6647
   -31.6628 -31.6597 -31.6594 -31.6551 -31.6536 -31.6454 -31.6375 -31.6363
    -9.1887  -8.1708  -7.9291  -7.9252   4.0108   4.0173   4.0566   5.8102
     5.8140   6.1240   6.1344   6.4934   6.5058   6.6106   7.3971   7.4038

          k = 0.2500 0.0000 0.2500 (  5177 PWs)   bands (ev):

   -64.8982 -64.8927 -64.8923 -64.8912 -31.6862 -31.6861 -31.6836 -31.6730
   -31.6589 -31.6588 -31.6584 -31.6538 -31.6525 -31.6524 -31.6402 -31.6351
    -9.0004  -8.1064  -8.1064  -7.9312   4.1249   4.1249   4.2958   5.0317
     5.8048   6.0101   6.0104   6.4451   6.4451   6.5335   7.1219   7.4566

          k = 0.2500 0.0000-0.5000 (  5166 PWs)   bands (ev):

   -64.8956 -64.8951 -64.8922 -64.8916 -31.6824 -31.6822 -31.6752 -31.6751
   -31.6711 -31.6709 -31.6500 -31.6500 -31.6498 -31.6496 -31.6416 -31.6414
    -8.5483  -8.5481  -7.9894  -7.9893   4.3831   4.3833   4.7138   4.7140
     5.0583   5.0585   6.5014   6.5017   6.5283   6.5284   7.0486   7.0487

          k = 0.2500 0.2505 0.0000 (  5175 PWs)   bands (ev):

   -64.8982 -64.8927 -64.8923 -64.8913 -31.6861 -31.6854 -31.6849 -31.6721
   -31.6601 -31.6597 -31.6580 -31.6529 -31.6525 -31.6516 -31.6414 -31.6339
    -8.9993  -8.1063  -8.1023  -7.9339   4.1235   4.1252   4.2908   5.0319
     5.7984   6.0082   6.0184   6.4350   6.4387   6.5407   7.1267   7.4560

          k = 0.2500 0.2505 0.2500 (  5170 PWs)   bands (ev):

   -64.8972 -64.8927 -64.8927 -64.8919 -31.6900 -31.6898 -31.6894 -31.6715
   -31.6590 -31.6589 -31.6587 -31.6500 -31.6492 -31.6492 -31.6377 -31.6367
    -8.8313  -8.0733  -8.0732  -8.0704   3.9640   3.9648   3.9648   5.0459
     5.8026   5.8027   5.8059   6.6556   6.6616   6.6618   7.3065   7.3071

          k = 0.2500 0.2505-0.5000 (  5152 PWs)   bands (ev):

   -64.8951 -64.8947 -64.8927 -64.8920 -31.6932 -31.6930 -31.6856 -31.6855
   -31.6580 -31.6577 -31.6469 -31.6468 -31.6436 -31.6435 -31.6427 -31.6425
    -8.4383  -8.4381  -8.0390  -8.0389   3.7866   3.7867   4.1607   4.1609
     5.7883   5.7884   6.6950   6.6953   6.8218   6.8219   6.9703   6.9704

          k = 0.2500-0.5011 0.0000 (  5162 PWs)   bands (ev):

   -64.8955 -64.8951 -64.8922 -64.8916 -31.6821 -31.6818 -31.6748 -31.6745
   -31.6723 -31.6717 -31.6511 -31.6507 -31.6489 -31.6486 -31.6412 -31.6410
    -8.5502  -8.5400  -7.9909  -7.9889   4.3765   4.3837   4.7033   4.7113
     5.0502   5.0678   6.4972   6.5037   6.5226   6.5355   7.0456   7.0489

          k = 0.2500-0.5011 0.2500 (  5148 PWs)   bands (ev):

   -64.8951 -64.8946 -64.8927 -64.8921 -31.6930 -31.6928 -31.6855 -31.6854
   -31.6587 -31.6585 -31.6458 -31.6457 -31.6438 -31.6435 -31.6428 -31.6427
    -8.4406  -8.4319  -8.0397  -8.0397   3.7861   3.7862   4.1532   4.1616
     5.7885   5.7886   6.6935   6.6937   6.8232   6.8267   6.9628   6.9708

          k = 0.2500-0.5011-0.5000 (  5164 PWs)   bands (ev):

   -64.8939 -64.8939 -64.8938 -64.8928 -31.6964 -31.6962 -31.6961 -31.6961
   -31.6493 -31.6490 -31.6489 -31.6488 -31.6409 -31.6407 -31.6405 -31.6405
    -8.2106  -8.2105  -8.2060  -8.2059   3.6023   3.6024   3.6066   3.6066
     6.4742   6.4744   6.4834   6.4835   7.0169   7.0171   7.0207   7.0209

          k =-0.5000 0.0000 0.0000 (  5110 PWs)   bands (ev):

   -64.8963 -64.8958 -64.8915 -64.8909 -31.6745 -31.6743 -31.6734 -31.6732
   -31.6673 -31.6672 -31.6559 -31.6559 -31.6462 -31.6460 -31.6452 -31.6450
    -8.6833  -8.6832  -7.8990  -7.8989   4.8064   4.8065   4.8117   4.8117
     5.0806   5.0809   5.9337   5.9340   6.9173   6.9174   6.9273   6.9273

          k =-0.5000 0.0000 0.2500 (  5166 PWs)   bands (ev):

   -64.8956 -64.8951 -64.8922 -64.8916 -31.6824 -31.6822 -31.6752 -31.6751
   -31.6711 -31.6709 -31.6500 -31.6500 -31.6498 -31.6496 -31.6416 -31.6414
    -8.5483  -8.5482  -7.9894  -7.9893   4.3832   4.3832   4.7138   4.7140
     5.0584   5.0585   6.5014   6.5017   6.5283   6.5284   7.0486   7.0487

          k =-0.5000 0.0000-0.5000 (  5216 PWs)   bands (ev):

   -64.8939 -64.8939 -64.8939 -64.8928 -31.6841 -31.6839 -31.6838 -31.6838
   -31.6618 -31.6617 -31.6617 -31.6614 -31.6429 -31.6427 -31.6426 -31.6426
    -8.2466  -8.2464  -8.2464  -8.2463   4.2604   4.2605   4.2605   4.2606
     5.7249   5.7250   5.7253   5.7253   7.0145   7.0147   7.0147   7.0148

          k =-0.5000 0.2505 0.0000 (  5166 PWs)   bands (ev):

   -64.8956 -64.8951 -64.8922 -64.8916 -31.6819 -31.6817 -31.6751 -31.6750
   -31.6723 -31.6721 -31.6509 -31.6506 -31.6494 -31.6494 -31.6407 -31.6406
    -8.5476  -8.5475  -7.9886  -7.9885   4.3802   4.3802   4.7087   4.7090
     5.0547   5.0547   6.5065   6.5068   6.5348   6.5348   7.0448   7.0448

          k =-0.5000 0.2505 0.2500 (  5152 PWs)   bands (ev):

   -64.8951 -64.8947 -64.8927 -64.8920 -31.6932 -31.6930 -31.6856 -31.6855
   -31.6580 -31.6577 -31.6469 -31.6468 -31.6436 -31.6435 -31.6427 -31.6425
    -8.4383  -8.4382  -8.0390  -8.0389   3.7866   3.7867   4.1607   4.1609
     5.7883   5.7884   6.6950   6.6953   6.8218   6.8219   6.9703   6.9703

          k =-0.5000 0.2505-0.5000 (  5164 PWs)   bands (ev):

   -64.8939 -64.8939 -64.8939 -64.8928 -31.6967 -31.6964 -31.6964 -31.6964
   -31.6481 -31.6479 -31.6479 -31.6477 -31.6417 -31.6415 -31.6413 -31.6413
    -8.2091  -8.2090  -8.2090  -8.2089   3.6070   3.6071   3.6071   3.6072
     6.4812   6.4813   6.4815   6.4815   7.0156   7.0158   7.0158   7.0159

          k =-0.5000-0.5011 0.0000 (  5216 PWs)   bands (ev):

   -64.8939 -64.8939 -64.8938 -64.8928 -31.6840 -31.6838 -31.6836 -31.6836
   -31.6631 -31.6629 -31.6626 -31.6624 -31.6422 -31.6420 -31.6418 -31.6417
    -8.2482  -8.2481  -8.2418  -8.2417   4.2508   4.2509   4.2538   4.2540
     5.7180   5.7181   5.7338   5.7338   7.0151   7.0153   7.0204   7.0206

          k =-0.5000-0.5011 0.2500 (  5164 PWs)   bands (ev):

   -64.8939 -64.8939 -64.8938 -64.8928 -31.6964 -31.6962 -31.6961 -31.6961
   -31.6493 -31.6490 -31.6489 -31.6488 -31.6409 -31.6407 -31.6405 -31.6405
    -8.2106  -8.2105  -8.2060  -8.2059   3.6023   3.6024   3.6065   3.6066
     6.4743   6.4743   6.4834   6.4834   7.0170   7.0171   7.0207   7.0209

          k =-0.5000-0.5011-0.5000 (  5232 PWs)   bands (ev):

   -64.8939 -64.8939 -64.8939 -64.8928 -31.7059 -31.7056 -31.7056 -31.7056
   -31.6427 -31.6425 -31.6423 -31.6423 -31.6416 -31.6413 -31.6413 -31.6412
    -8.1711  -8.1710  -8.1710  -8.1709   3.1843   3.1844   3.1844   3.1844
     7.0161   7.0163   7.0163   7.0165   7.0203   7.0203   7.0205   7.0205

     highest occupied level (ev):     7.6231

!    total energy              =    -608.39255593 Ry
     Harris-Foulkes estimate   =    -608.39255593 Ry
     estimated scf accuracy    <          1.5E-09 Ry

     The total energy is the sum of the following terms:

     one-electron contribution =    -304.39043742 Ry
     hartree contribution      =     168.34600206 Ry
     xc contribution           =     -97.82888634 Ry
     ewald contribution        =    -374.51923422 Ry

     convergence has been achieved in   9 iterations

     Forces acting on atoms (cartesian axes, Ry/au):

     atom    1 type  1   force =     0.00000000    0.00116866    0.00000000
     atom    2 type  1   force =     0.00000000   -0.00114600    0.00000000
     atom    3 type  1   force =     0.00000000    0.00116959    0.00000000
     atom    4 type  1   force =     0.00000000   -0.00114608    0.00000000
     atom    5 type  2   force =     0.00000000    0.00133372    0.00000000
     atom    6 type  2   force =     0.00000000   -0.00135242    0.00000000
     atom    7 type  2   force =     0.00000000    0.00133223    0.00000000
     atom    8 type  2   force =     0.00000000   -0.00135971    0.00000000

     Total force =     0.003549     Total SCF correction =     0.000024


     Computing stress (Cartesian axis) and pressure

          total   stress  (Ry/bohr**3)                   (kbar)     P=  -74.56
  -0.00051632   0.00000000   0.00000000        -75.95      0.00      0.00
   0.00000000  -0.00048783   0.00000000          0.00    -71.76      0.00
   0.00000000   0.00000000  -0.00051640          0.00      0.00    -75.97


     BFGS Geometry Optimization

     number of scf cycles    =   1
     number of bfgs steps    =   0

     energy   new            =    -608.3925559301 Ry

     new trust radius        =       0.0013597092 bohr
     new conv_thr            =       0.0000000100 Ry


ATOMIC_POSITIONS (alat)
Mg       0.000000000   0.000144959   0.000000000
Mg       0.000000000   0.499857852   0.500000000
Mg       0.500000000   0.000145075   0.500000000
Mg       0.500000000   0.499857842   0.000000000
O        0.500000000   0.000165433   0.000000000
O        0.000000000   0.499832247   0.000000000
O        0.000000000   0.000165249   0.500000000
O        0.500000000   0.499831343   0.500000000



     Writing output data file diamond.8.06198989925.70.4.save
     NEW-OLD atomic charge density approx. for the potential

     Check: negative/imaginary core charge=   -0.000007    0.000000

     total cpu time spent up to now is       11.6 secs

     per-process dynamical memory:    50.7 Mb

     Self-consistent Calculation

     iteration #  1     ecut=    70.00 Ry     beta=0.70
     Davidson diagonalization with overlap
     ethr =  1.00E-06,  avg # of iterations =  3.0

     Threshold (ethr) on eigenvalues was too large:
     Diagonalizing with lowered threshold

     Davidson diagonalization with overlap
     ethr =  3.49E-09,  avg # of iterations =  2.0

     total cpu time spent up to now is       14.1 secs

     total energy              =    -608.39256583 Ry
     Harris-Foulkes estimate   =    -608.39256753 Ry
     estimated scf accuracy    <       0.00000231 Ry

     iteration #  2     ecut=    70.00 Ry     beta=0.70
     Davidson diagonalization with overlap
     ethr =  3.61E-09,  avg # of iterations =  2.2

     total cpu time spent up to now is       15.3 secs

     total energy              =    -608.39256653 Ry
     Harris-Foulkes estimate   =    -608.39256677 Ry
     estimated scf accuracy    <       0.00000039 Ry

     iteration #  3     ecut=    70.00 Ry     beta=0.70
     Davidson diagonalization with overlap
     ethr =  6.15E-10,  avg # of iterations =  2.0

     total cpu time spent up to now is       16.3 secs

     End of self-consistent calculation

          k = 0.0000 0.0000 0.0000 (  5169 PWs)   bands (ev):

   -64.9010 -64.8918 -64.8917 -64.8909 -31.6959 -31.6959 -31.6949 -31.6594
   -31.6593 -31.6589 -31.6589 -31.6581 -31.6580 -31.6323 -31.6323 -31.6292
    -9.3950  -7.9578  -7.9576  -7.9521   3.7218   3.7218   3.7288   6.3294
     6.3295   6.3311   6.3316   6.3447   6.3447   7.6184   7.6232   7.6232

          k = 0.0000 0.0000 0.2500 (  5189 PWs)   bands (ev):

   -64.8996 -64.8930 -64.8917 -64.8911 -31.6901 -31.6884 -31.6873 -31.6649
   -31.6630 -31.6599 -31.6596 -31.6553 -31.6538 -31.6456 -31.6377 -31.6365
    -9.1886  -8.1707  -7.9290  -7.9251   4.0108   4.0174   4.0566   5.8103
     5.8140   6.1241   6.1345   6.4934   6.5058   6.6107   7.3972   7.4039

          k = 0.0000 0.0000-0.5000 (  5110 PWs)   bands (ev):

   -64.8965 -64.8960 -64.8917 -64.8911 -31.6747 -31.6745 -31.6736 -31.6734
   -31.6675 -31.6674 -31.6561 -31.6561 -31.6464 -31.6462 -31.6454 -31.6452
    -8.6833  -8.6831  -7.8989  -7.8988   4.8064   4.8066   4.8116   4.8119
     5.0806   5.0809   5.9338   5.9341   6.9174   6.9175   6.9273   6.9274

          k = 0.0000 0.2505 0.0000 (  5185 PWs)   bands (ev):

   -64.8996 -64.8929 -64.8918 -64.8911 -31.6900 -31.6900 -31.6850 -31.6646
   -31.6646 -31.6589 -31.6588 -31.6556 -31.6556 -31.6430 -31.6376 -31.6376
    -9.1874  -8.1654  -7.9293  -7.9291   4.0123   4.0123   4.0611   5.8219
     5.8219   6.1206   6.1210   6.4923   6.4923   6.6067   7.4011   7.4011

          k = 0.0000 0.2505 0.2500 (  5175 PWs)   bands (ev):

   -64.8984 -64.8929 -64.8925 -64.8915 -31.6863 -31.6856 -31.6851 -31.6723
   -31.6603 -31.6599 -31.6582 -31.6531 -31.6527 -31.6518 -31.6416 -31.6341
    -8.9992  -8.1062  -8.1022  -7.9338   4.1236   4.1253   4.2909   5.0319
     5.7985   6.0083   6.0185   6.4352   6.4388   6.5407   7.1268   7.4561

          k = 0.0000 0.2505-0.5000 (  5166 PWs)   bands (ev):

   -64.8958 -64.8954 -64.8924 -64.8918 -31.6821 -31.6819 -31.6753 -31.6752
   -31.6725 -31.6723 -31.6510 -31.6508 -31.6496 -31.6496 -31.6409 -31.6408
    -8.5476  -8.5474  -7.9885  -7.9884   4.3802   4.3803   4.7088   4.7090
     5.0546   5.0549   6.5066   6.5069   6.5348   6.5349   7.0448   7.0449

          k = 0.0000-0.5011 0.0000 (  5110 PWs)   bands (ev):

   -64.8965 -64.8960 -64.8918 -64.8912 -31.6746 -31.6746 -31.6741 -31.6741
   -31.6666 -31.6662 -31.6553 -31.6552 -31.6467 -31.6467 -31.6463 -31.6463
    -8.6835  -8.6755  -7.9005  -7.9003   4.8059   4.8059   4.8186   4.8186
     5.0763   5.0813   5.9228   5.9233   6.9147   6.9147   6.9224   6.9224

          k = 0.0000-0.5011 0.2500 (  5162 PWs)   bands (ev):

   -64.8958 -64.8953 -64.8924 -64.8918 -31.6823 -31.6820 -31.6750 -31.6747
   -31.6724 -31.6720 -31.6513 -31.6509 -31.6490 -31.6488 -31.6414 -31.6412
    -8.5486  -8.5415  -7.9905  -7.9891   4.3776   4.3827   4.7046   4.7101
     5.0529   5.0652   6.4982   6.5028   6.5246   6.5336   7.0461   7.0485

          k = 0.0000-0.5011-0.5000 (  5216 PWs)   bands (ev):

   -64.8941 -64.8941 -64.8941 -64.8931 -31.6842 -31.6840 -31.6838 -31.6838
   -31.6633 -31.6631 -31.6629 -31.6626 -31.6423 -31.6422 -31.6420 -31.6419
    -8.2472  -8.2471  -8.2427  -8.2426   4.2513   4.2515   4.2534   4.2535
     5.7204   5.7206   5.7314   5.7316   7.0160   7.0161   7.0197   7.0198

          k = 0.2500 0.0000 0.0000 (  5189 PWs)   bands (ev):

   -64.8996 -64.8930 -64.8917 -64.8911 -31.6901 -31.6884 -31.6873 -31.6649
   -31.6630 -31.6599 -31.6596 -31.6553 -31.6538 -31.6456 -31.6377 -31.6365
    -9.1886  -8.1707  -7.9291  -7.9251   4.0108   4.0174   4.0566   5.8103
     5.8140   6.1241   6.1345   6.4934   6.5058   6.6107   7.3972   7.4039

          k = 0.2500 0.0000 0.2500 (  5177 PWs)   bands (ev):

   -64.8984 -64.8929 -64.8925 -64.8915 -31.6864 -31.6863 -31.6837 -31.6732
   -31.6591 -31.6590 -31.6586 -31.6540 -31.6527 -31.6526 -31.6404 -31.6353
    -9.0003  -8.1064  -8.1062  -7.9311   4.1249   4.1250   4.2959   5.0318
     5.8048   6.0101   6.0105   6.4451   6.4452   6.5336   7.1220   7.4566

          k = 0.2500 0.0000-0.5000 (  5166 PWs)   bands (ev):

   -64.8958 -64.8954 -64.8924 -64.8918 -31.6826 -31.6824 -31.6753 -31.6753
   -31.6713 -31.6711 -31.6502 -31.6501 -31.6500 -31.6498 -31.6418 -31.6416
    -8.5482  -8.5481  -7.9893  -7.9892   4.3832   4.3834   4.7139   4.7141
     5.0583   5.0586   6.5017   6.5019   6.5281   6.5283   7.0487   7.0488

          k = 0.2500 0.2505 0.0000 (  5175 PWs)   bands (ev):

   -64.8984 -64.8929 -64.8925 -64.8915 -31.6863 -31.6856 -31.6851 -31.6723
   -31.6603 -31.6599 -31.6582 -31.6531 -31.6527 -31.6518 -31.6416 -31.6341
    -8.9992  -8.1062  -8.1022  -7.9338   4.1236   4.1253   4.2908   5.0319
     5.7985   6.0083   6.0185   6.4351   6.4388   6.5407   7.1268   7.4561

          k = 0.2500 0.2505 0.2500 (  5170 PWs)   bands (ev):

   -64.8974 -64.8929 -64.8929 -64.8921 -31.6902 -31.6900 -31.6896 -31.6717
   -31.6592 -31.6591 -31.6589 -31.6502 -31.6494 -31.6494 -31.6379 -31.6369
    -8.8312  -8.0733  -8.0731  -8.0703   3.9640   3.9649   3.9649   5.0460
     5.8026   5.8028   5.8060   6.6557   6.6617   6.6619   7.3065   7.3072

          k = 0.2500 0.2505-0.5000 (  5152 PWs)   bands (ev):

   -64.8953 -64.8949 -64.8929 -64.8923 -31.6934 -31.6932 -31.6858 -31.6857
   -31.6582 -31.6579 -31.6471 -31.6470 -31.6438 -31.6437 -31.6429 -31.6427
    -8.4382  -8.4381  -8.0389  -8.0389   3.7867   3.7867   4.1608   4.1609
     5.7884   5.7884   6.6951   6.6954   6.8219   6.8220   6.9703   6.9704

          k = 0.2500-0.5011 0.0000 (  5162 PWs)   bands (ev):

   -64.8958 -64.8953 -64.8924 -64.8918 -31.6823 -31.6820 -31.6750 -31.6747
   -31.6724 -31.6720 -31.6513 -31.6509 -31.6490 -31.6488 -31.6414 -31.6412
    -8.5486  -8.5414  -7.9905  -7.9891   4.3776   4.3827   4.7046   4.7101
     5.0529   5.0652   6.4983   6.5028   6.5246   6.5336   7.0461   7.0485

          k = 0.2500-0.5011 0.2500 (  5148 PWs)   bands (ev):

   -64.8953 -64.8949 -64.8929 -64.8923 -31.6932 -31.6930 -31.6857 -31.6856
   -31.6589 -31.6586 -31.6459 -31.6459 -31.6440 -31.6437 -31.6430 -31.6429
    -8.4392  -8.4331  -8.0397  -8.0395   3.7862   3.7862   4.1546   4.1604
     5.7886   5.7887   6.6935   6.6938   6.8237   6.8262   6.9641   6.9697

          k = 0.2500-0.5011-0.5000 (  5164 PWs)   bands (ev):

   -64.8941 -64.8941 -64.8941 -64.8931 -31.6966 -31.6964 -31.6963 -31.6963
   -31.6494 -31.6492 -31.6492 -31.6490 -31.6411 -31.6409 -31.6407 -31.6407
    -8.2098  -8.2097  -8.2066  -8.2065   3.6030   3.6031   3.6059   3.6060
     6.4757   6.4758   6.4821   6.4822   7.0176   7.0178   7.0202   7.0204

          k =-0.5000 0.0000 0.0000 (  5110 PWs)   bands (ev):

   -64.8965 -64.8960 -64.8917 -64.8911 -31.6747 -31.6745 -31.6736 -31.6734
   -31.6675 -31.6674 -31.6561 -31.6561 -31.6464 -31.6462 -31.6454 -31.6452
    -8.6832  -8.6832  -7.8989  -7.8988   4.8065   4.8065   4.8117   4.8117
     5.0806   5.0809   5.9338   5.9341   6.9174   6.9174   6.9274   6.9274

          k =-0.5000 0.0000 0.2500 (  5166 PWs)   bands (ev):

   -64.8958 -64.8954 -64.8924 -64.8918 -31.6826 -31.6824 -31.6753 -31.6753
   -31.6713 -31.6711 -31.6502 -31.6501 -31.6500 -31.6498 -31.6418 -31.6416
    -8.5482  -8.5481  -7.9893  -7.9892   4.3832   4.3833   4.7139   4.7141
     5.0585   5.0585   6.5017   6.5019   6.5282   6.5282   7.0487   7.0488

          k =-0.5000 0.0000-0.5000 (  5216 PWs)   bands (ev):

   -64.8941 -64.8941 -64.8941 -64.8931 -31.6843 -31.6841 -31.6840 -31.6840
   -31.6620 -31.6619 -31.6619 -31.6616 -31.6431 -31.6429 -31.6428 -31.6428
    -8.2465  -8.2464  -8.2463  -8.2462   4.2605   4.2605   4.2605   4.2607
     5.7249   5.7249   5.7254   5.7254   7.0146   7.0147   7.0147   7.0150

          k =-0.5000 0.2505 0.0000 (  5166 PWs)   bands (ev):

   -64.8958 -64.8954 -64.8924 -64.8918 -31.6820 -31.6819 -31.6752 -31.6752
   -31.6725 -31.6723 -31.6511 -31.6508 -31.6496 -31.6496 -31.6409 -31.6408
    -8.5475  -8.5475  -7.9885  -7.9884   4.3802   4.3803   4.7088   4.7090
     5.0548   5.0548   6.5066   6.5069   6.5348   6.5348   7.0448   7.0449

          k =-0.5000 0.2505 0.2500 (  5152 PWs)   bands (ev):

   -64.8953 -64.8949 -64.8929 -64.8923 -31.6934 -31.6932 -31.6858 -31.6857
   -31.6582 -31.6579 -31.6471 -31.6470 -31.6438 -31.6437 -31.6429 -31.6427
    -8.4382  -8.4381  -8.0389  -8.0389   3.7866   3.7867   4.1608   4.1609
     5.7884   5.7884   6.6951   6.6954   6.8219   6.8220   6.9704   6.9704

          k =-0.5000 0.2505-0.5000 (  5164 PWs)   bands (ev):

   -64.8941 -64.8941 -64.8941 -64.8931 -31.6969 -31.6966 -31.6966 -31.6966
   -31.6483 -31.6481 -31.6481 -31.6479 -31.6419 -31.6417 -31.6415 -31.6415
    -8.2091  -8.2090  -8.2088  -8.2088   3.6071   3.6072   3.6072   3.6072
     6.4812   6.4813   6.4816   6.4816   7.0158   7.0158   7.0158   7.0161

          k =-0.5000-0.5011 0.0000 (  5216 PWs)   bands (ev):

   -64.8941 -64.8941 -64.8941 -64.8931 -31.6842 -31.6840 -31.6838 -31.6838
   -31.6633 -31.6631 -31.6629 -31.6626 -31.6423 -31.6422 -31.6420 -31.6419
    -8.2472  -8.2471  -8.2427  -8.2426   4.2513   4.2515   4.2534   4.2535
     5.7205   5.7205   5.7315   5.7315   7.0160   7.0161   7.0197   7.0198

          k =-0.5000-0.5011 0.2500 (  5164 PWs)   bands (ev):

   -64.8941 -64.8941 -64.8941 -64.8931 -31.6966 -31.6964 -31.6963 -31.6963
   -31.6494 -31.6492 -31.6492 -31.6490 -31.6411 -31.6409 -31.6407 -31.6407
    -8.2098  -8.2097  -8.2066  -8.2065   3.6030   3.6031   3.6059   3.6060
     6.4757   6.4758   6.4821   6.4822   7.0176   7.0178   7.0202   7.0204

          k =-0.5000-0.5011-0.5000 (  5232 PWs)   bands (ev):

   -64.8941 -64.8941 -64.8941 -64.8931 -31.7061 -31.7058 -31.7058 -31.7058
   -31.6429 -31.6427 -31.6425 -31.6425 -31.6418 -31.6415 -31.6415 -31.6414
    -8.1711  -8.1710  -8.1709  -8.1708   3.1843   3.1844   3.1844   3.1845
     7.0163   7.0163   7.0163   7.0166   7.0203   7.0204   7.0206   7.0206

     highest occupied level (ev):     7.6232

!    total energy              =    -608.39256662 Ry
     Harris-Foulkes estimate   =    -608.39256662 Ry
     estimated scf accuracy    <          3.0E-09 Ry

     The total energy is the sum of the following terms:

     one-electron contribution =    -304.38862004 Ry
     hartree contribution      =     168.34512355 Ry
     xc contribution           =     -97.82886407 Ry
     ewald contribution        =    -374.52020606 Ry

     convergence has been achieved in   3 iterations

     Forces acting on atoms (cartesian axes, Ry/au):

     atom    1 type  1   force =     0.00000000    0.00072530    0.00000000
     atom    2 type  1   force =     0.00000000   -0.00072956    0.00000000
     atom    3 type  1   force =     0.00000000    0.00074857    0.00000000
     atom    4 type  1   force =     0.00000000   -0.00072937    0.00000000
     atom    5 type  2   force =     0.00000000    0.00094201    0.00000000
     atom    6 type  2   force =     0.00000000   -0.00094658    0.00000000
     atom    7 type  2   force =     0.00000000    0.00093859    0.00000000
     atom    8 type  2   force =     0.00000000   -0.00094896    0.00000000

     Total force =     0.002391     Total SCF correction =     0.000186


     Computing stress (Cartesian axis) and pressure

          total   stress  (Ry/bohr**3)                   (kbar)     P=  -74.53
  -0.00051602   0.00000000   0.00000000        -75.91      0.00      0.00
   0.00000000  -0.00048772   0.00000000          0.00    -71.75      0.00
   0.00000000   0.00000000  -0.00051611          0.00      0.00    -75.92


     number of scf cycles    =   2
     number of bfgs steps    =   1

     energy   old            =    -608.3925559301 Ry
     energy   new            =    -608.3925666173 Ry

     CASE: energy  _new < energy  _old

     new trust radius        =       0.0014956801 bohr
     new conv_thr            =       0.0000000001 Ry


ATOMIC_POSITIONS (alat)
Mg       0.000000000   0.000286847   0.000000000
Mg       0.000000000   0.499715150   0.500000000
Mg       0.500000000   0.000291489   0.500000000
Mg       0.500000000   0.499715177   0.000000000
O        0.500000000   0.000349587   0.000000000
O        0.000000000   0.499647194   0.000000000
O        0.000000000   0.000348735   0.500000000
O        0.500000000   0.499645821   0.500000000



     Writing output data file diamond.8.06198989925.70.4.save
     NEW-OLD atomic charge density approx. for the potential

     Check: negative/imaginary core charge=   -0.000007    0.000000

     total cpu time spent up to now is       17.0 secs

     per-process dynamical memory:    50.7 Mb

     Self-consistent Calculation

     iteration #  1     ecut=    70.00 Ry     beta=0.70
     Davidson diagonalization with overlap
     ethr =  1.00E-06,  avg # of iterations =  3.0

     Threshold (ethr) on eigenvalues was too large:
     Diagonalizing with lowered threshold

     Davidson diagonalization with overlap
     ethr =  4.17E-09,  avg # of iterations =  2.0

     total cpu time spent up to now is       19.5 secs

     total energy              =    -608.39257286 Ry
     Harris-Foulkes estimate   =    -608.39257488 Ry
     estimated scf accuracy    <       0.00000275 Ry

     iteration #  2     ecut=    70.00 Ry     beta=0.70
     Davidson diagonalization with overlap
     ethr =  4.30E-09,  avg # of iterations =  2.2

     total cpu time spent up to now is       20.6 secs

     total energy              =    -608.39257369 Ry
     Harris-Foulkes estimate   =    -608.39257398 Ry
     estimated scf accuracy    <       0.00000047 Ry

     iteration #  3     ecut=    70.00 Ry     beta=0.70
     Davidson diagonalization with overlap
     ethr =  7.28E-10,  avg # of iterations =  2.0

     total cpu time spent up to now is       21.7 secs

     total energy              =    -608.39257380 Ry
     Harris-Foulkes estimate   =    -608.39257380 Ry
     estimated scf accuracy    <          3.2E-09 Ry

     iteration #  4     ecut=    70.00 Ry     beta=0.70
     Davidson diagonalization with overlap
     ethr =  5.06E-12,  avg # of iterations =  3.0

     total cpu time spent up to now is       23.1 secs

     total energy              =    -608.39257380 Ry
     Harris-Foulkes estimate   =    -608.39257380 Ry
     estimated scf accuracy    <          1.1E-09 Ry

     iteration #  5     ecut=    70.00 Ry     beta=0.70
     Davidson diagonalization with overlap
     ethr =  1.70E-12,  avg # of iterations =  2.8

     total cpu time spent up to now is       24.3 secs

     End of self-consistent calculation

          k = 0.0000 0.0000 0.0000 (  5169 PWs)   bands (ev):

   -64.9010 -64.8918 -64.8917 -64.8909 -31.6959 -31.6959 -31.6949 -31.6593
   -31.6593 -31.6589 -31.6589 -31.6581 -31.6580 -31.6323 -31.6323 -31.6292
    -9.3950  -7.9578  -7.9577  -7.9522   3.7218   3.7218   3.7288   6.3294
     6.3295   6.3311   6.3315   6.3447   6.3447   7.6184   7.6231   7.6231

          k = 0.0000 0.0000 0.2500 (  5189 PWs)   bands (ev):

   -64.8996 -64.8930 -64.8917 -64.8911 -31.6901 -31.6884 -31.6873 -31.6649
   -31.6630 -31.6599 -31.6596 -31.6553 -31.6538 -31.6456 -31.6376 -31.6365
    -9.1886  -8.1707  -7.9291  -7.9251   4.0108   4.0174   4.0566   5.8103
     5.8140   6.1241   6.1345   6.4934   6.5058   6.6107   7.3972   7.4038

          k = 0.0000 0.0000-0.5000 (  5110 PWs)   bands (ev):

   -64.8965 -64.8960 -64.8917 -64.8911 -31.6747 -31.6745 -31.6736 -31.6734
   -31.6675 -31.6674 -31.6561 -31.6561 -31.6464 -31.6462 -31.6454 -31.6452
    -8.6833  -8.6831  -7.8989  -7.8988   4.8064   4.8066   4.8116   4.8118
     5.0806   5.0809   5.9338   5.9342   6.9173   6.9175   6.9273   6.9274

          k = 0.0000 0.2505 0.0000 (  5185 PWs)   bands (ev):

   -64.8996 -64.8929 -64.8918 -64.8911 -31.6900 -31.6900 -31.6850 -31.6646
   -31.6646 -31.6589 -31.6588 -31.6556 -31.6556 -31.6430 -31.6376 -31.6376
    -9.1874  -8.1654  -7.9293  -7.9292   4.0123   4.0123   4.0610   5.8219
     5.8219   6.1206   6.1209   6.4923   6.4923   6.6067   7.4010   7.4011

          k = 0.0000 0.2505 0.2500 (  5175 PWs)   bands (ev):

   -64.8984 -64.8929 -64.8925 -64.8915 -31.6863 -31.6856 -31.6851 -31.6723
   -31.6603 -31.6599 -31.6582 -31.6531 -31.6527 -31.6518 -31.6416 -31.6341
    -8.9992  -8.1062  -8.1023  -7.9338   4.1236   4.1253   4.2909   5.0319
     5.7985   6.0083   6.0184   6.4352   6.4388   6.5407   7.1267   7.4561

          k = 0.0000 0.2505-0.5000 (  5166 PWs)   bands (ev):

   -64.8958 -64.8954 -64.8924 -64.8918 -31.6820 -31.6819 -31.6752 -31.6752
   -31.6725 -31.6723 -31.6510 -31.6508 -31.6496 -31.6496 -31.6409 -31.6408
    -8.5476  -8.5474  -7.9885  -7.9884   4.3801   4.3803   4.7088   4.7090
     5.0546   5.0549   6.5066   6.5069   6.5347   6.5349   7.0448   7.0449

          k = 0.0000-0.5011 0.0000 (  5110 PWs)   bands (ev):

   -64.8965 -64.8960 -64.8918 -64.8912 -31.6745 -31.6745 -31.6742 -31.6742
   -31.6665 -31.6662 -31.6553 -31.6552 -31.6466 -31.6466 -31.6464 -31.6464
    -8.6817  -8.6774  -7.9004  -7.9004   4.8088   4.8088   4.8157   4.8157
     5.0775   5.0800   5.9229   5.9232   6.9165   6.9165   6.9205   6.9206

          k = 0.0000-0.5011 0.2500 (  5162 PWs)   bands (ev):

   -64.8958 -64.8953 -64.8924 -64.8918 -31.6823 -31.6820 -31.6749 -31.6748
   -31.6724 -31.6720 -31.6512 -31.6509 -31.6490 -31.6489 -31.6414 -31.6412
    -8.5469  -8.5431  -7.9902  -7.9894   4.3788   4.3816   4.7059   4.7087
     5.0557   5.0624   6.4993   6.5017   6.5267   6.5315   7.0466   7.0479

          k = 0.0000-0.5011-0.5000 (  5216 PWs)   bands (ev):

   -64.8941 -64.8941 -64.8941 -64.8931 -31.6842 -31.6840 -31.6838 -31.6838
   -31.6632 -31.6630 -31.6629 -31.6627 -31.6423 -31.6421 -31.6420 -31.6420
    -8.2462  -8.2460  -8.2438  -8.2437   4.2519   4.2520   4.2528   4.2530
     5.7229   5.7231   5.7288   5.7290   7.0168   7.0170   7.0187   7.0189

          k = 0.2500 0.0000 0.0000 (  5189 PWs)   bands (ev):

   -64.8996 -64.8930 -64.8917 -64.8911 -31.6901 -31.6884 -31.6873 -31.6649
   -31.6630 -31.6599 -31.6596 -31.6553 -31.6538 -31.6456 -31.6377 -31.6365
    -9.1886  -8.1707  -7.9291  -7.9251   4.0108   4.0174   4.0566   5.8103
     5.8140   6.1241   6.1345   6.4934   6.5058   6.6107   7.3972   7.4039

          k = 0.2500 0.0000 0.2500 (  5177 PWs)   bands (ev):

   -64.8984 -64.8929 -64.8925 -64.8915 -31.6864 -31.6863 -31.6837 -31.6732
   -31.6591 -31.6590 -31.6586 -31.6540 -31.6527 -31.6526 -31.6404 -31.6353
    -9.0003  -8.1063  -8.1063  -7.9311   4.1249   4.1249   4.2958   5.0318
     5.8048   6.0101   6.0105   6.4451   6.4451   6.5336   7.1220   7.4566

          k = 0.2500 0.0000-0.5000 (  5166 PWs)   bands (ev):

   -64.8958 -64.8954 -64.8924 -64.8918 -31.6826 -31.6824 -31.6753 -31.6753
   -31.6713 -31.6711 -31.6502 -31.6501 -31.6500 -31.6498 -31.6418 -31.6416
    -8.5483  -8.5481  -7.9893  -7.9892   4.3832   4.3834   4.7139   4.7141
     5.0583   5.0585   6.5018   6.5021   6.5280   6.5281   7.0487   7.0487

          k = 0.2500 0.2505 0.0000 (  5175 PWs)   bands (ev):

   -64.8984 -64.8929 -64.8925 -64.8915 -31.6863 -31.6856 -31.6851 -31.6723
   -31.6603 -31.6599 -31.6582 -31.6531 -31.6527 -31.6518 -31.6416 -31.6341
    -8.9992  -8.1062  -8.1023  -7.9338   4.1236   4.1253   4.2908   5.0319
     5.7985   6.0083   6.0184   6.4352   6.4387   6.5407   7.1267   7.4561

          k = 0.2500 0.2505 0.2500 (  5170 PWs)   bands (ev):

   -64.8974 -64.8929 -64.8929 -64.8921 -31.6902 -31.6900 -31.6896 -31.6717
   -31.6592 -31.6591 -31.6589 -31.6502 -31.6494 -31.6494 -31.6379 -31.6369
    -8.8312  -8.0732  -8.0731  -8.0704   3.9640   3.9648   3.9649   5.0460
     5.8026   5.8027   5.8059   6.6557   6.6617   6.6618   7.3065   7.3072

          k = 0.2500 0.2505-0.5000 (  5152 PWs)   bands (ev):

   -64.8953 -64.8949 -64.8929 -64.8923 -31.6934 -31.6932 -31.6858 -31.6857
   -31.6581 -31.6579 -31.6471 -31.6470 -31.6438 -31.6437 -31.6429 -31.6427
    -8.4382  -8.4381  -8.0390  -8.0389   3.7866   3.7867   4.1608   4.1609
     5.7884   5.7884   6.6951   6.6954   6.8218   6.8220   6.9703   6.9704

          k = 0.2500-0.5011 0.0000 (  5162 PWs)   bands (ev):

   -64.8958 -64.8953 -64.8924 -64.8918 -31.6823 -31.6820 -31.6749 -31.6748
   -31.6724 -31.6720 -31.6512 -31.6509 -31.6490 -31.6489 -31.6414 -31.6412
    -8.5469  -8.5431  -7.9902  -7.9894   4.3787   4.3816   4.7059   4.7087
     5.0557   5.0623   6.4993   6.5017   6.5267   6.5315   7.0466   7.0479

          k = 0.2500-0.5011 0.2500 (  5148 PWs)   bands (ev):

   -64.8953 -64.8949 -64.8929 -64.8923 -31.6932 -31.6930 -31.6857 -31.6856
   -31.6589 -31.6586 -31.6459 -31.6459 -31.6440 -31.6437 -31.6430 -31.6429
    -8.4378  -8.4345  -8.0396  -8.0396   3.7862   3.7862   4.1560   4.1589
     5.7886   5.7886   6.6935   6.6937   6.8243   6.8257   6.9654   6.9683

          k = 0.2500-0.5011-0.5000 (  5164 PWs)   bands (ev):

   -64.8941 -64.8941 -64.8941 -64.8931 -31.6966 -31.6964 -31.6963 -31.6963
   -31.6494 -31.6492 -31.6492 -31.6490 -31.6411 -31.6409 -31.6407 -31.6407
    -8.2091  -8.2090  -8.2074  -8.2073   3.6037   3.6038   3.6052   3.6053
     6.4772   6.4773   6.4806   6.4807   7.0182   7.0184   7.0196   7.0197

          k =-0.5000 0.0000 0.0000 (  5110 PWs)   bands (ev):

   -64.8965 -64.8960 -64.8917 -64.8911 -31.6747 -31.6745 -31.6736 -31.6734
   -31.6675 -31.6674 -31.6561 -31.6560 -31.6464 -31.6462 -31.6454 -31.6452
    -8.6833  -8.6832  -7.8989  -7.8988   4.8065   4.8065   4.8117   4.8117
     5.0806   5.0809   5.9338   5.9341   6.9174   6.9174   6.9273   6.9273

          k =-0.5000 0.0000 0.2500 (  5166 PWs)   bands (ev):

   -64.8958 -64.8954 -64.8924 -64.8918 -31.6826 -31.6824 -31.6753 -31.6753
   -31.6713 -31.6711 -31.6502 -31.6501 -31.6500 -31.6498 -31.6418 -31.6416
    -8.5482  -8.5481  -7.9893  -7.9892   4.3833   4.3833   4.7139   4.7141
     5.0584   5.0584   6.5018   6.5021   6.5280   6.5281   7.0487   7.0487

          k =-0.5000 0.0000-0.5000 (  5216 PWs)   bands (ev):

   -64.8941 -64.8941 -64.8941 -64.8931 -31.6843 -31.6841 -31.6840 -31.6840
   -31.6620 -31.6619 -31.6618 -31.6616 -31.6431 -31.6429 -31.6428 -31.6428
    -8.2465  -8.2464  -8.2463  -8.2463   4.2604   4.2605   4.2605   4.2607
     5.7249   5.7250   5.7253   5.7253   7.0145   7.0147   7.0147   7.0149

          k =-0.5000 0.2505 0.0000 (  5166 PWs)   bands (ev):

   -64.8958 -64.8954 -64.8924 -64.8918 -31.6820 -31.6819 -31.6752 -31.6752
   -31.6725 -31.6723 -31.6510 -31.6508 -31.6496 -31.6496 -31.6409 -31.6407
    -8.5475  -8.5474  -7.9885  -7.9884   4.3802   4.3802   4.7088   4.7090
     5.0548   5.0548   6.5066   6.5069   6.5348   6.5348   7.0448   7.0448

          k =-0.5000 0.2505 0.2500 (  5152 PWs)   bands (ev):

   -64.8953 -64.8949 -64.8929 -64.8923 -31.6934 -31.6932 -31.6858 -31.6857
   -31.6581 -31.6579 -31.6471 -31.6470 -31.6438 -31.6437 -31.6429 -31.6427
    -8.4382  -8.4381  -8.0390  -8.0389   3.7866   3.7867   4.1608   4.1609
     5.7884   5.7884   6.6951   6.6954   6.8218   6.8220   6.9703   6.9704

          k =-0.5000 0.2505-0.5000 (  5164 PWs)   bands (ev):

   -64.8941 -64.8941 -64.8941 -64.8931 -31.6969 -31.6966 -31.6966 -31.6966
   -31.6483 -31.6481 -31.6481 -31.6479 -31.6419 -31.6417 -31.6415 -31.6415
    -8.2091  -8.2089  -8.2089  -8.2088   3.6070   3.6072   3.6072   3.6072
     6.4813   6.4813   6.4815   6.4815   7.0157   7.0159   7.0159   7.0160

          k =-0.5000-0.5011 0.0000 (  5216 PWs)   bands (ev):

   -64.8941 -64.8941 -64.8941 -64.8931 -31.6842 -31.6840 -31.6838 -31.6838
   -31.6632 -31.6630 -31.6629 -31.6627 -31.6423 -31.6421 -31.6420 -31.6420
    -8.2462  -8.2461  -8.2438  -8.2437   4.2519   4.2520   4.2528   4.2529
     5.7230   5.7230   5.7289   5.7290   7.0169   7.0170   7.0188   7.0189

          k =-0.5000-0.5011 0.2500 (  5164 PWs)   bands (ev):

   -64.8941 -64.8941 -64.8941 -64.8931 -31.6966 -31.6964 -31.6963 -31.6963
   -31.6494 -31.6492 -31.6492 -31.6490 -31.6411 -31.6409 -31.6407 -31.6407
    -8.2091  -8.2090  -8.2074  -8.2073   3.6037   3.6038   3.6052   3.6053
     6.4772   6.4772   6.4806   6.4806   7.0182   7.0184   7.0196   7.0197

          k =-0.5000-0.5011-0.5000 (  5232 PWs)   bands (ev):

   -64.8941 -64.8941 -64.8941 -64.8930 -31.7061 -31.7058 -31.7058 -31.7058
   -31.6428 -31.6427 -31.6425 -31.6425 -31.6418 -31.6415 -31.6415 -31.6414
    -8.1711  -8.1709  -8.1709  -8.1709   3.1843   3.1844   3.1844   3.1844
     7.0162   7.0164   7.0164   7.0165   7.0203   7.0204   7.0206   7.0206

     highest occupied level (ev):     7.6231

!    total energy              =    -608.39257380 Ry
     Harris-Foulkes estimate   =    -608.39257380 Ry
     estimated scf accuracy    <          8.2E-11 Ry

     The total energy is the sum of the following terms:

     one-electron contribution =    -304.38732671 Ry
     hartree contribution      =     168.34449312 Ry
     xc contribution           =     -97.82886360 Ry
     ewald contribution        =    -374.52087660 Ry

     convergence has been achieved in   5 iterations

     Forces acting on atoms (cartesian axes, Ry/au):

     atom    1 type  1   force =     0.00000000    0.00050005    0.00000000
     atom    2 type  1   force =     0.00000000   -0.00052104    0.00000000
     atom    3 type  1   force =     0.00000000    0.00054026    0.00000000
     atom    4 type  1   force =     0.00000000   -0.00052081    0.00000000
     atom    5 type  2   force =     0.00000000    0.00044265    0.00000000
     atom    6 type  2   force =     0.00000000   -0.00044161    0.00000000
     atom    7 type  2   force =     0.00000000    0.00044307    0.00000000
     atom    8 type  2   force =     0.00000000   -0.00044257    0.00000000

     Total force =     0.001367     Total SCF correction =     0.000081


     Computing stress (Cartesian axis) and pressure

          total   stress  (Ry/bohr**3)                   (kbar)     P=  -74.53
  -0.00051598   0.00000000   0.00000000        -75.90      0.00      0.00
   0.00000000  -0.00048782   0.00000000          0.00    -71.76      0.00
   0.00000000   0.00000000  -0.00051606          0.00      0.00    -75.92


     number of scf cycles    =   3
     number of bfgs steps    =   2

     energy   old            =    -608.3925666173 Ry
     energy   new            =    -608.3925737972 Ry

     CASE: energy  _new < energy  _old

     new trust radius        =       0.0018268748 bohr
     new conv_thr            =            1.0E-10 Ry


ATOMIC_POSITIONS (alat)
Mg       0.000000000   0.000499766   0.000000000
Mg       0.000000000   0.499495856   0.500000000
Mg       0.500000000   0.000518093   0.500000000
Mg       0.500000000   0.499495968   0.000000000
O        0.500000000   0.000568128   0.000000000
O        0.000000000   0.499428507   0.000000000
O        0.000000000   0.000567050   0.500000000
O        0.500000000   0.499426632   0.500000000



     Writing output data file diamond.8.06198989925.70.4.save
     NEW-OLD atomic charge density approx. for the potential

     Check: negative/imaginary core charge=   -0.000007    0.000000

     total cpu time spent up to now is       25.0 secs

     per-process dynamical memory:    50.7 Mb

     Self-consistent Calculation

     iteration #  1     ecut=    70.00 Ry     beta=0.70
     Davidson diagonalization with overlap
     ethr =  1.00E-06,  avg # of iterations =  3.0

     Threshold (ethr) on eigenvalues was too large:
     Diagonalizing with lowered threshold

     Davidson diagonalization with overlap
     ethr =  6.39E-09,  avg # of iterations =  1.3

     total cpu time spent up to now is       27.4 secs

     total energy              =    -608.39257547 Ry
     Harris-Foulkes estimate   =    -608.39257854 Ry
     estimated scf accuracy    <       0.00000419 Ry

     iteration #  2     ecut=    70.00 Ry     beta=0.70
     Davidson diagonalization with overlap
     ethr =  6.54E-09,  avg # of iterations =  2.2

     total cpu time spent up to now is       28.5 secs

     total energy              =    -608.39257674 Ry
     Harris-Foulkes estimate   =    -608.39257717 Ry
     estimated scf accuracy    <       0.00000071 Ry

     iteration #  3     ecut=    70.00 Ry     beta=0.70
     Davidson diagonalization with overlap
     ethr =  1.11E-09,  avg # of iterations =  2.0

     total cpu time spent up to now is       29.6 secs

     total energy              =    -608.39257690 Ry
     Harris-Foulkes estimate   =    -608.39257689 Ry
     estimated scf accuracy    <          5.1E-09 Ry

     iteration #  4     ecut=    70.00 Ry     beta=0.70
     Davidson diagonalization with overlap
     ethr =  7.93E-12,  avg # of iterations =  2.3

     total cpu time spent up to now is       30.9 secs

     total energy              =    -608.39257690 Ry
     Harris-Foulkes estimate   =    -608.39257690 Ry
     estimated scf accuracy    <          4.3E-10 Ry

     iteration #  5     ecut=    70.00 Ry     beta=0.70
     Davidson diagonalization with overlap
     ethr =  6.69E-13,  avg # of iterations =  2.4

     total cpu time spent up to now is       32.0 secs

     End of self-consistent calculation

          k = 0.0000 0.0000 0.0000 (  5169 PWs)   bands (ev):

   -64.9010 -64.8918 -64.8917 -64.8909 -31.6959 -31.6959 -31.6949 -31.6594
   -31.6594 -31.6589 -31.6589 -31.6581 -31.6580 -31.6323 -31.6323 -31.6292
    -9.3950  -7.9578  -7.9577  -7.9522   3.7218   3.7218   3.7288   6.3294
     6.3295   6.3311   6.3315   6.3447   6.3447   7.6184   7.6231   7.6231

          k = 0.0000 0.0000 0.2500 (  5189 PWs)   bands (ev):

   -64.8996 -64.8930 -64.8917 -64.8911 -31.6901 -31.6884 -31.6873 -31.6649
   -31.6630 -31.6599 -31.6596 -31.6553 -31.6538 -31.6456 -31.6377 -31.6365
    -9.1886  -8.1707  -7.9291  -7.9251   4.0108   4.0173   4.0566   5.8103
     5.8140   6.1241   6.1345   6.4934   6.5058   6.6107   7.3972   7.4038

          k = 0.0000 0.0000-0.5000 (  5110 PWs)   bands (ev):

   -64.8965 -64.8960 -64.8917 -64.8911 -31.6747 -31.6745 -31.6736 -31.6734
   -31.6675 -31.6674 -31.6561 -31.6561 -31.6464 -31.6462 -31.6454 -31.6452
    -8.6833  -8.6831  -7.8989  -7.8988   4.8064   4.8067   4.8116   4.8118
     5.0806   5.0809   5.9338   5.9342   6.9173   6.9175   6.9273   6.9274

          k = 0.0000 0.2505 0.0000 (  5185 PWs)   bands (ev):

   -64.8996 -64.8929 -64.8918 -64.8911 -31.6900 -31.6900 -31.6850 -31.6646
   -31.6646 -31.6589 -31.6588 -31.6556 -31.6556 -31.6430 -31.6376 -31.6376
    -9.1874  -8.1654  -7.9293  -7.9292   4.0123   4.0123   4.0610   5.8219
     5.8219   6.1206   6.1210   6.4923   6.4923   6.6067   7.4010   7.4011

          k = 0.0000 0.2505 0.2500 (  5175 PWs)   bands (ev):

   -64.8984 -64.8929 -64.8925 -64.8915 -31.6863 -31.6856 -31.6851 -31.6723
   -31.6603 -31.6599 -31.6582 -31.6531 -31.6527 -31.6518 -31.6416 -31.6341
    -8.9992  -8.1062  -8.1023  -7.9338   4.1236   4.1253   4.2909   5.0319
     5.7985   6.0083   6.0184   6.4352   6.4388   6.5407   7.1267   7.4561

          k = 0.0000 0.2505-0.5000 (  5166 PWs)   bands (ev):

   -64.8958 -64.8954 -64.8924 -64.8918 -31.6820 -31.6819 -31.6752 -31.6752
   -31.6725 -31.6723 -31.6511 -31.6508 -31.6496 -31.6496 -31.6409 -31.6408
    -8.5476  -8.5474  -7.9885  -7.9884   4.3801   4.3803   4.7088   4.7090
     5.0547   5.0549   6.5066   6.5069   6.5347   6.5349   7.0448   7.0449

          k = 0.0000-0.5011 0.0000 (  5110 PWs)   bands (ev):

   -64.8965 -64.8960 -64.8918 -64.8912 -31.6745 -31.6745 -31.6742 -31.6742
   -31.6664 -31.6664 -31.6553 -31.6552 -31.6466 -31.6466 -31.6464 -31.6464
    -8.6797  -8.6793  -7.9004  -7.9003   4.8120   4.8120   4.8125   4.8125
     5.0785   5.0790   5.9229   5.9232   6.9183   6.9183   6.9188   6.9188

          k = 0.0000-0.5011 0.2500 (  5162 PWs)   bands (ev):

   -64.8958 -64.8953 -64.8924 -64.8918 -31.6822 -31.6821 -31.6749 -31.6748
   -31.6723 -31.6721 -31.6512 -31.6510 -31.6490 -31.6489 -31.6414 -31.6412
    -8.5452  -8.5448  -7.9899  -7.9897   4.3801   4.3802   4.7070   4.7076
     5.0588   5.0593   6.5003   6.5007   6.5288   6.5293   7.0472   7.0473

          k = 0.0000-0.5011-0.5000 (  5216 PWs)   bands (ev):

   -64.8941 -64.8941 -64.8941 -64.8931 -31.6841 -31.6840 -31.6838 -31.6838
   -31.6632 -31.6630 -31.6630 -31.6627 -31.6423 -31.6421 -31.6420 -31.6420
    -8.2451  -8.2450  -8.2448  -8.2447   4.2522   4.2523   4.2525   4.2527
     5.7256   5.7258   5.7262   5.7264   7.0176   7.0178   7.0180   7.0181

          k = 0.2500 0.0000 0.0000 (  5189 PWs)   bands (ev):

   -64.8996 -64.8930 -64.8917 -64.8911 -31.6901 -31.6884 -31.6873 -31.6649
   -31.6630 -31.6599 -31.6596 -31.6553 -31.6538 -31.6456 -31.6377 -31.6365
    -9.1886  -8.1707  -7.9291  -7.9251   4.0108   4.0174   4.0566   5.8103
     5.8140   6.1241   6.1345   6.4934   6.5058   6.6107   7.3972   7.4039

          k = 0.2500 0.0000 0.2500 (  5177 PWs)   bands (ev):

   -64.8984 -64.8929 -64.8926 -64.8915 -31.6864 -31.6863 -31.6837 -31.6732
   -31.6591 -31.6590 -31.6586 -31.6540 -31.6527 -31.6526 -31.6404 -31.6353
    -9.0003  -8.1064  -8.1062  -7.9311   4.1249   4.1250   4.2958   5.0318
     5.8048   6.0101   6.0105   6.4451   6.4451   6.5336   7.1220   7.4566

          k = 0.2500 0.0000-0.5000 (  5166 PWs)   bands (ev):

   -64.8958 -64.8954 -64.8924 -64.8918 -31.6826 -31.6824 -31.6753 -31.6753
   -31.6714 -31.6711 -31.6501 -31.6501 -31.6500 -31.6498 -31.6418 -31.6416
    -8.5482  -8.5481  -7.9893  -7.9892   4.3832   4.3834   4.7139   4.7141
     5.0583   5.0585   6.5019   6.5021   6.5279   6.5281   7.0487   7.0487

          k = 0.2500 0.2505 0.0000 (  5175 PWs)   bands (ev):

   -64.8984 -64.8929 -64.8925 -64.8915 -31.6863 -31.6856 -31.6851 -31.6723
   -31.6603 -31.6599 -31.6582 -31.6531 -31.6527 -31.6518 -31.6416 -31.6341
    -8.9992  -8.1062  -8.1023  -7.9338   4.1236   4.1253   4.2909   5.0319
     5.7985   6.0083   6.0184   6.4352   6.4388   6.5407   7.1267   7.4561

          k = 0.2500 0.2505 0.2500 (  5170 PWs)   bands (ev):

   -64.8975 -64.8929 -64.8929 -64.8921 -31.6902 -31.6900 -31.6896 -31.6717
   -31.6592 -31.6591 -31.6589 -31.6502 -31.6494 -31.6494 -31.6379 -31.6369
    -8.8312  -8.0732  -8.0731  -8.0704   3.9640   3.9649   3.9649   5.0460
     5.8026   5.8027   5.8059   6.6557   6.6616   6.6618   7.3065   7.3072

          k = 0.2500 0.2505-0.5000 (  5152 PWs)   bands (ev):

   -64.8953 -64.8949 -64.8929 -64.8923 -31.6934 -31.6932 -31.6858 -31.6857
   -31.6582 -31.6579 -31.6471 -31.6470 -31.6438 -31.6437 -31.6429 -31.6427
    -8.4382  -8.4381  -8.0390  -8.0389   3.7866   3.7867   4.1608   4.1609
     5.7884   5.7884   6.6951   6.6954   6.8218   6.8220   6.9703   6.9704

          k = 0.2500-0.5011 0.0000 (  5162 PWs)   bands (ev):

   -64.8958 -64.8953 -64.8924 -64.8918 -31.6822 -31.6821 -31.6749 -31.6748
   -31.6723 -31.6721 -31.6512 -31.6510 -31.6490 -31.6489 -31.6414 -31.6412
    -8.5452  -8.5448  -7.9899  -7.9897   4.3801   4.3802   4.7070   4.7076
     5.0588   5.0593   6.5003   6.5007   6.5289   6.5294   7.0472   7.0473

          k = 0.2500-0.5011 0.2500 (  5148 PWs)   bands (ev):

   -64.8953 -64.8949 -64.8929 -64.8923 -31.6932 -31.6930 -31.6857 -31.6856
   -31.6589 -31.6586 -31.6459 -31.6459 -31.6440 -31.6437 -31.6430 -31.6429
    -8.4363  -8.4360  -8.0397  -8.0396   3.7862   3.7862   4.1572   4.1577
     5.7886   5.7886   6.6935   6.6937   6.8249   6.8250   6.9667   6.9671

          k = 0.2500-0.5011-0.5000 (  5164 PWs)   bands (ev):

   -64.8941 -64.8941 -64.8941 -64.8931 -31.6966 -31.6964 -31.6963 -31.6963
   -31.6494 -31.6492 -31.6492 -31.6490 -31.6411 -31.6409 -31.6408 -31.6407
    -8.2083  -8.2082  -8.2081  -8.2080   3.6043   3.6044   3.6046   3.6047
     6.4787   6.4788   6.4791   6.4792   7.0188   7.0189   7.0190   7.0192

          k =-0.5000 0.0000 0.0000 (  5110 PWs)   bands (ev):

   -64.8965 -64.8960 -64.8917 -64.8911 -31.6747 -31.6745 -31.6736 -31.6734
   -31.6675 -31.6674 -31.6561 -31.6561 -31.6464 -31.6462 -31.6454 -31.6452
    -8.6833  -8.6832  -7.8989  -7.8988   4.8065   4.8065   4.8117   4.8117
     5.0806   5.0809   5.9338   5.9341   6.9174   6.9174   6.9273   6.9273

          k =-0.5000 0.0000 0.2500 (  5166 PWs)   bands (ev):

   -64.8958 -64.8954 -64.8924 -64.8918 -31.6826 -31.6824 -31.6753 -31.6753
   -31.6713 -31.6711 -31.6501 -31.6501 -31.6500 -31.6498 -31.6418 -31.6416
    -8.5482  -8.5481  -7.9893  -7.9892   4.3833   4.3833   4.7139   4.7141
     5.0584   5.0584   6.5019   6.5021   6.5280   6.5280   7.0487   7.0487

          k =-0.5000 0.0000-0.5000 (  5216 PWs)   bands (ev):

   -64.8941 -64.8941 -64.8941 -64.8931 -31.6843 -31.6841 -31.6840 -31.6840
   -31.6620 -31.6619 -31.6619 -31.6616 -31.6431 -31.6429 -31.6428 -31.6428
    -8.2465  -8.2464  -8.2463  -8.2463   4.2604   4.2605   4.2605   4.2607
     5.7249   5.7249   5.7253   5.7253   7.0146   7.0147   7.0147   7.0149

          k =-0.5000 0.2505 0.0000 (  5166 PWs)   bands (ev):

   -64.8958 -64.8954 -64.8924 -64.8918 -31.6820 -31.6819 -31.6752 -31.6752
   -31.6725 -31.6723 -31.6511 -31.6508 -31.6496 -31.6496 -31.6409 -31.6408
    -8.5475  -8.5474  -7.9885  -7.9884   4.3802   4.3802   4.7088   4.7090
     5.0548   5.0548   6.5066   6.5069   6.5348   6.5348   7.0448   7.0449

          k =-0.5000 0.2505 0.2500 (  5152 PWs)   bands (ev):

   -64.8953 -64.8949 -64.8929 -64.8923 -31.6934 -31.6932 -31.6858 -31.6857
   -31.6582 -31.6579 -31.6471 -31.6470 -31.6438 -31.6437 -31.6429 -31.6427
    -8.4382  -8.4381  -8.0390  -8.0389   3.7866   3.7867   4.1608   4.1609
     5.7884   5.7884   6.6951   6.6954   6.8218   6.8220   6.9703   6.9704

          k =-0.5000 0.2505-0.5000 (  5164 PWs)   bands (ev):

   -64.8941 -64.8941 -64.8941 -64.8931 -31.6969 -31.6966 -31.6966 -31.6966
   -31.6483 -31.6481 -31.6481 -31.6479 -31.6419 -31.6417 -31.6415 -31.6415
    -8.2091  -8.2089  -8.2089  -8.2088   3.6070   3.6072   3.6072   3.6072
     6.4813   6.4813   6.4815   6.4816   7.0157   7.0158   7.0158   7.0161

          k =-0.5000-0.5011 0.0000 (  5216 PWs)   bands (ev):

   -64.8941 -64.8941 -64.8941 -64.8931 -31.6841 -31.6840 -31.6838 -31.6838
   -31.6632 -31.6630 -31.6630 -31.6627 -31.6423 -31.6421 -31.6420 -31.6420
    -8.2451  -8.2450  -8.2448  -8.2447   4.2522   4.2523   4.2525   4.2527
     5.7256   5.7257   5.7263   5.7263   7.0177   7.0178   7.0180   7.0181

          k =-0.5000-0.5011 0.2500 (  5164 PWs)   bands (ev):

   -64.8941 -64.8941 -64.8941 -64.8931 -31.6966 -31.6964 -31.6963 -31.6963
   -31.6494 -31.6492 -31.6492 -31.6490 -31.6411 -31.6409 -31.6408 -31.6407
    -8.2083  -8.2082  -8.2081  -8.2080   3.6043   3.6044   3.6046   3.6047
     6.4787   6.4787   6.4791   6.4792   7.0188   7.0189   7.0190   7.0192

          k =-0.5000-0.5011-0.5000 (  5232 PWs)   bands (ev):

   -64.8941 -64.8941 -64.8941 -64.8931 -31.7061 -31.7058 -31.7058 -31.7058
   -31.6429 -31.6427 -31.6425 -31.6425 -31.6418 -31.6415 -31.6415 -31.6414
    -8.1711  -8.1709  -8.1709  -8.1709   3.1843   3.1844   3.1844   3.1844
     7.0162   7.0164   7.0164   7.0166   7.0203   7.0204   7.0206   7.0206

     highest occupied level (ev):     7.6231

!    total energy              =    -608.39257690 Ry
     Harris-Foulkes estimate   =    -608.39257690 Ry
     estimated scf accuracy    <          6.7E-11 Ry

     The total energy is the sum of the following terms:

     one-electron contribution =    -304.38666047 Ry
     hartree contribution      =     168.34415305 Ry
     xc contribution           =     -97.82885398 Ry
     ewald contribution        =    -374.52121549 Ry

     convergence has been achieved in   5 iterations

     Forces acting on atoms (cartesian axes, Ry/au):

     atom    1 type  1   force =     0.00000000   -0.00000933    0.00000000
     atom    2 type  1   force =     0.00000000   -0.00003457    0.00000000
     atom    3 type  1   force =     0.00000000    0.00004635    0.00000000
     atom    4 type  1   force =     0.00000000   -0.00003428    0.00000000
     atom    5 type  2   force =     0.00000000   -0.00010357    0.00000000
     atom    6 type  2   force =     0.00000000    0.00011541    0.00000000
     atom    7 type  2   force =     0.00000000   -0.00010266    0.00000000
     atom    8 type  2   force =     0.00000000    0.00012265    0.00000000

     Total force =     0.000233     Total SCF correction =     0.000080
     SCF correction compared to forces is large: reduce conv_thr to get better values


     Computing stress (Cartesian axis) and pressure

          total   stress  (Ry/bohr**3)                   (kbar)     P=  -74.53
  -0.00051599   0.00000000   0.00000000        -75.91      0.00      0.00
   0.00000000  -0.00048790   0.00000000          0.00    -71.77      0.00
   0.00000000   0.00000000  -0.00051608          0.00      0.00    -75.92


     number of scf cycles    =   4
     number of bfgs steps    =   3

     energy   old            =    -608.3925737972 Ry
     energy   new            =    -608.3925768981 Ry

     CASE: energy  _new < energy  _old

     new trust radius        =       0.0002128157 bohr
     new conv_thr            =            1.0E-10 Ry


ATOMIC_POSITIONS (alat)
Mg       0.000000000   0.000486892   0.000000000
Mg       0.000000000   0.499504026   0.500000000
Mg       0.500000000   0.000510875   0.500000000
Mg       0.500000000   0.499504168   0.000000000
O        0.500000000   0.000543960   0.000000000
O        0.000000000   0.499454048   0.000000000
O        0.000000000   0.000543001   0.500000000
O        0.500000000   0.499453030   0.500000000



     Writing output data file diamond.8.06198989925.70.4.save
     NEW-OLD atomic charge density approx. for the potential

     Check: negative/imaginary core charge=   -0.000007    0.000000

     total cpu time spent up to now is       32.7 secs

     per-process dynamical memory:    50.7 Mb

     Self-consistent Calculation

     iteration #  1     ecut=    70.00 Ry     beta=0.70
     Davidson diagonalization with overlap
     ethr =  1.00E-06,  avg # of iterations =  1.4

     Threshold (ethr) on eigenvalues was too large:
     Diagonalizing with lowered threshold

     Davidson diagonalization with overlap
     ethr =  3.43E-11,  avg # of iterations =  3.6

     total cpu time spent up to now is       35.3 secs

     total energy              =    -608.39257694 Ry
     Harris-Foulkes estimate   =    -608.39257697 Ry
     estimated scf accuracy    <       0.00000004 Ry

     iteration #  2     ecut=    70.00 Ry     beta=0.70
     Davidson diagonalization with overlap
     ethr =  7.00E-11,  avg # of iterations =  2.2

     total cpu time spent up to now is       36.4 secs

     total energy              =    -608.39257695 Ry
     Harris-Foulkes estimate   =    -608.39257696 Ry
     estimated scf accuracy    <          7.8E-09 Ry

     iteration #  3     ecut=    70.00 Ry     beta=0.70
     Davidson diagonalization with overlap
     ethr =  1.23E-11,  avg # of iterations =  2.0

     total cpu time spent up to now is       37.4 secs

     End of self-consistent calculation

          k = 0.0000 0.0000 0.0000 (  5169 PWs)   bands (ev):

   -64.9010 -64.8918 -64.8917 -64.8909 -31.6959 -31.6959 -31.6949 -31.6594
   -31.6593 -31.6589 -31.6589 -31.6581 -31.6580 -31.6323 -31.6323 -31.6292
    -9.3950  -7.9577  -7.9577  -7.9522   3.7218   3.7218   3.7288   6.3294
     6.3295   6.3311   6.3315   6.3447   6.3447   7.6184   7.6231   7.6231

          k = 0.0000 0.0000 0.2500 (  5189 PWs)   bands (ev):

   -64.8996 -64.8930 -64.8917 -64.8911 -31.6901 -31.6884 -31.6873 -31.6649
   -31.6630 -31.6599 -31.6596 -31.6553 -31.6538 -31.6456 -31.6377 -31.6365
    -9.1886  -8.1707  -7.9291  -7.9251   4.0108   4.0173   4.0566   5.8103
     5.8140   6.1241   6.1345   6.4934   6.5058   6.6107   7.3972   7.4038

          k = 0.0000 0.0000-0.5000 (  5110 PWs)   bands (ev):

   -64.8965 -64.8960 -64.8917 -64.8911 -31.6747 -31.6745 -31.6736 -31.6734
   -31.6675 -31.6674 -31.6561 -31.6561 -31.6464 -31.6462 -31.6454 -31.6452
    -8.6833  -8.6831  -7.8989  -7.8988   4.8064   4.8067   4.8116   4.8118
     5.0806   5.0809   5.9338   5.9342   6.9173   6.9175   6.9273   6.9274

          k = 0.0000 0.2505 0.0000 (  5185 PWs)   bands (ev):

   -64.8996 -64.8929 -64.8918 -64.8911 -31.6900 -31.6900 -31.6850 -31.6646
   -31.6646 -31.6589 -31.6588 -31.6556 -31.6556 -31.6430 -31.6376 -31.6376
    -9.1874  -8.1654  -7.9293  -7.9292   4.0123   4.0123   4.0610   5.8219
     5.8219   6.1206   6.1209   6.4923   6.4923   6.6067   7.4010   7.4011

          k = 0.0000 0.2505 0.2500 (  5175 PWs)   bands (ev):

   -64.8984 -64.8929 -64.8925 -64.8915 -31.6863 -31.6856 -31.6851 -31.6723
   -31.6603 -31.6599 -31.6582 -31.6531 -31.6527 -31.6518 -31.6416 -31.6341
    -8.9992  -8.1062  -8.1023  -7.9338   4.1236   4.1253   4.2909   5.0319
     5.7985   6.0083   6.0184   6.4352   6.4388   6.5407   7.1267   7.4561

          k = 0.0000 0.2505-0.5000 (  5166 PWs)   bands (ev):

   -64.8958 -64.8954 -64.8924 -64.8918 -31.6820 -31.6819 -31.6752 -31.6752
   -31.6725 -31.6723 -31.6511 -31.6508 -31.6496 -31.6496 -31.6409 -31.6408
    -8.5476  -8.5474  -7.9885  -7.9884   4.3801   4.3803   4.7088   4.7090
     5.0547   5.0549   6.5066   6.5069   6.5347   6.5349   7.0448   7.0449

          k = 0.0000-0.5011 0.0000 (  5110 PWs)   bands (ev):

   -64.8965 -64.8960 -64.8918 -64.8912 -31.6745 -31.6745 -31.6743 -31.6742
   -31.6664 -31.6664 -31.6553 -31.6552 -31.6466 -31.6466 -31.6464 -31.6464
    -8.6795  -8.6795  -7.9004  -7.9004   4.8122   4.8122   4.8123   4.8123
     5.0786   5.0789   5.9229   5.9232   6.9185   6.9185   6.9185   6.9185

          k = 0.0000-0.5011 0.2500 (  5162 PWs)   bands (ev):

   -64.8958 -64.8953 -64.8924 -64.8918 -31.6822 -31.6821 -31.6749 -31.6748
   -31.6723 -31.6721 -31.6512 -31.6510 -31.6490 -31.6489 -31.6414 -31.6412
    -8.5451  -8.5450  -7.9898  -7.9898   4.3801   4.3802   4.7072   4.7074
     5.0590   5.0591   6.5004   6.5006   6.5291   6.5291   7.0472   7.0473

          k = 0.0000-0.5011-0.5000 (  5216 PWs)   bands (ev):

   -64.8941 -64.8941 -64.8941 -64.8931 -31.6841 -31.6840 -31.6838 -31.6838
   -31.6632 -31.6630 -31.6630 -31.6627 -31.6423 -31.6421 -31.6420 -31.6420
    -8.2450  -8.2449  -8.2448  -8.2448   4.2523   4.2524   4.2524   4.2526
     5.7257   5.7258   5.7262   5.7262   7.0177   7.0179   7.0179   7.0181

          k = 0.2500 0.0000 0.0000 (  5189 PWs)   bands (ev):

   -64.8996 -64.8930 -64.8917 -64.8911 -31.6901 -31.6884 -31.6873 -31.6649
   -31.6630 -31.6599 -31.6596 -31.6553 -31.6538 -31.6456 -31.6377 -31.6365
    -9.1886  -8.1707  -7.9291  -7.9251   4.0108   4.0174   4.0566   5.8103
     5.8140   6.1241   6.1345   6.4934   6.5058   6.6107   7.3972   7.4039

          k = 0.2500 0.0000 0.2500 (  5177 PWs)   bands (ev):

   -64.8984 -64.8929 -64.8926 -64.8915 -31.6864 -31.6863 -31.6837 -31.6732
   -31.6591 -31.6590 -31.6586 -31.6540 -31.6527 -31.6526 -31.6404 -31.6353
    -9.0003  -8.1063  -8.1063  -7.9311   4.1249   4.1249   4.2958   5.0318
     5.8048   6.0101   6.0105   6.4451   6.4451   6.5336   7.1220   7.4566

          k = 0.2500 0.0000-0.5000 (  5166 PWs)   bands (ev):

   -64.8958 -64.8954 -64.8924 -64.8918 -31.6826 -31.6824 -31.6753 -31.6753
   -31.6714 -31.6711 -31.6501 -31.6501 -31.6500 -31.6498 -31.6418 -31.6416
    -8.5483  -8.5481  -7.9893  -7.9892   4.3832   4.3834   4.7139   4.7141
     5.0583   5.0585   6.5019   6.5021   6.5279   6.5281   7.0487   7.0487

          k = 0.2500 0.2505 0.0000 (  5175 PWs)   bands (ev):

   -64.8984 -64.8929 -64.8925 -64.8915 -31.6863 -31.6856 -31.6851 -31.6723
   -31.6603 -31.6599 -31.6582 -31.6531 -31.6527 -31.6518 -31.6416 -31.6341
    -8.9992  -8.1062  -8.1023  -7.9338   4.1236   4.1253   4.2909   5.0319
     5.7985   6.0083   6.0184   6.4352   6.4387   6.5407   7.1267   7.4561

          k = 0.2500 0.2505 0.2500 (  5170 PWs)   bands (ev):

   -64.8974 -64.8929 -64.8929 -64.8921 -31.6902 -31.6900 -31.6896 -31.6717
   -31.6592 -31.6591 -31.6589 -31.6502 -31.6494 -31.6494 -31.6379 -31.6369
    -8.8312  -8.0732  -8.0731  -8.0704   3.9640   3.9648   3.9649   5.0460
     5.8026   5.8027   5.8059   6.6557   6.6617   6.6618   7.3065   7.3072

          k = 0.2500 0.2505-0.5000 (  5152 PWs)   bands (ev):

   -64.8953 -64.8949 -64.8929 -64.8923 -31.6934 -31.6932 -31.6858 -31.6857
   -31.6582 -31.6579 -31.6471 -31.6470 -31.6438 -31.6437 -31.6429 -31.6427
    -8.4382  -8.4381  -8.0390  -8.0389   3.7866   3.7867   4.1608   4.1609
     5.7884   5.7884   6.6951   6.6954   6.8218   6.8220   6.9703   6.9704

          k = 0.2500-0.5011 0.0000 (  5162 PWs)   bands (ev):

   -64.8958 -64.8953 -64.8924 -64.8918 -31.6822 -31.6821 -31.6749 -31.6748
   -31.6723 -31.6721 -31.6512 -31.6510 -31.6490 -31.6489 -31.6414 -31.6412
    -8.5451  -8.5450  -7.9898  -7.9898   4.3801   4.3802   4.7072   4.7074
     5.0590   5.0591   6.5004   6.5006   6.5291   6.5291   7.0472   7.0473

          k = 0.2500-0.5011 0.2500 (  5148 PWs)   bands (ev):

   -64.8953 -64.8949 -64.8929 -64.8923 -31.6932 -31.6930 -31.6857 -31.6856
   -31.6589 -31.6586 -31.6459 -31.6459 -31.6440 -31.6438 -31.6430 -31.6429
    -8.4362  -8.4361  -8.0396  -8.0396   3.7862   3.7862   4.1574   4.1576
     5.7886   5.7886   6.6935   6.6937   6.8249   6.8251   6.9669   6.9669

          k = 0.2500-0.5011-0.5000 (  5164 PWs)   bands (ev):

   -64.8941 -64.8941 -64.8941 -64.8931 -31.6966 -31.6964 -31.6963 -31.6963
   -31.6494 -31.6492 -31.6492 -31.6490 -31.6411 -31.6409 -31.6408 -31.6407
    -8.2083  -8.2082  -8.2081  -8.2081   3.6044   3.6045   3.6045   3.6046
     6.4788   6.4788   6.4791   6.4791   7.0188   7.0190   7.0190   7.0192

          k =-0.5000 0.0000 0.0000 (  5110 PWs)   bands (ev):

   -64.8965 -64.8960 -64.8917 -64.8911 -31.6747 -31.6745 -31.6736 -31.6734
   -31.6675 -31.6674 -31.6561 -31.6561 -31.6464 -31.6462 -31.6454 -31.6452
    -8.6833  -8.6832  -7.8989  -7.8988   4.8065   4.8065   4.8117   4.8118
     5.0806   5.0809   5.9338   5.9341   6.9174   6.9174   6.9273   6.9274

          k =-0.5000 0.0000 0.2500 (  5166 PWs)   bands (ev):

   -64.8958 -64.8954 -64.8924 -64.8918 -31.6826 -31.6824 -31.6753 -31.6753
   -31.6714 -31.6711 -31.6501 -31.6501 -31.6500 -31.6498 -31.6418 -31.6416
    -8.5482  -8.5481  -7.9893  -7.9892   4.3833   4.3833   4.7139   4.7141
     5.0584   5.0584   6.5019   6.5021   6.5280   6.5280   7.0487   7.0487

          k =-0.5000 0.0000-0.5000 (  5216 PWs)   bands (ev):

   -64.8941 -64.8941 -64.8941 -64.8931 -31.6843 -31.6841 -31.6840 -31.6840
   -31.6620 -31.6619 -31.6619 -31.6616 -31.6431 -31.6429 -31.6428 -31.6428
    -8.2465  -8.2464  -8.2463  -8.2463   4.2604   4.2605   4.2605   4.2607
     5.7249   5.7250   5.7253   5.7253   7.0145   7.0147   7.0147   7.0149

          k =-0.5000 0.2505 0.0000 (  5166 PWs)   bands (ev):

   -64.8958 -64.8954 -64.8924 -64.8918 -31.6820 -31.6819 -31.6752 -31.6752
   -31.6725 -31.6723 -31.6511 -31.6508 -31.6496 -31.6496 -31.6409 -31.6408
    -8.5475  -8.5474  -7.9885  -7.9884   4.3802   4.3802   4.7088   4.7090
     5.0548   5.0548   6.5066   6.5069   6.5348   6.5348   7.0448   7.0448

          k =-0.5000 0.2505 0.2500 (  5152 PWs)   bands (ev):

   -64.8953 -64.8949 -64.8929 -64.8923 -31.6934 -31.6932 -31.6858 -31.6857
   -31.6582 -31.6579 -31.6471 -31.6470 -31.6438 -31.6437 -31.6429 -31.6427
    -8.4382  -8.4381  -8.0390  -8.0389   3.7866   3.7867   4.1608   4.1609
     5.7884   5.7884   6.6951   6.6954   6.8218   6.8220   6.9703   6.9704

          k =-0.5000 0.2505-0.5000 (  5164 PWs)   bands (ev):

   -64.8941 -64.8941 -64.8941 -64.8931 -31.6969 -31.6966 -31.6966 -31.6966
   -31.6483 -31.6481 -31.6481 -31.6479 -31.6419 -31.6417 -31.6415 -31.6415
    -8.2091  -8.2089  -8.2089  -8.2088   3.6070   3.6072   3.6072   3.6072
     6.4813   6.4813   6.4815   6.4815   7.0157   7.0159   7.0159   7.0160

          k =-0.5000-0.5011 0.0000 (  5216 PWs)   bands (ev):

   -64.8941 -64.8941 -64.8941 -64.8931 -31.6841 -31.6840 -31.6838 -31.6838
   -31.6632 -31.6630 -31.6630 -31.6627 -31.6423 -31.6421 -31.6420 -31.6420
    -8.2450  -8.2449  -8.2449  -8.2448   4.2523   4.2524   4.2524   4.2526
     5.7258   5.7258   5.7261   5.7262   7.0177   7.0179   7.0179   7.0181

          k =-0.5000-0.5011 0.2500 (  5164 PWs)   bands (ev):

   -64.8941 -64.8941 -64.8941 -64.8931 -31.6966 -31.6964 -31.6963 -31.6963
   -31.6494 -31.6492 -31.6492 -31.6490 -31.6411 -31.6409 -31.6408 -31.6407
    -8.2083  -8.2081  -8.2081  -8.2081   3.6044   3.6045   3.6045   3.6046
     6.4788   6.4788   6.4790   6.4791   7.0188   7.0190   7.0190   7.0192

          k =-0.5000-0.5011-0.5000 (  5232 PWs)   bands (ev):

   -64.8941 -64.8941 -64.8941 -64.8931 -31.7061 -31.7058 -31.7058 -31.7058
   -31.6429 -31.6427 -31.6425 -31.6425 -31.6418 -31.6415 -31.6415 -31.6414
    -8.1711  -8.1709  -8.1709  -8.1709   3.1843   3.1844   3.1844   3.1844
     7.0162   7.0164   7.0164   7.0165   7.0203   7.0204   7.0206   7.0206

     highest occupied level (ev):     7.6231

!    total energy              =    -608.39257695 Ry
     Harris-Foulkes estimate   =    -608.39257695 Ry
     estimated scf accuracy    <          7.7E-11 Ry

     The total energy is the sum of the following terms:

     one-electron contribution =    -304.38667068 Ry
     hartree contribution      =     168.34416353 Ry
     xc contribution           =     -97.82885679 Ry
     ewald contribution        =    -374.52121301 Ry

     convergence has been achieved in   3 iterations

     Forces acting on atoms (cartesian axes, Ry/au):

     atom    1 type  1   force =     0.00000000    0.00002946    0.00000000
     atom    2 type  1   force =     0.00000000   -0.00006532    0.00000000
     atom    3 type  1   force =     0.00000000    0.00007596    0.00000000
     atom    4 type  1   force =     0.00000000   -0.00006514    0.00000000
     atom    5 type  2   force =     0.00000000   -0.00004638    0.00000000
     atom    6 type  2   force =     0.00000000    0.00005525    0.00000000
     atom    7 type  2   force =     0.00000000   -0.00004369    0.00000000
     atom    8 type  2   force =     0.00000000    0.00005985    0.00000000

     Total force =     0.000161     Total SCF correction =     0.000026
     SCF correction compared to forces is large: reduce conv_thr to get better values


     Computing stress (Cartesian axis) and pressure

          total   stress  (Ry/bohr**3)                   (kbar)     P=  -74.53
  -0.00051598   0.00000000   0.00000000        -75.90      0.00      0.00
   0.00000000  -0.00048789   0.00000000          0.00    -71.77      0.00
   0.00000000   0.00000000  -0.00051606          0.00      0.00    -75.92


     bfgs converged in   5 scf cycles and   4 bfgs steps
     (criteria: energy <  1.0E-05 Ry, force <  1.0E-04 Ry/Bohr)

     End of BFGS Geometry Optimization

     Final energy   =    -608.3925769531 Ry
Begin final coordinates

ATOMIC_POSITIONS (alat)
Mg       0.000000000   0.000486892   0.000000000
Mg       0.000000000   0.499504026   0.500000000
Mg       0.500000000   0.000510875   0.500000000
Mg       0.500000000   0.499504168   0.000000000
O        0.500000000   0.000543960   0.000000000
O        0.000000000   0.499454048   0.000000000
O        0.000000000   0.000543001   0.500000000
O        0.500000000   0.499453030   0.500000000
End final coordinates



     Writing output data file diamond.8.06198989925.70.4.save
 
     init_run     :      0.50s CPU      0.52s WALL (       1 calls)
     electrons    :     33.10s CPU     34.05s WALL (       5 calls)
     update_pot   :      0.44s CPU      0.44s WALL (       4 calls)
     forces       :      0.77s CPU      0.77s WALL (       5 calls)
     stress       :      1.74s CPU      1.75s WALL (       5 calls)

     Called by init_run:
     wfcinit      :      0.38s CPU      0.39s WALL (       1 calls)
     potinit      :      0.05s CPU      0.05s WALL (       1 calls)

     Called by electrons:
     c_bands      :     28.76s CPU     29.61s WALL (      29 calls)
     sum_band     :      4.16s CPU      4.24s WALL (      29 calls)
     v_of_rho     :      0.15s CPU      0.16s WALL (      30 calls)
     mix_rho      :      0.02s CPU      0.02s WALL (      29 calls)

     Called by c_bands:
     init_us_2    :      0.44s CPU      0.47s WALL (    1863 calls)
     cegterg      :     26.78s CPU     27.56s WALL (     783 calls)

     Called by sum_band:

     Called by *egterg:
     h_psi        :     19.80s CPU     20.27s WALL (    2567 calls)
     g_psi        :      0.15s CPU      0.15s WALL (    1757 calls)
     cdiaghg      :      3.74s CPU      3.75s WALL (    2324 calls)

     Called by h_psi:
     h_psi:pot    :     19.72s CPU     20.16s WALL (    2567 calls)
     h_psi:calbec :      1.12s CPU      1.13s WALL (    2567 calls)
     vloc_psi     :     17.66s CPU     18.09s WALL (    2567 calls)
     add_vuspsi   :      0.94s CPU      0.94s WALL (    2567 calls)

     General routines
     calbec       :      1.49s CPU      1.49s WALL (    3242 calls)
     fft          :      0.10s CPU      0.10s WALL (     462 calls)
     fftw         :     20.06s CPU     19.78s WALL (  155122 calls)
     davcio       :      0.00s CPU      0.00s WALL (      27 calls)
 
     Parallel routines
     fft_scatter  :      5.18s CPU      5.09s WALL (  155584 calls)
 
     PWSCF        :    36.93s CPU        38.04s WALL

 
   This run was terminated on:  14:55:50  22Apr2018            

=------------------------------------------------------------------------------=
   JOB DONE.
=------------------------------------------------------------------------------=
