
     Program PWSCF v.6.1 (svn rev. 13369) starts on 22Apr2018 at 14:54:39 

     This program is part of the open-source Quantum ESPRESSO suite
     for quantum simulation of materials; please cite
         "P. Giannozzi et al., J. Phys.:Condens. Matter 21 395502 (2009);
          URL http://www.quantum-espresso.org", 
     in publications or presentations arising from this work. More details at
     http://www.quantum-espresso.org/quote

     Parallel version (MPI), running on     8 processors
     R & G space division:  proc/nbgrp/npool/nimage =       8
     Waiting for input...
     Reading input from standard input
Warning: card       &CELL ignored
Warning: card       CELL_DYNAMICS = 'BFGS' ignored
Warning: card       PRESS = 0.0D0 ignored
Warning: card       PRESS_CONV_THR = 0.01D0 ignored
Warning: card       / ignored

     Current dimensions of program PWSCF are:
     Max number of different atomic species (ntypx) = 10
     Max number of k-points (npk) =  40000
     Max angular momentum in pseudopotentials (lmaxx) =  3

     Subspace diagonalization in iterative solution of the eigenvalue problem:
     a serial algorithm will be used

     Found symmetry operation: I + ( -0.5000  0.0000  0.5000)
     This is a supercell, fractional translations are disabled
 
     Parallelization info
     --------------------
     sticks:   dense  smooth     PW     G-vecs:    dense   smooth      PW
     Min         181     181     52                 5171     5171     824
     Max         182     182     53                 5174     5174     829
     Sum        1449    1449    421                41379    41379    6619
 


     bravais-lattice index     =            8
     lattice parameter (alat)  =       8.0562  a.u.
     unit-cell volume          =     522.1292 (a.u.)^3
     number of atoms/cell      =            8
     number of atomic types    =            2
     number of electrons       =        64.00
     number of Kohn-Sham states=           32
     kinetic-energy cutoff     =      70.0000  Ry
     charge density cutoff     =     280.0000  Ry
     convergence threshold     =      1.0E-08
     mixing beta               =       0.7000
     number of iterations used =            8  plain     mixing
     Exchange-correlation      = PBE ( 1  4  3  4 0 0)
     nstep                     =           50


     celldm(1)=   8.056246  celldm(2)=   0.998571  celldm(3)=   1.000002
     celldm(4)=   0.000000  celldm(5)=   0.000000  celldm(6)=   0.000000

     crystal axes: (cart. coord. in units of alat)
               a(1) = (   1.000000   0.000000   0.000000 )  
               a(2) = (   0.000000   0.998571   0.000000 )  
               a(3) = (   0.000000   0.000000   1.000002 )  

     reciprocal axes: (cart. coord. in units 2 pi/alat)
               b(1) = (  1.000000  0.000000  0.000000 )  
               b(2) = (  0.000000  1.001431  0.000000 )  
               b(3) = (  0.000000  0.000000  0.999998 )  


     PseudoPot. # 1 for Mg read from file:
     ../pseudo/Mg.pbe.UPF
     MD5 check sum: 4c04d8c6e0476e83eaecaf72fa8acc4d
     Pseudo is Norm-conserving, Zval = 10.0
     Generated using ONCVPSP code by D. R. Hamann
     Using radial grid of 1510 points,  4 beta functions with: 
                l(1) =   0
                l(2) =   0
                l(3) =   1
                l(4) =   1

     PseudoPot. # 2 for O  read from file:
     ../pseudo/O.pbe.UPF
     MD5 check sum: 3e3f909f7470e8921608ab6b1f57bbae
     Pseudo is Norm-conserving + core correction, Zval =  6.0
     Generated using ONCVPSP code by D. R. Hamann
     Using radial grid of  936 points,  5 beta functions with: 
                l(1) =   0
                l(2) =   0
                l(3) =   1
                l(4) =   1
                l(5) =   2

     atomic species   valence    mass     pseudopotential
        Mg            10.00    24.30500     Mg( 1.00)
        O              6.00    15.99940     O ( 1.00)

      4 Sym. Ops. (no inversion) found



   Cartesian axes

     site n.     atom                  positions (alat units)
         1           Mg  tau(   1) = (   0.0000000   0.0000000   0.0000000  )
         2           Mg  tau(   2) = (   0.0000000   0.5000000   0.5000000  )
         3           Mg  tau(   3) = (   0.5000000   0.0000000   0.5000000  )
         4           Mg  tau(   4) = (   0.5000000   0.5000000   0.0000000  )
         5           O   tau(   5) = (   0.5000000   0.0000000   0.0000000  )
         6           O   tau(   6) = (   0.0000000   0.5000000   0.0000000  )
         7           O   tau(   7) = (   0.0000000   0.0000000   0.5000000  )
         8           O   tau(   8) = (   0.5000000   0.5000000   0.5000000  )

     number of k points=    27
                       cart. coord. in units 2pi/alat
        k(    1) = (   0.0000000   0.0000000   0.0000000), wk =   0.0312500
        k(    2) = (   0.0000000   0.0000000   0.2499995), wk =   0.0625000
        k(    3) = (   0.0000000   0.0000000  -0.4999990), wk =   0.0312500
        k(    4) = (   0.0000000   0.2503578   0.0000000), wk =   0.0625000
        k(    5) = (   0.0000000   0.2503578   0.2499995), wk =   0.1250000
        k(    6) = (   0.0000000   0.2503578  -0.4999990), wk =   0.0625000
        k(    7) = (   0.0000000  -0.5007155   0.0000000), wk =   0.0312500
        k(    8) = (   0.0000000  -0.5007155   0.2499995), wk =   0.0625000
        k(    9) = (   0.0000000  -0.5007155  -0.4999990), wk =   0.0312500
        k(   10) = (   0.2500000   0.0000000   0.0000000), wk =   0.0625000
        k(   11) = (   0.2500000   0.0000000   0.2499995), wk =   0.1250000
        k(   12) = (   0.2500000   0.0000000  -0.4999990), wk =   0.0625000
        k(   13) = (   0.2500000   0.2503578   0.0000000), wk =   0.1250000
        k(   14) = (   0.2500000   0.2503578   0.2499995), wk =   0.2500000
        k(   15) = (   0.2500000   0.2503578  -0.4999990), wk =   0.1250000
        k(   16) = (   0.2500000  -0.5007155   0.0000000), wk =   0.0625000
        k(   17) = (   0.2500000  -0.5007155   0.2499995), wk =   0.1250000
        k(   18) = (   0.2500000  -0.5007155  -0.4999990), wk =   0.0625000
        k(   19) = (  -0.5000000   0.0000000   0.0000000), wk =   0.0312500
        k(   20) = (  -0.5000000   0.0000000   0.2499995), wk =   0.0625000
        k(   21) = (  -0.5000000   0.0000000  -0.4999990), wk =   0.0312500
        k(   22) = (  -0.5000000   0.2503578   0.0000000), wk =   0.0625000
        k(   23) = (  -0.5000000   0.2503578   0.2499995), wk =   0.1250000
        k(   24) = (  -0.5000000   0.2503578  -0.4999990), wk =   0.0625000
        k(   25) = (  -0.5000000  -0.5007155   0.0000000), wk =   0.0312500
        k(   26) = (  -0.5000000  -0.5007155   0.2499995), wk =   0.0625000
        k(   27) = (  -0.5000000  -0.5007155  -0.4999990), wk =   0.0312500

     Dense  grid:    41379 G-vectors     FFT dimensions: (  45,  45,  45)

     Estimated max dynamical RAM per process >      14.43MB

     Estimated total allocated dynamical RAM >     115.45MB

     Check: negative/imaginary core charge=   -0.000007    0.000000

     Initial potential from superposition of free atoms

     starting charge   63.99678, renormalised to   64.00000
     Starting wfc are   36 randomized atomic wfcs

     total cpu time spent up to now is        0.7 secs

     per-process dynamical memory:    50.1 Mb

     Self-consistent Calculation

     iteration #  1     ecut=    70.00 Ry     beta=0.70
     Davidson diagonalization with overlap
     ethr =  1.00E-02,  avg # of iterations =  2.0

     total cpu time spent up to now is        1.8 secs

     total energy              =    -607.71847245 Ry
     Harris-Foulkes estimate   =    -608.84366996 Ry
     estimated scf accuracy    <       1.56325502 Ry

     iteration #  2     ecut=    70.00 Ry     beta=0.70
     Davidson diagonalization with overlap
     ethr =  2.44E-03,  avg # of iterations =  2.9

     total cpu time spent up to now is        3.0 secs

     total energy              =    -608.10392207 Ry
     Harris-Foulkes estimate   =    -608.80573760 Ry
     estimated scf accuracy    <       1.45843263 Ry

     iteration #  3     ecut=    70.00 Ry     beta=0.70
     Davidson diagonalization with overlap
     ethr =  2.28E-03,  avg # of iterations =  2.0

     total cpu time spent up to now is        4.1 secs

     total energy              =    -608.39121996 Ry
     Harris-Foulkes estimate   =    -608.39188760 Ry
     estimated scf accuracy    <       0.00678958 Ry

     iteration #  4     ecut=    70.00 Ry     beta=0.70
     Davidson diagonalization with overlap
     ethr =  1.06E-05,  avg # of iterations =  2.0

     total cpu time spent up to now is        5.3 secs

     total energy              =    -608.39270953 Ry
     Harris-Foulkes estimate   =    -608.39275468 Ry
     estimated scf accuracy    <       0.00011229 Ry

     iteration #  5     ecut=    70.00 Ry     beta=0.70
     Davidson diagonalization with overlap
     ethr =  1.75E-07,  avg # of iterations =  1.6

     total cpu time spent up to now is        6.2 secs

     total energy              =    -608.39271688 Ry
     Harris-Foulkes estimate   =    -608.39271546 Ry
     estimated scf accuracy    <       0.00001039 Ry

     iteration #  6     ecut=    70.00 Ry     beta=0.70
     Davidson diagonalization with overlap
     ethr =  1.62E-08,  avg # of iterations =  2.0

     total cpu time spent up to now is        7.5 secs

     total energy              =    -608.39271850 Ry
     Harris-Foulkes estimate   =    -608.39271890 Ry
     estimated scf accuracy    <       0.00000105 Ry

     iteration #  7     ecut=    70.00 Ry     beta=0.70
     Davidson diagonalization with overlap
     ethr =  1.65E-09,  avg # of iterations =  2.0

     total cpu time spent up to now is        8.5 secs

     total energy              =    -608.39271848 Ry
     Harris-Foulkes estimate   =    -608.39271859 Ry
     estimated scf accuracy    <       0.00000027 Ry

     iteration #  8     ecut=    70.00 Ry     beta=0.70
     Davidson diagonalization with overlap
     ethr =  4.24E-10,  avg # of iterations =  2.0

     total cpu time spent up to now is        9.7 secs

     total energy              =    -608.39271848 Ry
     Harris-Foulkes estimate   =    -608.39271851 Ry
     estimated scf accuracy    <       0.00000004 Ry

     iteration #  9     ecut=    70.00 Ry     beta=0.70
     Davidson diagonalization with overlap
     ethr =  6.82E-11,  avg # of iterations =  2.0

     total cpu time spent up to now is       10.9 secs

     End of self-consistent calculation

          k = 0.0000 0.0000 0.0000 (  5169 PWs)   bands (ev):

   -64.8786 -64.8693 -64.8693 -64.8685 -31.6741 -31.6741 -31.6734 -31.6372
   -31.6372 -31.6369 -31.6369 -31.6364 -31.6363 -31.6101 -31.6101 -31.6074
    -9.3850  -7.9432  -7.9431  -7.9394   3.7338   3.7338   3.7385   6.3462
     6.3462   6.3473   6.3477   6.3564   6.3564   7.6363   7.6393   7.6393

          k = 0.0000 0.0000 0.2500 (  5177 PWs)   bands (ev):

   -64.8772 -64.8705 -64.8693 -64.8686 -31.6676 -31.6669 -31.6646 -31.6428
   -31.6412 -31.6378 -31.6374 -31.6332 -31.6320 -31.6227 -31.6154 -31.6146
    -9.1779  -8.1568  -7.9145  -7.9119   4.0233   4.0277   4.0696   5.8259
     5.8287   6.1395   6.1465   6.5098   6.5180   6.6268   7.4148   7.4192

          k = 0.0000 0.0000-0.5000 (  5110 PWs)   bands (ev):

   -64.8741 -64.8736 -64.8692 -64.8687 -31.6528 -31.6525 -31.6520 -31.6518
   -31.6454 -31.6454 -31.6341 -31.6341 -31.6243 -31.6240 -31.6236 -31.6234
    -8.6709  -8.6708  -7.8849  -7.8848   4.8202   4.8203   4.8237   4.8238
     5.0946   5.0948   5.9469   5.9472   6.9343   6.9343   6.9409   6.9410

          k = 0.0000 0.2504 0.0000 (  5161 PWs)   bands (ev):

   -64.8772 -64.8705 -64.8693 -64.8687 -31.6675 -31.6675 -31.6630 -31.6417
   -31.6417 -31.6369 -31.6368 -31.6328 -31.6328 -31.6212 -31.6153 -31.6153
    -9.1771  -8.1532  -7.9147  -7.9146   4.0242   4.0242   4.0727   5.8344
     5.8344   6.1373   6.1376   6.5090   6.5090   6.6241   7.4174   7.4174

          k = 0.0000 0.2504 0.2500 (  5169 PWs)   bands (ev):

   -64.8760 -64.8705 -64.8701 -64.8690 -31.6645 -31.6640 -31.6627 -31.6502
   -31.6382 -31.6379 -31.6363 -31.6311 -31.6306 -31.6300 -31.6192 -31.6119
    -8.9883  -8.0922  -8.0895  -7.9194   4.1360   4.1372   4.3036   5.0450
     5.8146   6.0238   6.0307   6.4515   6.4540   6.5549   7.1423   7.4726

          k = 0.0000 0.2504-0.5000 (  5166 PWs)   bands (ev):

   -64.8733 -64.8729 -64.8699 -64.8694 -31.6604 -31.6602 -31.6534 -31.6533
   -31.6505 -31.6502 -31.6289 -31.6287 -31.6276 -31.6276 -31.6190 -31.6188
    -8.5350  -8.5349  -7.9747  -7.9747   4.3928   4.3929   4.7228   4.7230
     5.0684   5.0685   6.5202   6.5205   6.5484   6.5484   7.0611   7.0612

          k = 0.0000-0.5007 0.0000 (  5110 PWs)   bands (ev):

   -64.8740 -64.8736 -64.8693 -64.8687 -31.6527 -31.6527 -31.6523 -31.6523
   -31.6449 -31.6445 -31.6336 -31.6335 -31.6245 -31.6245 -31.6241 -31.6241
    -8.6722  -8.6645  -7.8859  -7.8858   4.8180   4.8180   4.8301   4.8301
     5.0910   5.0958   5.9396   5.9400   6.9313   6.9313   6.9387   6.9387

          k = 0.0000-0.5007 0.2500 (  5162 PWs)   bands (ev):

   -64.8733 -64.8729 -64.8700 -64.8694 -31.6605 -31.6602 -31.6532 -31.6530
   -31.6504 -31.6500 -31.6291 -31.6288 -31.6272 -31.6270 -31.6193 -31.6192
    -8.5367  -8.5299  -7.9763  -7.9749   4.3904   4.3952   4.7192   4.7246
     5.0655   5.0772   6.5140   6.5184   6.5403   6.5489   7.0617   7.0639

          k = 0.0000-0.5007-0.5000 (  5216 PWs)   bands (ev):

   -64.8717 -64.8716 -64.8716 -64.8706 -31.6624 -31.6622 -31.6620 -31.6620
   -31.6412 -31.6410 -31.6408 -31.6405 -31.6203 -31.6202 -31.6200 -31.6200
    -8.2340  -8.2339  -8.2297  -8.2296   4.2649   4.2650   4.2669   4.2671
     5.7343   5.7344   5.7448   5.7449   7.0311   7.0312   7.0346   7.0348

          k = 0.2500 0.0000 0.0000 (  5177 PWs)   bands (ev):

   -64.8772 -64.8705 -64.8693 -64.8686 -31.6676 -31.6669 -31.6646 -31.6428
   -31.6412 -31.6378 -31.6374 -31.6332 -31.6320 -31.6227 -31.6154 -31.6146
    -9.1779  -8.1568  -7.9146  -7.9119   4.0233   4.0277   4.0696   5.8259
     5.8287   6.1395   6.1465   6.5098   6.5180   6.6268   7.4148   7.4192

          k = 0.2500 0.0000 0.2500 (  5169 PWs)   bands (ev):

   -64.8760 -64.8705 -64.8701 -64.8690 -31.6646 -31.6644 -31.6621 -31.6505
   -31.6374 -31.6373 -31.6366 -31.6317 -31.6306 -31.6305 -31.6184 -31.6123
    -8.9890  -8.0923  -8.0922  -7.9176   4.1369   4.1369   4.3068   5.0449
     5.8188   6.0251   6.0254   6.4582   6.4582   6.5501   7.1391   7.4731

          k = 0.2500 0.0000-0.5000 (  5166 PWs)   bands (ev):

   -64.8733 -64.8729 -64.8699 -64.8694 -31.6607 -31.6606 -31.6534 -31.6534
   -31.6497 -31.6495 -31.6283 -31.6281 -31.6280 -31.6279 -31.6196 -31.6194
    -8.5354  -8.5353  -7.9753  -7.9752   4.3949   4.3950   4.7262   4.7264
     5.0709   5.0710   6.5169   6.5171   6.5440   6.5441   7.0637   7.0638

          k = 0.2500 0.2504 0.0000 (  5169 PWs)   bands (ev):

   -64.8760 -64.8705 -64.8701 -64.8690 -31.6645 -31.6640 -31.6627 -31.6502
   -31.6382 -31.6379 -31.6363 -31.6311 -31.6306 -31.6300 -31.6192 -31.6119
    -8.9883  -8.0922  -8.0895  -7.9194   4.1360   4.1372   4.3036   5.0450
     5.8146   6.0239   6.0307   6.4515   6.4540   6.5549   7.1423   7.4726

          k = 0.2500 0.2504 0.2500 (  5166 PWs)   bands (ev):

   -64.8750 -64.8705 -64.8704 -64.8696 -31.6683 -31.6681 -31.6680 -31.6495
   -31.6372 -31.6372 -31.6369 -31.6280 -31.6275 -31.6275 -31.6155 -31.6149
    -8.8196  -8.0591  -8.0591  -8.0572   3.9761   3.9767   3.9767   5.0604
     5.8169   5.8170   5.8191   6.6721   6.6761   6.6763   7.3227   7.3232

          k = 0.2500 0.2504-0.5000 (  5150 PWs)   bands (ev):

   -64.8728 -64.8724 -64.8704 -64.8698 -31.6715 -31.6713 -31.6640 -31.6639
   -31.6362 -31.6360 -31.6250 -31.6249 -31.6216 -31.6215 -31.6210 -31.6208
    -8.4253  -8.4252  -8.0251  -8.0250   3.7982   3.7982   4.1731   4.1732
     5.8023   5.8023   6.7100   6.7102   6.8374   6.8375   6.9855   6.9855

          k = 0.2500-0.5007 0.0000 (  5162 PWs)   bands (ev):

   -64.8733 -64.8729 -64.8700 -64.8694 -31.6605 -31.6602 -31.6532 -31.6530
   -31.6504 -31.6500 -31.6291 -31.6288 -31.6272 -31.6270 -31.6193 -31.6192
    -8.5367  -8.5299  -7.9763  -7.9749   4.3904   4.3952   4.7192   4.7245
     5.0655   5.0772   6.5140   6.5184   6.5403   6.5489   7.0617   7.0639

          k = 0.2500-0.5007 0.2500 (  5148 PWs)   bands (ev):

   -64.8728 -64.8724 -64.8705 -64.8698 -31.6715 -31.6713 -31.6640 -31.6638
   -31.6368 -31.6366 -31.6241 -31.6241 -31.6218 -31.6215 -31.6211 -31.6210
    -8.4268  -8.4210  -8.0256  -8.0255   3.7978   3.7979   4.1681   4.1737
     5.8023   5.8024   6.7089   6.7092   6.8383   6.8407   6.9805   6.9858

          k = 0.2500-0.5007-0.5000 (  5148 PWs)   bands (ev):

   -64.8717 -64.8716 -64.8716 -64.8706 -31.6745 -31.6743 -31.6742 -31.6742
   -31.6269 -31.6267 -31.6266 -31.6264 -31.6191 -31.6189 -31.6188 -31.6187
    -8.1963  -8.1963  -8.1933  -8.1932   3.6150   3.6151   3.6178   3.6179
     6.4910   6.4910   6.4971   6.4971   7.0327   7.0328   7.0352   7.0354

          k =-0.5000 0.0000 0.0000 (  5110 PWs)   bands (ev):

   -64.8741 -64.8736 -64.8692 -64.8687 -31.6528 -31.6525 -31.6520 -31.6518
   -31.6454 -31.6454 -31.6341 -31.6341 -31.6243 -31.6240 -31.6236 -31.6234
    -8.6709  -8.6708  -7.8849  -7.8848   4.8202   4.8203   4.8237   4.8238
     5.0946   5.0948   5.9469   5.9472   6.9343   6.9343   6.9409   6.9409

          k =-0.5000 0.0000 0.2500 (  5166 PWs)   bands (ev):

   -64.8733 -64.8729 -64.8699 -64.8694 -31.6607 -31.6606 -31.6534 -31.6534
   -31.6497 -31.6495 -31.6283 -31.6281 -31.6280 -31.6279 -31.6196 -31.6194
    -8.5354  -8.5353  -7.9753  -7.9752   4.3949   4.3949   4.7262   4.7264
     5.0709   5.0710   6.5169   6.5171   6.5440   6.5440   7.0637   7.0638

          k =-0.5000 0.0000-0.5000 (  5216 PWs)   bands (ev):

   -64.8716 -64.8716 -64.8716 -64.8706 -31.6625 -31.6623 -31.6622 -31.6622
   -31.6403 -31.6401 -31.6401 -31.6399 -31.6209 -31.6207 -31.6205 -31.6205
    -8.2329  -8.2328  -8.2327  -8.2327   4.2713   4.2714   4.2714   4.2715
     5.7389   5.7389   5.7392   5.7392   7.0307   7.0308   7.0308   7.0310

          k =-0.5000 0.2504 0.0000 (  5166 PWs)   bands (ev):

   -64.8733 -64.8729 -64.8699 -64.8694 -31.6604 -31.6602 -31.6534 -31.6533
   -31.6505 -31.6502 -31.6289 -31.6287 -31.6276 -31.6276 -31.6190 -31.6188
    -8.5350  -8.5349  -7.9747  -7.9747   4.3928   4.3929   4.7228   4.7230
     5.0685   5.0685   6.5202   6.5204   6.5484   6.5484   7.0611   7.0612

          k =-0.5000 0.2504 0.2500 (  5150 PWs)   bands (ev):

   -64.8728 -64.8724 -64.8704 -64.8698 -31.6715 -31.6713 -31.6640 -31.6639
   -31.6362 -31.6360 -31.6250 -31.6249 -31.6216 -31.6215 -31.6210 -31.6208
    -8.4252  -8.4252  -8.0251  -8.0250   3.7981   3.7982   4.1731   4.1732
     5.8023   5.8023   6.7100   6.7102   6.8374   6.8375   6.9855   6.9855

          k =-0.5000 0.2504-0.5000 (  5148 PWs)   bands (ev):

   -64.8716 -64.8716 -64.8716 -64.8706 -31.6747 -31.6745 -31.6744 -31.6744
   -31.6262 -31.6260 -31.6260 -31.6258 -31.6195 -31.6193 -31.6192 -31.6192
    -8.1954  -8.1953  -8.1952  -8.1952   3.6181   3.6182   3.6182   3.6183
     6.4955   6.4956   6.4958   6.4958   7.0318   7.0320   7.0320   7.0322

          k =-0.5000-0.5007 0.0000 (  5216 PWs)   bands (ev):

   -64.8717 -64.8716 -64.8716 -64.8706 -31.6624 -31.6622 -31.6620 -31.6620
   -31.6412 -31.6410 -31.6408 -31.6405 -31.6203 -31.6202 -31.6200 -31.6200
    -8.2340  -8.2339  -8.2297  -8.2296   4.2649   4.2650   4.2669   4.2671
     5.7343   5.7344   5.7449   5.7449   7.0311   7.0312   7.0346   7.0348

          k =-0.5000-0.5007 0.2500 (  5148 PWs)   bands (ev):

   -64.8717 -64.8716 -64.8716 -64.8706 -31.6745 -31.6743 -31.6742 -31.6742
   -31.6269 -31.6267 -31.6266 -31.6264 -31.6191 -31.6189 -31.6188 -31.6187
    -8.1963  -8.1963  -8.1933  -8.1932   3.6150   3.6151   3.6178   3.6179
     6.4910   6.4910   6.4971   6.4971   7.0327   7.0328   7.0352   7.0354

          k =-0.5000-0.5007-0.5000 (  5232 PWs)   bands (ev):

   -64.8716 -64.8716 -64.8716 -64.8706 -31.6844 -31.6842 -31.6842 -31.6842
   -31.6206 -31.6204 -31.6203 -31.6203 -31.6199 -31.6196 -31.6196 -31.6195
    -8.1575  -8.1573  -8.1573  -8.1573   3.1952   3.1953   3.1953   3.1953
     7.0323   7.0324   7.0324   7.0326   7.0350   7.0351   7.0353   7.0353

     highest occupied level (ev):     7.6393

!    total energy              =    -608.39271849 Ry
     Harris-Foulkes estimate   =    -608.39271849 Ry
     estimated scf accuracy    <          1.3E-09 Ry

     The total energy is the sum of the following terms:

     one-electron contribution =    -304.11248022 Ry
     hartree contribution      =     168.25309985 Ry
     xc contribution           =     -97.83471203 Ry
     ewald contribution        =    -374.69862609 Ry

     convergence has been achieved in   9 iterations

     Forces acting on atoms (cartesian axes, Ry/au):

     atom    1 type  1   force =     0.00000000    0.00077927    0.00000000
     atom    2 type  1   force =     0.00000000   -0.00076337    0.00000000
     atom    3 type  1   force =     0.00000000    0.00077956    0.00000000
     atom    4 type  1   force =     0.00000000   -0.00076437    0.00000000
     atom    5 type  2   force =     0.00000000    0.00088893    0.00000000
     atom    6 type  2   force =     0.00000000   -0.00090250    0.00000000
     atom    7 type  2   force =     0.00000000    0.00088887    0.00000000
     atom    8 type  2   force =     0.00000000   -0.00090639    0.00000000

     Total force =     0.002366     Total SCF correction =     0.000013


     Computing stress (Cartesian axis) and pressure

          total   stress  (Ry/bohr**3)                   (kbar)     P=  -72.30
  -0.00049784   0.00000000   0.00000000        -73.23      0.00      0.00
   0.00000000  -0.00047875   0.00000000          0.00    -70.43      0.00
   0.00000000   0.00000000  -0.00049788          0.00      0.00    -73.24


     BFGS Geometry Optimization

     number of scf cycles    =   1
     number of bfgs steps    =   0

     energy   new            =    -608.3927184906 Ry

     new trust radius        =       0.0009063854 bohr
     new conv_thr            =       0.0000000100 Ry


ATOMIC_POSITIONS (alat)
Mg       0.000000000   0.000096728   0.000000000
Mg       0.000000000   0.499905245   0.500000000
Mg       0.500000000   0.000096764   0.500000000
Mg       0.500000000   0.499905121   0.000000000
O        0.500000000   0.000110340   0.000000000
O        0.000000000   0.499887975   0.000000000
O        0.000000000   0.000110334   0.500000000
O        0.500000000   0.499887493   0.500000000



     Writing output data file diamond.8.05624594775.70.4.save
     NEW-OLD atomic charge density approx. for the potential

     Check: negative/imaginary core charge=   -0.000007    0.000000

     total cpu time spent up to now is       11.7 secs

     per-process dynamical memory:    50.8 Mb

     Self-consistent Calculation

     iteration #  1     ecut=    70.00 Ry     beta=0.70
     Davidson diagonalization with overlap
     ethr =  1.00E-06,  avg # of iterations =  2.1

     Threshold (ethr) on eigenvalues was too large:
     Diagonalizing with lowered threshold

     Davidson diagonalization with overlap
     ethr =  1.42E-09,  avg # of iterations =  2.3

     total cpu time spent up to now is       14.1 secs

     total energy              =    -608.39272289 Ry
     Harris-Foulkes estimate   =    -608.39272365 Ry
     estimated scf accuracy    <       0.00000103 Ry

     iteration #  2     ecut=    70.00 Ry     beta=0.70
     Davidson diagonalization with overlap
     ethr =  1.62E-09,  avg # of iterations =  2.2

     total cpu time spent up to now is       15.2 secs

     total energy              =    -608.39272320 Ry
     Harris-Foulkes estimate   =    -608.39272331 Ry
     estimated scf accuracy    <       0.00000018 Ry

     iteration #  3     ecut=    70.00 Ry     beta=0.70
     Davidson diagonalization with overlap
     ethr =  2.79E-10,  avg # of iterations =  2.0

     total cpu time spent up to now is       16.3 secs

     End of self-consistent calculation

          k = 0.0000 0.0000 0.0000 (  5169 PWs)   bands (ev):

   -64.8788 -64.8695 -64.8695 -64.8687 -31.6743 -31.6743 -31.6736 -31.6374
   -31.6374 -31.6370 -31.6370 -31.6365 -31.6365 -31.6102 -31.6102 -31.6075
    -9.3849  -7.9431  -7.9430  -7.9394   3.7339   3.7339   3.7385   6.3463
     6.3463   6.3474   6.3477   6.3565   6.3565   7.6364   7.6394   7.6394

          k = 0.0000 0.0000 0.2500 (  5177 PWs)   bands (ev):

   -64.8774 -64.8707 -64.8695 -64.8689 -31.6678 -31.6671 -31.6648 -31.6430
   -31.6413 -31.6379 -31.6376 -31.6334 -31.6322 -31.6229 -31.6156 -31.6148
    -9.1778  -8.1567  -7.9145  -7.9118   4.0233   4.0277   4.0697   5.8260
     5.8288   6.1396   6.1466   6.5098   6.5181   6.6268   7.4149   7.4193

          k = 0.0000 0.0000-0.5000 (  5110 PWs)   bands (ev):

   -64.8743 -64.8738 -64.8695 -64.8689 -31.6530 -31.6527 -31.6522 -31.6520
   -31.6456 -31.6456 -31.6343 -31.6343 -31.6245 -31.6242 -31.6238 -31.6236
    -8.6709  -8.6707  -7.8848  -7.8847   4.8202   4.8204   4.8237   4.8238
     5.0946   5.0949   5.9470   5.9473   6.9343   6.9344   6.9409   6.9410

          k = 0.0000 0.2504 0.0000 (  5161 PWs)   bands (ev):

   -64.8774 -64.8707 -64.8695 -64.8689 -31.6677 -31.6677 -31.6631 -31.6419
   -31.6419 -31.6371 -31.6370 -31.6330 -31.6330 -31.6214 -31.6155 -31.6155
    -9.1770  -8.1531  -7.9146  -7.9145   4.0243   4.0243   4.0728   5.8345
     5.8345   6.1373   6.1377   6.5091   6.5091   6.6241   7.4174   7.4174

          k = 0.0000 0.2504 0.2500 (  5169 PWs)   bands (ev):

   -64.8762 -64.8707 -64.8703 -64.8693 -31.6647 -31.6642 -31.6629 -31.6503
   -31.6383 -31.6381 -31.6365 -31.6313 -31.6308 -31.6302 -31.6194 -31.6121
    -8.9882  -8.0921  -8.0895  -7.9193   4.1361   4.1372   4.3037   5.0450
     5.8147   6.0239   6.0307   6.4516   6.4540   6.5549   7.1424   7.4726

          k = 0.0000 0.2504-0.5000 (  5166 PWs)   bands (ev):

   -64.8736 -64.8731 -64.8702 -64.8696 -31.6605 -31.6604 -31.6536 -31.6535
   -31.6507 -31.6504 -31.6291 -31.6289 -31.6278 -31.6278 -31.6192 -31.6190
    -8.5349  -8.5348  -7.9747  -7.9746   4.3929   4.3930   4.7229   4.7231
     5.0685   5.0686   6.5203   6.5205   6.5484   6.5485   7.0612   7.0612

          k = 0.0000-0.5007 0.0000 (  5110 PWs)   bands (ev):

   -64.8743 -64.8738 -64.8695 -64.8689 -31.6529 -31.6529 -31.6525 -31.6525
   -31.6451 -31.6447 -31.6338 -31.6337 -31.6246 -31.6246 -31.6243 -31.6243
    -8.6710  -8.6656  -7.8858  -7.8857   4.8199   4.8199   4.8284   4.8284
     5.0918   5.0951   5.9397   5.9400   6.9325   6.9325   6.9377   6.9377

          k = 0.0000-0.5007 0.2500 (  5162 PWs)   bands (ev):

   -64.8735 -64.8731 -64.8702 -64.8696 -31.6607 -31.6604 -31.6534 -31.6532
   -31.6506 -31.6502 -31.6293 -31.6290 -31.6273 -31.6272 -31.6195 -31.6194
    -8.5356  -8.5308  -7.9760  -7.9750   4.3912   4.3946   4.7201   4.7238
     5.0673   5.0755   6.5148   6.5178   6.5416   6.5476   7.0621   7.0636

          k = 0.0000-0.5007-0.5000 (  5216 PWs)   bands (ev):

   -64.8719 -64.8719 -64.8718 -64.8708 -31.6626 -31.6624 -31.6622 -31.6622
   -31.6413 -31.6411 -31.6410 -31.6408 -31.6205 -31.6203 -31.6202 -31.6202
    -8.2333  -8.2332  -8.2303  -8.2302   4.2653   4.2654   4.2667   4.2668
     5.7359   5.7360   5.7433   5.7434   7.0317   7.0319   7.0342   7.0343

          k = 0.2500 0.0000 0.0000 (  5177 PWs)   bands (ev):

   -64.8774 -64.8707 -64.8695 -64.8689 -31.6678 -31.6671 -31.6648 -31.6430
   -31.6413 -31.6379 -31.6376 -31.6334 -31.6322 -31.6229 -31.6156 -31.6148
    -9.1778  -8.1567  -7.9145  -7.9118   4.0233   4.0277   4.0697   5.8260
     5.8288   6.1396   6.1466   6.5098   6.5181   6.6268   7.4149   7.4193

          k = 0.2500 0.0000 0.2500 (  5169 PWs)   bands (ev):

   -64.8762 -64.8707 -64.8703 -64.8692 -31.6648 -31.6646 -31.6622 -31.6507
   -31.6375 -31.6375 -31.6367 -31.6319 -31.6308 -31.6307 -31.6186 -31.6125
    -8.9889  -8.0922  -8.0921  -7.9175   4.1370   4.1370   4.3069   5.0450
     5.8189   6.0251   6.0255   6.4582   6.4583   6.5502   7.1391   7.4732

          k = 0.2500 0.0000-0.5000 (  5166 PWs)   bands (ev):

   -64.8736 -64.8731 -64.8702 -64.8696 -31.6609 -31.6608 -31.6536 -31.6536
   -31.6499 -31.6497 -31.6285 -31.6283 -31.6282 -31.6281 -31.6198 -31.6196
    -8.5354  -8.5352  -7.9752  -7.9751   4.3949   4.3950   4.7263   4.7265
     5.0709   5.0710   6.5170   6.5173   6.5440   6.5440   7.0638   7.0638

          k = 0.2500 0.2504 0.0000 (  5169 PWs)   bands (ev):

   -64.8762 -64.8707 -64.8703 -64.8693 -31.6647 -31.6642 -31.6629 -31.6503
   -31.6383 -31.6381 -31.6365 -31.6313 -31.6308 -31.6302 -31.6194 -31.6121
    -8.9882  -8.0921  -8.0895  -7.9193   4.1361   4.1372   4.3037   5.0450
     5.8147   6.0239   6.0307   6.4516   6.4540   6.5549   7.1424   7.4726

          k = 0.2500 0.2504 0.2500 (  5166 PWs)   bands (ev):

   -64.8752 -64.8707 -64.8707 -64.8698 -31.6685 -31.6683 -31.6681 -31.6497
   -31.6374 -31.6374 -31.6371 -31.6282 -31.6277 -31.6276 -31.6157 -31.6151
    -8.8196  -8.0591  -8.0590  -8.0572   3.9761   3.9767   3.9767   5.0604
     5.8169   5.8171   5.8192   6.6722   6.6761   6.6763   7.3228   7.3232

          k = 0.2500 0.2504-0.5000 (  5150 PWs)   bands (ev):

   -64.8731 -64.8726 -64.8707 -64.8700 -31.6717 -31.6715 -31.6642 -31.6641
   -31.6364 -31.6362 -31.6252 -31.6251 -31.6218 -31.6217 -31.6212 -31.6210
    -8.4252  -8.4251  -8.0251  -8.0250   3.7982   3.7983   4.1731   4.1733
     5.8023   5.8023   6.7100   6.7103   6.8375   6.8376   6.9855   6.9856

          k = 0.2500-0.5007 0.0000 (  5162 PWs)   bands (ev):

   -64.8735 -64.8731 -64.8702 -64.8696 -31.6606 -31.6604 -31.6534 -31.6532
   -31.6506 -31.6502 -31.6293 -31.6290 -31.6273 -31.6272 -31.6195 -31.6194
    -8.5356  -8.5308  -7.9760  -7.9750   4.3912   4.3946   4.7201   4.7238
     5.0673   5.0755   6.5148   6.5178   6.5416   6.5476   7.0621   7.0636

          k = 0.2500-0.5007 0.2500 (  5148 PWs)   bands (ev):

   -64.8730 -64.8726 -64.8707 -64.8700 -31.6716 -31.6715 -31.6641 -31.6640
   -31.6370 -31.6368 -31.6243 -31.6242 -31.6220 -31.6217 -31.6213 -31.6212
    -8.4258  -8.4218  -8.0255  -8.0254   3.7978   3.7979   4.1690   4.1729
     5.8024   5.8024   6.7090   6.7092   6.8387   6.8404   6.9814   6.9851

          k = 0.2500-0.5007-0.5000 (  5148 PWs)   bands (ev):

   -64.8719 -64.8719 -64.8718 -64.8708 -31.6747 -31.6745 -31.6744 -31.6744
   -31.6271 -31.6268 -31.6268 -31.6266 -31.6193 -31.6191 -31.6189 -31.6189
    -8.1958  -8.1957  -8.1937  -8.1936   3.6155   3.6155   3.6174   3.6175
     6.4920   6.4920   6.4962   6.4963   7.0331   7.0333   7.0349   7.0350

          k =-0.5000 0.0000 0.0000 (  5110 PWs)   bands (ev):

   -64.8743 -64.8738 -64.8695 -64.8689 -31.6530 -31.6527 -31.6522 -31.6520
   -31.6456 -31.6456 -31.6343 -31.6343 -31.6245 -31.6242 -31.6238 -31.6236
    -8.6709  -8.6707  -7.8848  -7.8847   4.8203   4.8203   4.8238   4.8238
     5.0946   5.0949   5.9469   5.9473   6.9343   6.9344   6.9410   6.9410

          k =-0.5000 0.0000 0.2500 (  5166 PWs)   bands (ev):

   -64.8736 -64.8731 -64.8702 -64.8696 -31.6609 -31.6608 -31.6536 -31.6536
   -31.6499 -31.6497 -31.6285 -31.6283 -31.6282 -31.6281 -31.6198 -31.6196
    -8.5354  -8.5353  -7.9752  -7.9751   4.3949   4.3950   4.7263   4.7265
     5.0710   5.0710   6.5170   6.5173   6.5440   6.5440   7.0638   7.0638

          k =-0.5000 0.0000-0.5000 (  5216 PWs)   bands (ev):

   -64.8719 -64.8719 -64.8719 -64.8708 -31.6627 -31.6625 -31.6624 -31.6624
   -31.6405 -31.6403 -31.6403 -31.6400 -31.6211 -31.6209 -31.6207 -31.6207
    -8.2329  -8.2327  -8.2327  -8.2326   4.2713   4.2714   4.2714   4.2716
     5.7389   5.7390   5.7393   5.7393   7.0307   7.0309   7.0309   7.0311

          k =-0.5000 0.2504 0.0000 (  5166 PWs)   bands (ev):

   -64.8736 -64.8731 -64.8702 -64.8696 -31.6605 -31.6604 -31.6536 -31.6535
   -31.6507 -31.6504 -31.6291 -31.6289 -31.6278 -31.6278 -31.6192 -31.6190
    -8.5349  -8.5348  -7.9747  -7.9746   4.3929   4.3930   4.7229   4.7231
     5.0685   5.0686   6.5203   6.5205   6.5484   6.5485   7.0612   7.0612

          k =-0.5000 0.2504 0.2500 (  5150 PWs)   bands (ev):

   -64.8731 -64.8726 -64.8707 -64.8700 -31.6717 -31.6715 -31.6642 -31.6641
   -31.6364 -31.6362 -31.6252 -31.6251 -31.6218 -31.6217 -31.6212 -31.6210
    -8.4252  -8.4251  -8.0251  -8.0250   3.7982   3.7983   4.1731   4.1733
     5.8023   5.8023   6.7100   6.7103   6.8375   6.8376   6.9855   6.9856

          k =-0.5000 0.2504-0.5000 (  5148 PWs)   bands (ev):

   -64.8719 -64.8719 -64.8719 -64.8708 -31.6749 -31.6747 -31.6746 -31.6746
   -31.6264 -31.6262 -31.6262 -31.6260 -31.6197 -31.6195 -31.6193 -31.6193
    -8.1954  -8.1952  -8.1952  -8.1951   3.6181   3.6183   3.6183   3.6183
     6.4956   6.4956   6.4959   6.4959   7.0319   7.0320   7.0321   7.0323

          k =-0.5000-0.5007 0.0000 (  5216 PWs)   bands (ev):

   -64.8719 -64.8719 -64.8718 -64.8708 -31.6626 -31.6624 -31.6622 -31.6622
   -31.6413 -31.6411 -31.6410 -31.6408 -31.6205 -31.6203 -31.6202 -31.6202
    -8.2333  -8.2332  -8.2303  -8.2302   4.2653   4.2654   4.2666   4.2668
     5.7360   5.7360   5.7433   5.7434   7.0317   7.0319   7.0342   7.0343

          k =-0.5000-0.5007 0.2500 (  5148 PWs)   bands (ev):

   -64.8719 -64.8719 -64.8718 -64.8708 -31.6747 -31.6745 -31.6744 -31.6744
   -31.6271 -31.6268 -31.6268 -31.6266 -31.6193 -31.6191 -31.6189 -31.6189
    -8.1958  -8.1957  -8.1937  -8.1936   3.6155   3.6155   3.6174   3.6175
     6.4920   6.4920   6.4962   6.4962   7.0331   7.0333   7.0349   7.0350

          k =-0.5000-0.5007-0.5000 (  5232 PWs)   bands (ev):

   -64.8718 -64.8718 -64.8718 -64.8708 -31.6846 -31.6843 -31.6843 -31.6843
   -31.6208 -31.6206 -31.6205 -31.6205 -31.6201 -31.6198 -31.6198 -31.6197
    -8.1574  -8.1572  -8.1572  -8.1572   3.1952   3.1953   3.1953   3.1953
     7.0323   7.0325   7.0325   7.0327   7.0351   7.0351   7.0353   7.0353

     highest occupied level (ev):     7.6394

!    total energy              =    -608.39272324 Ry
     Harris-Foulkes estimate   =    -608.39272324 Ry
     estimated scf accuracy    <          1.2E-09 Ry

     The total energy is the sum of the following terms:

     one-electron contribution =    -304.11172177 Ry
     hartree contribution      =     168.25275839 Ry
     xc contribution           =     -97.83470158 Ry
     ewald contribution        =    -374.69905828 Ry

     convergence has been achieved in   3 iterations

     Forces acting on atoms (cartesian axes, Ry/au):

     atom    1 type  1   force =     0.00000000    0.00048368    0.00000000
     atom    2 type  1   force =     0.00000000   -0.00048523    0.00000000
     atom    3 type  1   force =     0.00000000    0.00049963    0.00000000
     atom    4 type  1   force =     0.00000000   -0.00048505    0.00000000
     atom    5 type  2   force =     0.00000000    0.00062087    0.00000000
     atom    6 type  2   force =     0.00000000   -0.00062661    0.00000000
     atom    7 type  2   force =     0.00000000    0.00062059    0.00000000
     atom    8 type  2   force =     0.00000000   -0.00062790    0.00000000

     Total force =     0.001585     Total SCF correction =     0.000126


     Computing stress (Cartesian axis) and pressure

          total   stress  (Ry/bohr**3)                   (kbar)     P=  -72.26
  -0.00049754   0.00000000   0.00000000        -73.19      0.00      0.00
   0.00000000  -0.00047853   0.00000000          0.00    -70.39      0.00
   0.00000000   0.00000000  -0.00049758          0.00      0.00    -73.20


     number of scf cycles    =   2
     number of bfgs steps    =   1

     energy   old            =    -608.3927184906 Ry
     energy   new            =    -608.3927232434 Ry

     CASE: energy  _new < energy  _old

     new trust radius        =       0.0009970240 bohr
     new conv_thr            =            1.0E-10 Ry


ATOMIC_POSITIONS (alat)
Mg       0.000000000   0.000192110   0.000000000
Mg       0.000000000   0.499809570   0.500000000
Mg       0.500000000   0.000195275   0.500000000
Mg       0.500000000   0.499809480   0.000000000
O        0.500000000   0.000232710   0.000000000
O        0.000000000   0.499764472   0.000000000
O        0.000000000   0.000232648   0.500000000
O        0.500000000   0.499763735   0.500000000



     Writing output data file diamond.8.05624594775.70.4.save
     NEW-OLD atomic charge density approx. for the potential

     Check: negative/imaginary core charge=   -0.000007    0.000000

     total cpu time spent up to now is       17.0 secs

     per-process dynamical memory:    50.8 Mb

     Self-consistent Calculation

     iteration #  1     ecut=    70.00 Ry     beta=0.70
     Davidson diagonalization with overlap
     ethr =  1.00E-06,  avg # of iterations =  2.4

     Threshold (ethr) on eigenvalues was too large:
     Diagonalizing with lowered threshold

     Davidson diagonalization with overlap
     ethr =  1.73E-09,  avg # of iterations =  2.1

     total cpu time spent up to now is       19.5 secs

     total energy              =    -608.39272602 Ry
     Harris-Foulkes estimate   =    -608.39272693 Ry
     estimated scf accuracy    <       0.00000123 Ry

     iteration #  2     ecut=    70.00 Ry     beta=0.70
     Davidson diagonalization with overlap
     ethr =  1.93E-09,  avg # of iterations =  2.2

     total cpu time spent up to now is       20.6 secs

     total energy              =    -608.39272639 Ry
     Harris-Foulkes estimate   =    -608.39272652 Ry
     estimated scf accuracy    <       0.00000021 Ry

     iteration #  3     ecut=    70.00 Ry     beta=0.70
     Davidson diagonalization with overlap
     ethr =  3.29E-10,  avg # of iterations =  2.0

     total cpu time spent up to now is       21.6 secs

     total energy              =    -608.39272644 Ry
     Harris-Foulkes estimate   =    -608.39272644 Ry
     estimated scf accuracy    <          1.4E-09 Ry

     iteration #  4     ecut=    70.00 Ry     beta=0.70
     Davidson diagonalization with overlap
     ethr =  2.12E-12,  avg # of iterations =  2.6

     total cpu time spent up to now is       22.9 secs

     total energy              =    -608.39272644 Ry
     Harris-Foulkes estimate   =    -608.39272644 Ry
     estimated scf accuracy    <          2.2E-10 Ry

     iteration #  5     ecut=    70.00 Ry     beta=0.70
     Davidson diagonalization with overlap
     ethr =  3.49E-13,  avg # of iterations =  2.4

     total cpu time spent up to now is       24.1 secs

     End of self-consistent calculation

          k = 0.0000 0.0000 0.0000 (  5169 PWs)   bands (ev):

   -64.8788 -64.8695 -64.8695 -64.8687 -31.6743 -31.6743 -31.6736 -31.6374
   -31.6374 -31.6370 -31.6370 -31.6365 -31.6365 -31.6102 -31.6102 -31.6075
    -9.3849  -7.9431  -7.9430  -7.9394   3.7339   3.7339   3.7385   6.3463
     6.3463   6.3474   6.3477   6.3564   6.3564   7.6364   7.6394   7.6394

          k = 0.0000 0.0000 0.2500 (  5177 PWs)   bands (ev):

   -64.8774 -64.8707 -64.8695 -64.8689 -31.6678 -31.6671 -31.6648 -31.6429
   -31.6413 -31.6379 -31.6376 -31.6334 -31.6322 -31.6229 -31.6156 -31.6148
    -9.1778  -8.1567  -7.9145  -7.9118   4.0233   4.0277   4.0697   5.8260
     5.8287   6.1396   6.1466   6.5098   6.5181   6.6268   7.4149   7.4193

          k = 0.0000 0.0000-0.5000 (  5110 PWs)   bands (ev):

   -64.8743 -64.8738 -64.8695 -64.8689 -31.6530 -31.6527 -31.6522 -31.6520
   -31.6456 -31.6456 -31.6343 -31.6343 -31.6245 -31.6242 -31.6238 -31.6236
    -8.6709  -8.6708  -7.8848  -7.8847   4.8202   4.8203   4.8237   4.8238
     5.0946   5.0949   5.9470   5.9473   6.9343   6.9344   6.9409   6.9410

          k = 0.0000 0.2504 0.0000 (  5161 PWs)   bands (ev):

   -64.8774 -64.8707 -64.8695 -64.8689 -31.6677 -31.6677 -31.6631 -31.6419
   -31.6419 -31.6371 -31.6370 -31.6330 -31.6330 -31.6214 -31.6155 -31.6155
    -9.1770  -8.1531  -7.9146  -7.9146   4.0243   4.0243   4.0727   5.8345
     5.8345   6.1373   6.1377   6.5091   6.5091   6.6241   7.4174   7.4174

          k = 0.0000 0.2504 0.2500 (  5169 PWs)   bands (ev):

   -64.8762 -64.8707 -64.8703 -64.8693 -31.6647 -31.6642 -31.6629 -31.6503
   -31.6383 -31.6381 -31.6365 -31.6313 -31.6308 -31.6302 -31.6194 -31.6121
    -8.9882  -8.0921  -8.0895  -7.9193   4.1361   4.1372   4.3037   5.0450
     5.8146   6.0239   6.0307   6.4516   6.4540   6.5549   7.1424   7.4726

          k = 0.0000 0.2504-0.5000 (  5166 PWs)   bands (ev):

   -64.8736 -64.8731 -64.8702 -64.8696 -31.6605 -31.6604 -31.6536 -31.6535
   -31.6507 -31.6504 -31.6291 -31.6289 -31.6278 -31.6278 -31.6192 -31.6190
    -8.5349  -8.5348  -7.9747  -7.9746   4.3929   4.3930   4.7229   4.7231
     5.0685   5.0686   6.5203   6.5205   6.5484   6.5485   7.0612   7.0612

          k = 0.0000-0.5007 0.0000 (  5110 PWs)   bands (ev):

   -64.8742 -64.8738 -64.8695 -64.8689 -31.6528 -31.6528 -31.6525 -31.6525
   -31.6450 -31.6448 -31.6338 -31.6337 -31.6246 -31.6246 -31.6244 -31.6244
    -8.6698  -8.6669  -7.8858  -7.8857   4.8218   4.8218   4.8264   4.8264
     5.0926   5.0943   5.9397   5.9400   6.9337   6.9337   6.9364   6.9364

          k = 0.0000-0.5007 0.2500 (  5162 PWs)   bands (ev):

   -64.8735 -64.8731 -64.8702 -64.8696 -31.6606 -31.6604 -31.6533 -31.6532
   -31.6506 -31.6503 -31.6293 -31.6290 -31.6273 -31.6272 -31.6195 -31.6193
    -8.5345  -8.5320  -7.9758  -7.9753   4.3919   4.3938   4.7210   4.7228
     5.0692   5.0736   6.5154   6.5171   6.5430   6.5462   7.0624   7.0633

          k = 0.0000-0.5007-0.5000 (  5216 PWs)   bands (ev):

   -64.8719 -64.8719 -64.8718 -64.8708 -31.6626 -31.6624 -31.6622 -31.6622
   -31.6413 -31.6411 -31.6410 -31.6408 -31.6205 -31.6203 -31.6202 -31.6202
    -8.2326  -8.2325  -8.2310  -8.2309   4.2656   4.2658   4.2663   4.2664
     5.7376   5.7377   5.7416   5.7417   7.0323   7.0324   7.0335   7.0337

          k = 0.2500 0.0000 0.0000 (  5177 PWs)   bands (ev):

   -64.8774 -64.8707 -64.8695 -64.8689 -31.6678 -31.6671 -31.6648 -31.6429
   -31.6413 -31.6379 -31.6376 -31.6334 -31.6322 -31.6229 -31.6156 -31.6148
    -9.1778  -8.1567  -7.9145  -7.9118   4.0233   4.0277   4.0697   5.8260
     5.8288   6.1395   6.1466   6.5098   6.5181   6.6268   7.4149   7.4193

          k = 0.2500 0.0000 0.2500 (  5169 PWs)   bands (ev):

   -64.8762 -64.8707 -64.8703 -64.8692 -31.6648 -31.6646 -31.6622 -31.6507
   -31.6375 -31.6375 -31.6367 -31.6319 -31.6308 -31.6307 -31.6186 -31.6125
    -8.9889  -8.0922  -8.0922  -7.9175   4.1370   4.1370   4.3068   5.0450
     5.8189   6.0251   6.0255   6.4582   6.4582   6.5502   7.1391   7.4732

          k = 0.2500 0.0000-0.5000 (  5166 PWs)   bands (ev):

   -64.8736 -64.8731 -64.8702 -64.8696 -31.6609 -31.6608 -31.6536 -31.6536
   -31.6499 -31.6497 -31.6285 -31.6282 -31.6282 -31.6281 -31.6198 -31.6196
    -8.5354  -8.5353  -7.9752  -7.9751   4.3949   4.3950   4.7263   4.7265
     5.0709   5.0710   6.5171   6.5173   6.5439   6.5440   7.0637   7.0638

          k = 0.2500 0.2504 0.0000 (  5169 PWs)   bands (ev):

   -64.8762 -64.8707 -64.8703 -64.8693 -31.6647 -31.6642 -31.6629 -31.6503
   -31.6383 -31.6381 -31.6365 -31.6313 -31.6308 -31.6302 -31.6194 -31.6121
    -8.9882  -8.0921  -8.0895  -7.9193   4.1361   4.1372   4.3037   5.0450
     5.8146   6.0239   6.0307   6.4516   6.4540   6.5549   7.1424   7.4726

          k = 0.2500 0.2504 0.2500 (  5166 PWs)   bands (ev):

   -64.8752 -64.8707 -64.8707 -64.8698 -31.6685 -31.6683 -31.6681 -31.6497
   -31.6374 -31.6374 -31.6371 -31.6282 -31.6277 -31.6276 -31.6157 -31.6151
    -8.8196  -8.0591  -8.0590  -8.0572   3.9761   3.9767   3.9767   5.0604
     5.8169   5.8170   5.8191   6.6722   6.6761   6.6763   7.3228   7.3232

          k = 0.2500 0.2504-0.5000 (  5150 PWs)   bands (ev):

   -64.8731 -64.8726 -64.8707 -64.8700 -31.6717 -31.6715 -31.6642 -31.6641
   -31.6364 -31.6362 -31.6252 -31.6251 -31.6218 -31.6217 -31.6212 -31.6210
    -8.4252  -8.4251  -8.0251  -8.0250   3.7982   3.7982   4.1731   4.1733
     5.8023   5.8023   6.7100   6.7103   6.8374   6.8376   6.9855   6.9855

          k = 0.2500-0.5007 0.0000 (  5162 PWs)   bands (ev):

   -64.8735 -64.8731 -64.8702 -64.8696 -31.6606 -31.6604 -31.6533 -31.6532
   -31.6506 -31.6503 -31.6293 -31.6290 -31.6273 -31.6272 -31.6195 -31.6193
    -8.5345  -8.5320  -7.9758  -7.9753   4.3919   4.3938   4.7210   4.7228
     5.0692   5.0736   6.5155   6.5171   6.5430   6.5462   7.0624   7.0632

          k = 0.2500-0.5007 0.2500 (  5148 PWs)   bands (ev):

   -64.8730 -64.8726 -64.8707 -64.8700 -31.6716 -31.6715 -31.6641 -31.6640
   -31.6370 -31.6368 -31.6243 -31.6242 -31.6220 -31.6217 -31.6213 -31.6212
    -8.4249  -8.4227  -8.0255  -8.0255   3.7978   3.7979   4.1700   4.1719
     5.8024   5.8024   6.7090   6.7092   6.8391   6.8400   6.9822   6.9842

          k = 0.2500-0.5007-0.5000 (  5148 PWs)   bands (ev):

   -64.8719 -64.8718 -64.8718 -64.8708 -31.6747 -31.6745 -31.6744 -31.6744
   -31.6270 -31.6268 -31.6268 -31.6266 -31.6193 -31.6191 -31.6189 -31.6189
    -8.1953  -8.1952  -8.1942  -8.1941   3.6159   3.6160   3.6169   3.6170
     6.4929   6.4930   6.4952   6.4953   7.0335   7.0337   7.0344   7.0346

          k =-0.5000 0.0000 0.0000 (  5110 PWs)   bands (ev):

   -64.8743 -64.8738 -64.8695 -64.8689 -31.6530 -31.6527 -31.6522 -31.6520
   -31.6456 -31.6456 -31.6343 -31.6343 -31.6245 -31.6242 -31.6238 -31.6236
    -8.6709  -8.6708  -7.8848  -7.8847   4.8203   4.8203   4.8238   4.8238
     5.0946   5.0949   5.9470   5.9473   6.9343   6.9343   6.9410   6.9410

          k =-0.5000 0.0000 0.2500 (  5166 PWs)   bands (ev):

   -64.8736 -64.8731 -64.8702 -64.8696 -31.6609 -31.6608 -31.6536 -31.6536
   -31.6499 -31.6497 -31.6285 -31.6282 -31.6282 -31.6281 -31.6198 -31.6196
    -8.5354  -8.5353  -7.9752  -7.9751   4.3949   4.3950   4.7263   4.7265
     5.0709   5.0710   6.5171   6.5173   6.5439   6.5439   7.0637   7.0638

          k =-0.5000 0.0000-0.5000 (  5216 PWs)   bands (ev):

   -64.8719 -64.8719 -64.8719 -64.8708 -31.6627 -31.6625 -31.6624 -31.6624
   -31.6405 -31.6403 -31.6403 -31.6400 -31.6211 -31.6209 -31.6207 -31.6207
    -8.2328  -8.2327  -8.2327  -8.2327   4.2713   4.2714   4.2714   4.2716
     5.7389   5.7389   5.7393   5.7393   7.0307   7.0309   7.0309   7.0310

          k =-0.5000 0.2504 0.0000 (  5166 PWs)   bands (ev):

   -64.8736 -64.8731 -64.8702 -64.8696 -31.6605 -31.6604 -31.6535 -31.6535
   -31.6507 -31.6504 -31.6291 -31.6289 -31.6278 -31.6278 -31.6192 -31.6190
    -8.5349  -8.5348  -7.9747  -7.9746   4.3929   4.3929   4.7229   4.7231
     5.0685   5.0685   6.5203   6.5205   6.5484   6.5484   7.0612   7.0612

          k =-0.5000 0.2504 0.2500 (  5150 PWs)   bands (ev):

   -64.8731 -64.8726 -64.8707 -64.8700 -31.6717 -31.6715 -31.6642 -31.6641
   -31.6364 -31.6362 -31.6252 -31.6251 -31.6218 -31.6217 -31.6212 -31.6210
    -8.4252  -8.4251  -8.0251  -8.0250   3.7982   3.7982   4.1731   4.1733
     5.8023   5.8023   6.7100   6.7103   6.8374   6.8376   6.9855   6.9855

          k =-0.5000 0.2504-0.5000 (  5148 PWs)   bands (ev):

   -64.8718 -64.8718 -64.8718 -64.8708 -31.6749 -31.6747 -31.6746 -31.6746
   -31.6264 -31.6262 -31.6262 -31.6260 -31.6197 -31.6195 -31.6193 -31.6193
    -8.1954  -8.1952  -8.1952  -8.1952   3.6181   3.6183   3.6183   3.6183
     6.4956   6.4956   6.4959   6.4959   7.0319   7.0320   7.0320   7.0322

          k =-0.5000-0.5007 0.0000 (  5216 PWs)   bands (ev):

   -64.8719 -64.8719 -64.8718 -64.8708 -31.6626 -31.6624 -31.6622 -31.6622
   -31.6413 -31.6411 -31.6410 -31.6408 -31.6205 -31.6203 -31.6202 -31.6202
    -8.2326  -8.2325  -8.2310  -8.2309   4.2656   4.2658   4.2663   4.2664
     5.7377   5.7377   5.7416   5.7416   7.0323   7.0324   7.0335   7.0337

          k =-0.5000-0.5007 0.2500 (  5148 PWs)   bands (ev):

   -64.8719 -64.8718 -64.8718 -64.8708 -31.6747 -31.6745 -31.6744 -31.6744
   -31.6270 -31.6268 -31.6268 -31.6266 -31.6193 -31.6191 -31.6189 -31.6189
    -8.1953  -8.1952  -8.1942  -8.1941   3.6159   3.6160   3.6169   3.6170
     6.4929   6.4930   6.4952   6.4952   7.0335   7.0337   7.0344   7.0346

          k =-0.5000-0.5007-0.5000 (  5232 PWs)   bands (ev):

   -64.8718 -64.8718 -64.8718 -64.8708 -31.6846 -31.6843 -31.6843 -31.6843
   -31.6208 -31.6206 -31.6205 -31.6205 -31.6201 -31.6198 -31.6198 -31.6197
    -8.1574  -8.1572  -8.1572  -8.1572   3.1952   3.1953   3.1953   3.1953
     7.0323   7.0324   7.0324   7.0326   7.0351   7.0351   7.0353   7.0353

     highest occupied level (ev):     7.6394

!    total energy              =    -608.39272644 Ry
     Harris-Foulkes estimate   =    -608.39272644 Ry
     estimated scf accuracy    <          2.6E-11 Ry

     The total energy is the sum of the following terms:

     one-electron contribution =    -304.11115673 Ry
     hartree contribution      =     168.25249449 Ry
     xc contribution           =     -97.83470724 Ry
     ewald contribution        =    -374.69935696 Ry

     convergence has been achieved in   5 iterations

     Forces acting on atoms (cartesian axes, Ry/au):

     atom    1 type  1   force =     0.00000000    0.00033125    0.00000000
     atom    2 type  1   force =     0.00000000   -0.00034604    0.00000000
     atom    3 type  1   force =     0.00000000    0.00035829    0.00000000
     atom    4 type  1   force =     0.00000000   -0.00034589    0.00000000
     atom    5 type  2   force =     0.00000000    0.00029599    0.00000000
     atom    6 type  2   force =     0.00000000   -0.00029428    0.00000000
     atom    7 type  2   force =     0.00000000    0.00029572    0.00000000
     atom    8 type  2   force =     0.00000000   -0.00029503    0.00000000

     Total force =     0.000909     Total SCF correction =     0.000053


     Computing stress (Cartesian axis) and pressure

          total   stress  (Ry/bohr**3)                   (kbar)     P=  -72.26
  -0.00049750   0.00000000   0.00000000        -73.18      0.00      0.00
   0.00000000  -0.00047855   0.00000000          0.00    -70.40      0.00
   0.00000000   0.00000000  -0.00049753          0.00      0.00    -73.19


     number of scf cycles    =   3
     number of bfgs steps    =   2

     energy   old            =    -608.3927232434 Ry
     energy   new            =    -608.3927264403 Ry

     CASE: energy  _new < energy  _old

     new trust radius        =       0.0012287782 bohr
     new conv_thr            =            1.0E-10 Ry


ATOMIC_POSITIONS (alat)
Mg       0.000000000   0.000335314   0.000000000
Mg       0.000000000   0.499661992   0.500000000
Mg       0.500000000   0.000347800   0.500000000
Mg       0.500000000   0.499661966   0.000000000
O        0.500000000   0.000380038   0.000000000
O        0.000000000   0.499617048   0.000000000
O        0.000000000   0.000379872   0.500000000
O        0.500000000   0.499615971   0.500000000



     Writing output data file diamond.8.05624594775.70.4.save
     NEW-OLD atomic charge density approx. for the potential

     Check: negative/imaginary core charge=   -0.000007    0.000000

     total cpu time spent up to now is       24.8 secs

     per-process dynamical memory:    50.8 Mb

     Self-consistent Calculation

     iteration #  1     ecut=    70.00 Ry     beta=0.70
     Davidson diagonalization with overlap
     ethr =  1.00E-06,  avg # of iterations =  2.8

     Threshold (ethr) on eigenvalues was too large:
     Diagonalizing with lowered threshold

     Davidson diagonalization with overlap
     ethr =  2.81E-09,  avg # of iterations =  2.1

     total cpu time spent up to now is       27.3 secs

     total energy              =    -608.39272716 Ry
     Harris-Foulkes estimate   =    -608.39272855 Ry
     estimated scf accuracy    <       0.00000191 Ry

     iteration #  2     ecut=    70.00 Ry     beta=0.70
     Davidson diagonalization with overlap
     ethr =  2.99E-09,  avg # of iterations =  2.2

     total cpu time spent up to now is       28.4 secs

     total energy              =    -608.39272774 Ry
     Harris-Foulkes estimate   =    -608.39272793 Ry
     estimated scf accuracy    <       0.00000033 Ry

     iteration #  3     ecut=    70.00 Ry     beta=0.70
     Davidson diagonalization with overlap
     ethr =  5.13E-10,  avg # of iterations =  2.0

     total cpu time spent up to now is       29.5 secs

     total energy              =    -608.39272781 Ry
     Harris-Foulkes estimate   =    -608.39272781 Ry
     estimated scf accuracy    <          2.3E-09 Ry

     iteration #  4     ecut=    70.00 Ry     beta=0.70
     Davidson diagonalization with overlap
     ethr =  3.57E-12,  avg # of iterations =  2.3

     total cpu time spent up to now is       30.7 secs

     total energy              =    -608.39272781 Ry
     Harris-Foulkes estimate   =    -608.39272781 Ry
     estimated scf accuracy    <          1.7E-10 Ry

     iteration #  5     ecut=    70.00 Ry     beta=0.70
     Davidson diagonalization with overlap
     ethr =  2.58E-13,  avg # of iterations =  2.1

     total cpu time spent up to now is       31.8 secs

     End of self-consistent calculation

          k = 0.0000 0.0000 0.0000 (  5169 PWs)   bands (ev):

   -64.8788 -64.8695 -64.8695 -64.8687 -31.6743 -31.6743 -31.6736 -31.6374
   -31.6374 -31.6370 -31.6370 -31.6365 -31.6365 -31.6102 -31.6102 -31.6075
    -9.3849  -7.9431  -7.9430  -7.9394   3.7339   3.7339   3.7385   6.3463
     6.3463   6.3473   6.3477   6.3564   6.3564   7.6364   7.6394   7.6394

          k = 0.0000 0.0000 0.2500 (  5177 PWs)   bands (ev):

   -64.8774 -64.8707 -64.8695 -64.8689 -31.6678 -31.6671 -31.6648 -31.6429
   -31.6413 -31.6379 -31.6376 -31.6334 -31.6322 -31.6229 -31.6156 -31.6148
    -9.1778  -8.1567  -7.9145  -7.9118   4.0233   4.0277   4.0697   5.8260
     5.8287   6.1396   6.1466   6.5098   6.5181   6.6268   7.4149   7.4193

          k = 0.0000 0.0000-0.5000 (  5110 PWs)   bands (ev):

   -64.8743 -64.8738 -64.8695 -64.8689 -31.6530 -31.6527 -31.6522 -31.6520
   -31.6456 -31.6456 -31.6343 -31.6343 -31.6245 -31.6242 -31.6238 -31.6236
    -8.6709  -8.6708  -7.8848  -7.8847   4.8202   4.8204   4.8237   4.8238
     5.0946   5.0949   5.9470   5.9473   6.9343   6.9344   6.9409   6.9410

          k = 0.0000 0.2504 0.0000 (  5161 PWs)   bands (ev):

   -64.8774 -64.8707 -64.8695 -64.8689 -31.6677 -31.6677 -31.6631 -31.6419
   -31.6419 -31.6371 -31.6370 -31.6330 -31.6330 -31.6214 -31.6155 -31.6155
    -9.1770  -8.1531  -7.9146  -7.9146   4.0243   4.0243   4.0727   5.8344
     5.8345   6.1373   6.1377   6.5091   6.5091   6.6241   7.4174   7.4174

          k = 0.0000 0.2504 0.2500 (  5169 PWs)   bands (ev):

   -64.8762 -64.8707 -64.8703 -64.8693 -31.6647 -31.6642 -31.6629 -31.6503
   -31.6383 -31.6381 -31.6365 -31.6313 -31.6308 -31.6302 -31.6194 -31.6121
    -8.9882  -8.0921  -8.0895  -7.9193   4.1361   4.1372   4.3037   5.0450
     5.8146   6.0239   6.0307   6.4516   6.4540   6.5549   7.1424   7.4726

          k = 0.0000 0.2504-0.5000 (  5166 PWs)   bands (ev):

   -64.8736 -64.8731 -64.8702 -64.8696 -31.6605 -31.6604 -31.6536 -31.6535
   -31.6507 -31.6504 -31.6291 -31.6289 -31.6278 -31.6278 -31.6192 -31.6190
    -8.5349  -8.5348  -7.9747  -7.9746   4.3929   4.3930   4.7229   4.7231
     5.0685   5.0686   6.5203   6.5205   6.5484   6.5485   7.0612   7.0612

          k = 0.0000-0.5007 0.0000 (  5110 PWs)   bands (ev):

   -64.8742 -64.8738 -64.8695 -64.8689 -31.6528 -31.6528 -31.6526 -31.6526
   -31.6449 -31.6449 -31.6338 -31.6337 -31.6246 -31.6246 -31.6244 -31.6244
    -8.6685  -8.6682  -7.8858  -7.8857   4.8239   4.8239   4.8243   4.8243
     5.0932   5.0936   5.9397   5.9400   6.9349   6.9349   6.9353   6.9353

          k = 0.0000-0.5007 0.2500 (  5162 PWs)   bands (ev):

   -64.8735 -64.8731 -64.8702 -64.8696 -31.6606 -31.6605 -31.6533 -31.6533
   -31.6505 -31.6503 -31.6292 -31.6290 -31.6273 -31.6273 -31.6195 -31.6193
    -8.5334  -8.5331  -7.9756  -7.9755   4.3928   4.3929   4.7217   4.7221
     5.0712   5.0716   6.5161   6.5164   6.5444   6.5448   7.0628   7.0629

          k = 0.0000-0.5007-0.5000 (  5216 PWs)   bands (ev):

   -64.8719 -64.8719 -64.8719 -64.8708 -31.6626 -31.6624 -31.6622 -31.6622
   -31.6413 -31.6411 -31.6411 -31.6408 -31.6205 -31.6203 -31.6202 -31.6202
    -8.2319  -8.2318  -8.2317  -8.2316   4.2658   4.2659   4.2661   4.2662
     5.7393   5.7394   5.7399   5.7400   7.0328   7.0329   7.0330   7.0332

          k = 0.2500 0.0000 0.0000 (  5177 PWs)   bands (ev):

   -64.8774 -64.8707 -64.8695 -64.8689 -31.6678 -31.6671 -31.6648 -31.6429
   -31.6413 -31.6379 -31.6376 -31.6334 -31.6322 -31.6229 -31.6156 -31.6148
    -9.1778  -8.1567  -7.9145  -7.9118   4.0233   4.0277   4.0697   5.8260
     5.8288   6.1395   6.1466   6.5098   6.5181   6.6268   7.4149   7.4193

          k = 0.2500 0.0000 0.2500 (  5169 PWs)   bands (ev):

   -64.8762 -64.8707 -64.8703 -64.8692 -31.6648 -31.6646 -31.6622 -31.6507
   -31.6375 -31.6375 -31.6367 -31.6319 -31.6308 -31.6307 -31.6186 -31.6125
    -8.9889  -8.0922  -8.0921  -7.9175   4.1370   4.1370   4.3068   5.0450
     5.8189   6.0251   6.0255   6.4582   6.4582   6.5502   7.1391   7.4732

          k = 0.2500 0.0000-0.5000 (  5166 PWs)   bands (ev):

   -64.8736 -64.8731 -64.8702 -64.8696 -31.6609 -31.6608 -31.6536 -31.6536
   -31.6499 -31.6497 -31.6285 -31.6282 -31.6282 -31.6281 -31.6198 -31.6196
    -8.5354  -8.5353  -7.9752  -7.9751   4.3949   4.3950   4.7263   4.7265
     5.0709   5.0710   6.5171   6.5173   6.5439   6.5439   7.0637   7.0638

          k = 0.2500 0.2504 0.0000 (  5169 PWs)   bands (ev):

   -64.8762 -64.8707 -64.8703 -64.8693 -31.6647 -31.6642 -31.6629 -31.6503
   -31.6383 -31.6381 -31.6365 -31.6313 -31.6308 -31.6302 -31.6194 -31.6121
    -8.9882  -8.0921  -8.0895  -7.9193   4.1361   4.1372   4.3037   5.0450
     5.8146   6.0239   6.0307   6.4516   6.4540   6.5549   7.1424   7.4726

          k = 0.2500 0.2504 0.2500 (  5166 PWs)   bands (ev):

   -64.8752 -64.8707 -64.8707 -64.8699 -31.6685 -31.6683 -31.6681 -31.6497
   -31.6374 -31.6374 -31.6371 -31.6282 -31.6277 -31.6276 -31.6157 -31.6151
    -8.8196  -8.0591  -8.0590  -8.0572   3.9761   3.9767   3.9767   5.0604
     5.8169   5.8170   5.8191   6.6722   6.6761   6.6763   7.3228   7.3232

          k = 0.2500 0.2504-0.5000 (  5150 PWs)   bands (ev):

   -64.8731 -64.8726 -64.8707 -64.8700 -31.6717 -31.6715 -31.6642 -31.6641
   -31.6364 -31.6362 -31.6252 -31.6251 -31.6218 -31.6217 -31.6212 -31.6210
    -8.4252  -8.4251  -8.0251  -8.0250   3.7982   3.7982   4.1731   4.1733
     5.8023   5.8023   6.7100   6.7103   6.8374   6.8376   6.9855   6.9856

          k = 0.2500-0.5007 0.0000 (  5162 PWs)   bands (ev):

   -64.8735 -64.8731 -64.8702 -64.8696 -31.6606 -31.6605 -31.6533 -31.6533
   -31.6505 -31.6503 -31.6292 -31.6290 -31.6273 -31.6273 -31.6195 -31.6193
    -8.5334  -8.5331  -7.9756  -7.9755   4.3928   4.3929   4.7217   4.7221
     5.0712   5.0716   6.5161   6.5164   6.5444   6.5448   7.0628   7.0629

          k = 0.2500-0.5007 0.2500 (  5148 PWs)   bands (ev):

   -64.8730 -64.8726 -64.8707 -64.8700 -31.6716 -31.6715 -31.6641 -31.6640
   -31.6370 -31.6368 -31.6243 -31.6242 -31.6220 -31.6217 -31.6213 -31.6212
    -8.4239  -8.4237  -8.0255  -8.0255   3.7978   3.7979   4.1707   4.1711
     5.8024   5.8024   6.7090   6.7092   6.8395   6.8396   6.9831   6.9833

          k = 0.2500-0.5007-0.5000 (  5148 PWs)   bands (ev):

   -64.8719 -64.8719 -64.8718 -64.8708 -31.6747 -31.6745 -31.6744 -31.6744
   -31.6270 -31.6268 -31.6268 -31.6266 -31.6193 -31.6191 -31.6189 -31.6189
    -8.1949  -8.1947  -8.1946  -8.1946   3.6163   3.6164   3.6166   3.6166
     6.4939   6.4939   6.4943   6.4943   7.0339   7.0340   7.0341   7.0343

          k =-0.5000 0.0000 0.0000 (  5110 PWs)   bands (ev):

   -64.8743 -64.8738 -64.8695 -64.8689 -31.6530 -31.6527 -31.6522 -31.6520
   -31.6456 -31.6456 -31.6343 -31.6343 -31.6245 -31.6242 -31.6238 -31.6236
    -8.6709  -8.6708  -7.8848  -7.8847   4.8203   4.8203   4.8238   4.8238
     5.0946   5.0949   5.9470   5.9473   6.9343   6.9344   6.9409   6.9410

          k =-0.5000 0.0000 0.2500 (  5166 PWs)   bands (ev):

   -64.8736 -64.8731 -64.8702 -64.8696 -31.6609 -31.6608 -31.6536 -31.6536
   -31.6499 -31.6497 -31.6285 -31.6282 -31.6282 -31.6281 -31.6198 -31.6196
    -8.5354  -8.5353  -7.9752  -7.9751   4.3949   4.3950   4.7263   4.7265
     5.0709   5.0710   6.5171   6.5173   6.5439   6.5439   7.0637   7.0638

          k =-0.5000 0.0000-0.5000 (  5216 PWs)   bands (ev):

   -64.8719 -64.8719 -64.8719 -64.8708 -31.6627 -31.6625 -31.6624 -31.6624
   -31.6405 -31.6403 -31.6403 -31.6400 -31.6211 -31.6209 -31.6207 -31.6207
    -8.2329  -8.2327  -8.2327  -8.2327   4.2713   4.2714   4.2714   4.2716
     5.7389   5.7389   5.7393   5.7393   7.0307   7.0309   7.0309   7.0310

          k =-0.5000 0.2504 0.0000 (  5166 PWs)   bands (ev):

   -64.8736 -64.8731 -64.8702 -64.8696 -31.6605 -31.6604 -31.6536 -31.6535
   -31.6507 -31.6504 -31.6291 -31.6289 -31.6278 -31.6278 -31.6192 -31.6190
    -8.5349  -8.5348  -7.9747  -7.9746   4.3929   4.3929   4.7229   4.7231
     5.0685   5.0685   6.5203   6.5205   6.5484   6.5485   7.0612   7.0612

          k =-0.5000 0.2504 0.2500 (  5150 PWs)   bands (ev):

   -64.8731 -64.8726 -64.8707 -64.8700 -31.6717 -31.6715 -31.6642 -31.6641
   -31.6364 -31.6362 -31.6252 -31.6251 -31.6218 -31.6217 -31.6212 -31.6210
    -8.4252  -8.4251  -8.0251  -8.0250   3.7982   3.7982   4.1731   4.1733
     5.8023   5.8023   6.7100   6.7103   6.8374   6.8376   6.9855   6.9855

          k =-0.5000 0.2504-0.5000 (  5148 PWs)   bands (ev):

   -64.8719 -64.8719 -64.8718 -64.8708 -31.6749 -31.6747 -31.6746 -31.6746
   -31.6264 -31.6262 -31.6262 -31.6260 -31.6197 -31.6195 -31.6193 -31.6193
    -8.1954  -8.1952  -8.1952  -8.1952   3.6181   3.6183   3.6183   3.6183
     6.4956   6.4956   6.4959   6.4959   7.0319   7.0320   7.0320   7.0322

          k =-0.5000-0.5007 0.0000 (  5216 PWs)   bands (ev):

   -64.8719 -64.8719 -64.8719 -64.8708 -31.6626 -31.6624 -31.6622 -31.6622
   -31.6413 -31.6411 -31.6411 -31.6408 -31.6205 -31.6203 -31.6202 -31.6202
    -8.2319  -8.2318  -8.2317  -8.2316   4.2658   4.2659   4.2661   4.2662
     5.7394   5.7394   5.7399   5.7399   7.0328   7.0329   7.0330   7.0332

          k =-0.5000-0.5007 0.2500 (  5148 PWs)   bands (ev):

   -64.8719 -64.8719 -64.8718 -64.8708 -31.6747 -31.6745 -31.6744 -31.6744
   -31.6270 -31.6268 -31.6268 -31.6266 -31.6193 -31.6191 -31.6189 -31.6189
    -8.1949  -8.1947  -8.1946  -8.1946   3.6163   3.6164   3.6165   3.6166
     6.4939   6.4939   6.4943   6.4943   7.0339   7.0340   7.0341   7.0343

          k =-0.5000-0.5007-0.5000 (  5232 PWs)   bands (ev):

   -64.8718 -64.8718 -64.8718 -64.8708 -31.6846 -31.6843 -31.6843 -31.6843
   -31.6208 -31.6206 -31.6205 -31.6205 -31.6201 -31.6198 -31.6198 -31.6197
    -8.1574  -8.1572  -8.1572  -8.1572   3.1952   3.1953   3.1953   3.1953
     7.0323   7.0324   7.0324   7.0326   7.0351   7.0351   7.0353   7.0353

     highest occupied level (ev):     7.6394

!    total energy              =    -608.39272781 Ry
     Harris-Foulkes estimate   =    -608.39272781 Ry
     estimated scf accuracy    <          2.8E-11 Ry

     The total energy is the sum of the following terms:

     one-electron contribution =    -304.11086359 Ry
     hartree contribution      =     168.25234640 Ry
     xc contribution           =     -97.83470383 Ry
     ewald contribution        =    -374.69950679 Ry

     convergence has been achieved in   5 iterations

     Forces acting on atoms (cartesian axes, Ry/au):

     atom    1 type  1   force =     0.00000000   -0.00001121    0.00000000
     atom    2 type  1   force =     0.00000000   -0.00001863    0.00000000
     atom    3 type  1   force =     0.00000000    0.00002602    0.00000000
     atom    4 type  1   force =     0.00000000   -0.00001852    0.00000000
     atom    5 type  2   force =     0.00000000   -0.00007261    0.00000000
     atom    6 type  2   force =     0.00000000    0.00008151    0.00000000
     atom    7 type  2   force =     0.00000000   -0.00007272    0.00000000
     atom    8 type  2   force =     0.00000000    0.00008618    0.00000000

     Total force =     0.000162     Total SCF correction =     0.000057
     SCF correction compared to forces is large: reduce conv_thr to get better values


     Computing stress (Cartesian axis) and pressure

          total   stress  (Ry/bohr**3)                   (kbar)     P=  -72.26
  -0.00049750   0.00000000   0.00000000        -73.18      0.00      0.00
   0.00000000  -0.00047858   0.00000000          0.00    -70.40      0.00
   0.00000000   0.00000000  -0.00049754          0.00      0.00    -73.19


     bfgs converged in   4 scf cycles and   3 bfgs steps
     (criteria: energy <  1.0E-05 Ry, force <  1.0E-04 Ry/Bohr)

     End of BFGS Geometry Optimization

     Final energy   =    -608.3927278075 Ry
Begin final coordinates

ATOMIC_POSITIONS (alat)
Mg       0.000000000   0.000335314   0.000000000
Mg       0.000000000   0.499661992   0.500000000
Mg       0.500000000   0.000347800   0.500000000
Mg       0.500000000   0.499661966   0.000000000
O        0.500000000   0.000380038   0.000000000
O        0.000000000   0.499617048   0.000000000
O        0.000000000   0.000379872   0.500000000
O        0.500000000   0.499615971   0.500000000
End final coordinates



     Writing output data file diamond.8.05624594775.70.4.save
 
     init_run     :      0.51s CPU      0.52s WALL (       1 calls)
     electrons    :     28.26s CPU     29.03s WALL (       4 calls)
     update_pot   :      0.36s CPU      0.36s WALL (       3 calls)
     forces       :      0.61s CPU      0.62s WALL (       4 calls)
     stress       :      1.41s CPU      1.42s WALL (       4 calls)

     Called by init_run:
     wfcinit      :      0.38s CPU      0.39s WALL (       1 calls)
     potinit      :      0.05s CPU      0.05s WALL (       1 calls)

     Called by electrons:
     c_bands      :     24.54s CPU     25.21s WALL (      25 calls)
     sum_band     :      3.57s CPU      3.65s WALL (      25 calls)
     v_of_rho     :      0.14s CPU      0.14s WALL (      26 calls)
     mix_rho      :      0.02s CPU      0.02s WALL (      25 calls)

     Called by c_bands:
     init_us_2    :      0.38s CPU      0.40s WALL (    1593 calls)
     cegterg      :     22.82s CPU     23.43s WALL (     675 calls)

     Called by sum_band:

     Called by *egterg:
     h_psi        :     17.10s CPU     17.47s WALL (    2165 calls)
     g_psi        :      0.13s CPU      0.13s WALL (    1463 calls)
     cdiaghg      :      3.03s CPU      3.03s WALL (    1976 calls)

     Called by h_psi:
     h_psi:pot    :     17.04s CPU     17.38s WALL (    2165 calls)
     h_psi:calbec :      0.97s CPU      0.97s WALL (    2165 calls)
     vloc_psi     :     15.26s CPU     15.59s WALL (    2165 calls)
     add_vuspsi   :      0.80s CPU      0.81s WALL (    2165 calls)

     General routines
     calbec       :      1.26s CPU      1.26s WALL (    2705 calls)
     fft          :      0.12s CPU      0.12s WALL (     391 calls)
     fftw         :     17.37s CPU     17.09s WALL (  133808 calls)
     davcio       :      0.00s CPU      0.00s WALL (      27 calls)
 
     Parallel routines
     fft_scatter  :      4.44s CPU      4.42s WALL (  134199 calls)
 
     PWSCF        :    31.50s CPU        32.39s WALL

 
   This run was terminated on:  14:55:11  22Apr2018            

=------------------------------------------------------------------------------=
   JOB DONE.
=------------------------------------------------------------------------------=
