
     Program PWSCF v.6.1 (svn rev. 13369) starts on 22Apr2018 at 15: 4:24 

     This program is part of the open-source Quantum ESPRESSO suite
     for quantum simulation of materials; please cite
         "P. Giannozzi et al., J. Phys.:Condens. Matter 21 395502 (2009);
          URL http://www.quantum-espresso.org", 
     in publications or presentations arising from this work. More details at
     http://www.quantum-espresso.org/quote

     Parallel version (MPI), running on     8 processors
     R & G space division:  proc/nbgrp/npool/nimage =       8
     Waiting for input...
     Reading input from standard input
Warning: card       &CELL ignored
Warning: card       CELL_DYNAMICS = 'BFGS' ignored
Warning: card       PRESS = 0.0D0 ignored
Warning: card       PRESS_CONV_THR = 0.01D0 ignored
Warning: card       / ignored

     Current dimensions of program PWSCF are:
     Max number of different atomic species (ntypx) = 10
     Max number of k-points (npk) =  40000
     Max angular momentum in pseudopotentials (lmaxx) =  3

     Subspace diagonalization in iterative solution of the eigenvalue problem:
     a serial algorithm will be used

 
     Parallelization info
     --------------------
     sticks:   dense  smooth     PW     G-vecs:    dense   smooth      PW
     Min         182     182     52                 5258     5258     826
     Max         183     183     53                 5261     5261     831
     Sum        1461    1461    421                42083    42083    6627
 


     bravais-lattice index     =            8
     lattice parameter (alat)  =       8.1252  a.u.
     unit-cell volume          =     531.1050 (a.u.)^3
     number of atoms/cell      =            8
     number of atomic types    =            2
     number of electrons       =        64.00
     number of Kohn-Sham states=           32
     kinetic-energy cutoff     =      70.0000  Ry
     charge density cutoff     =     280.0000  Ry
     convergence threshold     =      1.0E-08
     mixing beta               =       0.7000
     number of iterations used =            8  plain     mixing
     Exchange-correlation      = PBE ( 1  4  3  4 0 0)
     nstep                     =           50


     celldm(1)=   8.125198  celldm(2)=   0.990000  celldm(3)=   1.000100
     celldm(4)=   0.000000  celldm(5)=   0.000000  celldm(6)=   0.000000

     crystal axes: (cart. coord. in units of alat)
               a(1) = (   1.000000   0.000000   0.000000 )  
               a(2) = (   0.000000   0.990000   0.000000 )  
               a(3) = (   0.000000   0.000000   1.000100 )  

     reciprocal axes: (cart. coord. in units 2 pi/alat)
               b(1) = (  1.000000  0.000000  0.000000 )  
               b(2) = (  0.000000  1.010101  0.000000 )  
               b(3) = (  0.000000  0.000000  0.999900 )  


     PseudoPot. # 1 for Mg read from file:
     ../pseudo/Mg.pbe.UPF
     MD5 check sum: 4c04d8c6e0476e83eaecaf72fa8acc4d
     Pseudo is Norm-conserving, Zval = 10.0
     Generated using ONCVPSP code by D. R. Hamann
     Using radial grid of 1510 points,  4 beta functions with: 
                l(1) =   0
                l(2) =   0
                l(3) =   1
                l(4) =   1

     PseudoPot. # 2 for O  read from file:
     ../pseudo/O.pbe.UPF
     MD5 check sum: 3e3f909f7470e8921608ab6b1f57bbae
     Pseudo is Norm-conserving + core correction, Zval =  6.0
     Generated using ONCVPSP code by D. R. Hamann
     Using radial grid of  936 points,  5 beta functions with: 
                l(1) =   0
                l(2) =   0
                l(3) =   1
                l(4) =   1
                l(5) =   2

     atomic species   valence    mass     pseudopotential
        Mg            10.00    24.30500     Mg( 1.00)
        O              6.00    15.99940     O ( 1.00)

      2 Sym. Ops. (no inversion) found



   Cartesian axes

     site n.     atom                  positions (alat units)
         1           Mg  tau(   1) = (   0.0000000   0.0000000   0.0000000  )
         2           Mg  tau(   2) = (   0.0000000   0.5000000   0.5000000  )
         3           Mg  tau(   3) = (   0.5000000   0.0000000   0.5000000  )
         4           Mg  tau(   4) = (   0.5000000   0.5000000   0.0000000  )
         5           O   tau(   5) = (   0.5000000   0.0000000   0.0000000  )
         6           O   tau(   6) = (   0.0000000   0.5000000   0.0000000  )
         7           O   tau(   7) = (   0.0000000   0.0000000   0.5000000  )
         8           O   tau(   8) = (   0.5000000   0.5000000   0.5000000  )

     number of k points=    30
                       cart. coord. in units 2pi/alat
        k(    1) = (   0.0000000   0.0000000   0.0000000), wk =   0.0312500
        k(    2) = (   0.0000000   0.0000000   0.2499750), wk =   0.0625000
        k(    3) = (   0.0000000   0.0000000  -0.4999500), wk =   0.0312500
        k(    4) = (   0.0000000   0.2525253   0.0000000), wk =   0.0625000
        k(    5) = (   0.0000000   0.2525253   0.2499750), wk =   0.0625000
        k(    6) = (   0.0000000   0.2525253  -0.4999500), wk =   0.0625000
        k(    7) = (   0.0000000  -0.5050505   0.0000000), wk =   0.0312500
        k(    8) = (   0.0000000  -0.5050505   0.2499750), wk =   0.0625000
        k(    9) = (   0.0000000  -0.5050505  -0.4999500), wk =   0.0312500
        k(   10) = (   0.2500000   0.0000000   0.0000000), wk =   0.0625000
        k(   11) = (   0.2500000   0.0000000   0.2499750), wk =   0.1250000
        k(   12) = (   0.2500000   0.0000000  -0.4999500), wk =   0.0625000
        k(   13) = (   0.2500000   0.2525253   0.0000000), wk =   0.1250000
        k(   14) = (   0.2500000   0.2525253   0.2499750), wk =   0.1250000
        k(   15) = (   0.2500000   0.2525253  -0.4999500), wk =   0.1250000
        k(   16) = (   0.2500000  -0.5050505   0.0000000), wk =   0.0625000
        k(   17) = (   0.2500000  -0.5050505   0.2499750), wk =   0.1250000
        k(   18) = (   0.2500000  -0.5050505  -0.4999500), wk =   0.0625000
        k(   19) = (  -0.5000000   0.0000000   0.0000000), wk =   0.0312500
        k(   20) = (  -0.5000000   0.0000000   0.2499750), wk =   0.0625000
        k(   21) = (  -0.5000000   0.0000000  -0.4999500), wk =   0.0312500
        k(   22) = (  -0.5000000   0.2525253   0.0000000), wk =   0.0625000
        k(   23) = (  -0.5000000   0.2525253   0.2499750), wk =   0.0625000
        k(   24) = (  -0.5000000   0.2525253  -0.4999500), wk =   0.0625000
        k(   25) = (  -0.5000000  -0.5050505   0.0000000), wk =   0.0312500
        k(   26) = (  -0.5000000  -0.5050505   0.2499750), wk =   0.0625000
        k(   27) = (  -0.5000000  -0.5050505  -0.4999500), wk =   0.0312500
        k(   28) = (   0.0000000   0.2525253  -0.2499750), wk =   0.0625000
        k(   29) = (  -0.2500000   0.2525253  -0.2499750), wk =   0.1250000
        k(   30) = (   0.5000000   0.2525253  -0.2499750), wk =   0.0625000

     Dense  grid:    42083 G-vectors     FFT dimensions: (  45,  45,  45)

     Estimated max dynamical RAM per process >      15.61MB

     Estimated total allocated dynamical RAM >     124.91MB

     Check: negative/imaginary core charge=   -0.000007    0.000000

     Initial potential from superposition of free atoms

     starting charge   63.99678, renormalised to   64.00000
     Starting wfc are   36 randomized atomic wfcs

     total cpu time spent up to now is        0.7 secs

     per-process dynamical memory:    51.4 Mb

     Self-consistent Calculation

     iteration #  1     ecut=    70.00 Ry     beta=0.70
     Davidson diagonalization with overlap
     ethr =  1.00E-02,  avg # of iterations =  2.0

     total cpu time spent up to now is        1.9 secs

     total energy              =    -607.70723157 Ry
     Harris-Foulkes estimate   =    -608.84230196 Ry
     estimated scf accuracy    <       1.57544283 Ry

     iteration #  2     ecut=    70.00 Ry     beta=0.70
     Davidson diagonalization with overlap
     ethr =  2.46E-03,  avg # of iterations =  2.9

     total cpu time spent up to now is        3.3 secs

     total energy              =    -608.09070872 Ry
     Harris-Foulkes estimate   =    -608.81825648 Ry
     estimated scf accuracy    <       1.52064111 Ry

     iteration #  3     ecut=    70.00 Ry     beta=0.70
     Davidson diagonalization with overlap
     ethr =  2.38E-03,  avg # of iterations =  2.0

     total cpu time spent up to now is        4.6 secs

     total energy              =    -608.38934399 Ry
     Harris-Foulkes estimate   =    -608.39006492 Ry
     estimated scf accuracy    <       0.00700118 Ry

     iteration #  4     ecut=    70.00 Ry     beta=0.70
     Davidson diagonalization with overlap
     ethr =  1.09E-05,  avg # of iterations =  2.0

     total cpu time spent up to now is        5.8 secs

     total energy              =    -608.39091547 Ry
     Harris-Foulkes estimate   =    -608.39096608 Ry
     estimated scf accuracy    <       0.00012313 Ry

     iteration #  5     ecut=    70.00 Ry     beta=0.70
     Davidson diagonalization with overlap
     ethr =  1.92E-07,  avg # of iterations =  1.8

     total cpu time spent up to now is        6.9 secs

     total energy              =    -608.39092352 Ry
     Harris-Foulkes estimate   =    -608.39092214 Ry
     estimated scf accuracy    <       0.00001080 Ry

     iteration #  6     ecut=    70.00 Ry     beta=0.70
     Davidson diagonalization with overlap
     ethr =  1.69E-08,  avg # of iterations =  2.0

     total cpu time spent up to now is        8.3 secs

     total energy              =    -608.39092504 Ry
     Harris-Foulkes estimate   =    -608.39092546 Ry
     estimated scf accuracy    <       0.00000091 Ry

     iteration #  7     ecut=    70.00 Ry     beta=0.70
     Davidson diagonalization with overlap
     ethr =  1.43E-09,  avg # of iterations =  2.0

     total cpu time spent up to now is        9.5 secs

     total energy              =    -608.39092509 Ry
     Harris-Foulkes estimate   =    -608.39092516 Ry
     estimated scf accuracy    <       0.00000020 Ry

     iteration #  8     ecut=    70.00 Ry     beta=0.70
     Davidson diagonalization with overlap
     ethr =  3.05E-10,  avg # of iterations =  2.0

     total cpu time spent up to now is       10.6 secs

     total energy              =    -608.39092508 Ry
     Harris-Foulkes estimate   =    -608.39092511 Ry
     estimated scf accuracy    <       0.00000005 Ry

     iteration #  9     ecut=    70.00 Ry     beta=0.70
     Davidson diagonalization with overlap
     ethr =  8.12E-11,  avg # of iterations =  2.0

     total cpu time spent up to now is       12.0 secs

     End of self-consistent calculation

          k = 0.0000 0.0000 0.0000 (  5257 PWs)   bands (ev):

   -65.1398 -65.1313 -65.1311 -65.1304 -31.9304 -31.9303 -31.9248 -31.8983
   -31.8983 -31.8945 -31.8945 -31.8904 -31.8904 -31.8752 -31.8751 -31.8668
    -9.5059  -8.1177  -8.1174  -8.0919   3.5900   3.5903   3.6235   6.1440
     6.1446   6.1543   6.1551   6.2172   6.2173   7.4196   7.4431   7.4434

          k = 0.0000 0.0000 0.2500 (  5230 PWs)   bands (ev):

   -65.1385 -65.1324 -65.1311 -65.1305 -31.9252 -31.9230 -31.9195 -31.9024
   -31.8974 -31.8960 -31.8950 -31.8927 -31.8873 -31.8832 -31.8760 -31.8699
    -9.3068  -8.3239  -8.0880  -8.0698   3.8739   3.9057   3.9199   5.6382
     5.6545   5.9552   6.0030   6.3161   6.3721   6.4384   7.2045   7.2362

          k = 0.0000 0.0000-0.5000 (  5262 PWs)   bands (ev):

   -65.1356 -65.1352 -65.1311 -65.1306 -31.9142 -31.9139 -31.9081 -31.9079
   -31.9046 -31.9046 -31.8979 -31.8978 -31.8853 -31.8850 -31.8788 -31.8785
    -8.8194  -8.8189  -8.0530  -8.0529   4.6535   4.6544   4.6786   4.6795
     4.9282   4.9287   5.7882   5.7886   6.7331   6.7336   6.7780   6.7785

          k = 0.0000 0.2525 0.0000 (  5245 PWs)   bands (ev):

   -65.1384 -65.1321 -65.1313 -65.1307 -31.9258 -31.9257 -31.9156 -31.9007
   -31.9007 -31.8944 -31.8943 -31.8913 -31.8912 -31.8775 -31.8772 -31.8771
    -9.3015  -8.2988  -8.0890  -8.0888   3.8802   3.8805   3.9378   5.6941
     5.6942   5.9402   5.9408   6.3081   6.3087   6.4160   7.2227   7.2230

          k = 0.0000 0.2525 0.2500 (  5245 PWs)   bands (ev):

   -65.1374 -65.1323 -65.1319 -65.1310 -31.9231 -31.9201 -31.9178 -31.9070
   -31.8991 -31.8979 -31.8940 -31.8907 -31.8874 -31.8855 -31.8802 -31.8707
    -9.1205  -8.2601  -8.2415  -8.0917   3.9862   3.9951   4.1546   4.8889
     5.6220   5.8363   5.8851   6.2542   6.2726   6.3877   6.9591   7.2759

          k = 0.0000 0.2525-0.5000 (  5260 PWs)   bands (ev):

   -65.1350 -65.1345 -65.1318 -65.1312 -31.9164 -31.9162 -31.9112 -31.9111
   -31.9108 -31.9105 -31.8895 -31.8892 -31.8868 -31.8867 -31.8756 -31.8754
    -8.6859  -8.6855  -8.1392  -8.1391   4.2415   4.2418   4.5554   4.5559
     4.9030   4.9038   6.3565   6.3569   6.3863   6.3868   6.8665   6.8666

          k = 0.0000-0.5051 0.0000 (  5222 PWs)   bands (ev):

   -65.1356 -65.1349 -65.1313 -65.1307 -31.9138 -31.9137 -31.9116 -31.9115
   -31.8997 -31.8968 -31.8892 -31.8891 -31.8866 -31.8866 -31.8849 -31.8849
    -8.8284  -8.7752  -8.0600  -8.0599   4.6389   4.6391   4.7236   4.7239
     4.9012   4.9362   5.7391   5.7393   6.7105   6.7110   6.7628   6.7632

          k = 0.0000-0.5051 0.2500 (  5268 PWs)   bands (ev):

   -65.1350 -65.1343 -65.1319 -65.1313 -31.9189 -31.9174 -31.9107 -31.9096
   -31.9085 -31.9084 -31.8913 -31.8894 -31.8845 -31.8834 -31.8797 -31.8794
    -8.6975  -8.6506  -8.1502  -8.1411   4.2242   4.2572   4.5291   4.5673
     4.8833   4.9654   6.3126   6.3286   6.3434   6.3890   6.8687   6.8848

          k = 0.0000-0.5051-0.5000 (  5252 PWs)   bands (ev):

   -65.1335 -65.1334 -65.1332 -65.1323 -31.9189 -31.9188 -31.9178 -31.9177
   -31.9006 -31.9003 -31.8985 -31.8982 -31.8783 -31.8782 -31.8771 -31.8770
    -8.4037  -8.4034  -8.3742  -8.3739   4.0971   4.0973   4.1115   4.1117
     5.5400   5.5408   5.6137   5.6144   6.8404   6.8407   6.8649   6.8652

          k = 0.2500 0.0000 0.0000 (  5238 PWs)   bands (ev):

   -65.1385 -65.1324 -65.1312 -65.1305 -31.9258 -31.9230 -31.9195 -31.9024
   -31.8974 -31.8961 -31.8951 -31.8928 -31.8873 -31.8832 -31.8766 -31.8701
    -9.3068  -8.3236  -8.0882  -8.0698   3.8733   3.9058   3.9201   5.6386
     5.6550   5.9545   6.0029   6.3155   6.3721   6.4381   7.2043   7.2363

          k = 0.2500 0.0000 0.2500 (  5257 PWs)   bands (ev):

   -65.1374 -65.1323 -65.1320 -65.1308 -31.9236 -31.9235 -31.9149 -31.9103
   -31.8954 -31.8924 -31.8923 -31.8919 -31.8913 -31.8912 -31.8743 -31.8742
    -9.1252  -8.2606  -8.2604  -8.0795   3.9924   3.9924   4.1777   4.8875
     5.6523   5.8465   5.8470   6.3021   6.3022   6.3527   6.9353   7.2807

          k = 0.2500 0.0000-0.5000 (  5268 PWs)   bands (ev):

   -65.1350 -65.1345 -65.1318 -65.1312 -31.9194 -31.9191 -31.9123 -31.9122
   -31.9035 -31.9033 -31.8902 -31.8901 -31.8835 -31.8832 -31.8816 -31.8814
    -8.6888  -8.6883  -8.1430  -8.1428   4.2546   4.2549   4.5781   4.5785
     4.9223   4.9231   6.3269   6.3273   6.3622   6.3628   6.8837   6.8839

          k = 0.2500 0.2525 0.0000 (  5245 PWs)   bands (ev):

   -65.1374 -65.1323 -65.1319 -65.1310 -31.9230 -31.9201 -31.9178 -31.9069
   -31.8992 -31.8979 -31.8940 -31.8907 -31.8874 -31.8855 -31.8803 -31.8707
    -9.1205  -8.2600  -8.2415  -8.0919   3.9862   3.9950   4.1545   4.8889
     5.6217   5.8367   5.8850   6.2539   6.2721   6.3880   6.9593   7.2759

          k = 0.2500 0.2525 0.2500 (  5250 PWs)   bands (ev):

   -65.1365 -65.1323 -65.1322 -65.1315 -31.9257 -31.9256 -31.9235 -31.9074
   -31.8959 -31.8958 -31.8944 -31.8894 -31.8842 -31.8841 -31.8780 -31.8725
    -8.9589  -8.2274  -8.2273  -8.2141   3.8319   3.8357   3.8357   4.8899
     5.6461   5.6463   5.6618   6.4749   6.5042   6.5045   7.1298   7.1321

          k = 0.2500 0.2525-0.5000 (  5248 PWs)   bands (ev):

   -65.1345 -65.1341 -65.1322 -65.1316 -31.9277 -31.9275 -31.9210 -31.9208
   -31.8944 -31.8941 -31.8856 -31.8855 -31.8834 -31.8832 -31.8774 -31.8772
    -8.5806  -8.5802  -8.1904  -8.1903   3.6607   3.6608   4.0262   4.0266
     5.6358   5.6359   6.5315   6.5317   6.6516   6.6518   6.8050   6.8054

          k = 0.2500-0.5051 0.0000 (  5268 PWs)   bands (ev):

   -65.1350 -65.1343 -65.1319 -65.1313 -31.9189 -31.9173 -31.9108 -31.9096
   -31.9085 -31.9085 -31.8914 -31.8894 -31.8844 -31.8834 -31.8797 -31.8794
    -8.6975  -8.6506  -8.1502  -8.1410   4.2241   4.2570   4.5289   4.5670
     4.8831   4.9653   6.3128   6.3289   6.3436   6.3893   6.8685   6.8846

          k = 0.2500-0.5051 0.2500 (  5244 PWs)   bands (ev):

   -65.1345 -65.1339 -65.1323 -65.1317 -31.9278 -31.9278 -31.9203 -31.9200
   -31.8974 -31.8973 -31.8843 -31.8831 -31.8805 -31.8805 -31.8796 -31.8789
    -8.5909  -8.5510  -8.1938  -8.1937   3.6586   3.6586   3.9911   4.0303
     5.6375   5.6375   6.5250   6.5252   6.6563   6.6737   6.7693   6.8070

          k = 0.2500-0.5051-0.5000 (  5244 PWs)   bands (ev):

   -65.1335 -65.1334 -65.1332 -65.1323 -31.9308 -31.9306 -31.9305 -31.9303
   -31.8881 -31.8878 -31.8872 -31.8870 -31.8771 -31.8769 -31.8763 -31.8761
    -8.3654  -8.3652  -8.3443  -8.3441   3.4650   3.4652   3.4848   3.4850
     6.2926   6.2930   6.3355   6.3359   6.8453   6.8455   6.8624   6.8626

          k =-0.5000 0.0000 0.0000 (  5262 PWs)   bands (ev):

   -65.1356 -65.1352 -65.1311 -65.1306 -31.9142 -31.9139 -31.9081 -31.9079
   -31.9046 -31.9045 -31.8978 -31.8978 -31.8853 -31.8850 -31.8788 -31.8786
    -8.8190  -8.8189  -8.0531  -8.0530   4.6540   4.6540   4.6793   4.6793
     4.9282   4.9285   5.7877   5.7880   6.7329   6.7330   6.7783   6.7783

          k =-0.5000 0.0000 0.2500 (  5268 PWs)   bands (ev):

   -65.1350 -65.1345 -65.1318 -65.1312 -31.9194 -31.9192 -31.9123 -31.9122
   -31.9035 -31.9032 -31.8902 -31.8901 -31.8835 -31.8832 -31.8817 -31.8815
    -8.6885  -8.6884  -8.1430  -8.1429   4.2547   4.2548   4.5781   4.5784
     4.9229   4.9230   6.3267   6.3269   6.3622   6.3622   6.8839   6.8840

          k =-0.5000 0.0000-0.5000 (  5280 PWs)   bands (ev):

   -65.1334 -65.1334 -65.1334 -65.1324 -31.9204 -31.9201 -31.9201 -31.9201
   -31.8942 -31.8941 -31.8941 -31.8937 -31.8825 -31.8822 -31.8822 -31.8822
    -8.3957  -8.3956  -8.3954  -8.3953   4.1411   4.1412   4.1412   4.1414
     5.5731   5.5731   5.5739   5.5739   6.8380   6.8381   6.8383   6.8385

          k =-0.5000 0.2525 0.0000 (  5260 PWs)   bands (ev):

   -65.1350 -65.1345 -65.1318 -65.1312 -31.9164 -31.9162 -31.9111 -31.9111
   -31.9109 -31.9106 -31.8895 -31.8892 -31.8868 -31.8867 -31.8755 -31.8754
    -8.6856  -8.6855  -8.1393  -8.1391   4.2415   4.2416   4.5552   4.5555
     4.9034   4.9034   6.3565   6.3567   6.3866   6.3866   6.8664   6.8665

          k =-0.5000 0.2525 0.2500 (  5248 PWs)   bands (ev):

   -65.1345 -65.1341 -65.1322 -65.1316 -31.9277 -31.9276 -31.9210 -31.9208
   -31.8944 -31.8942 -31.8855 -31.8854 -31.8834 -31.8832 -31.8774 -31.8772
    -8.5803  -8.5802  -8.1904  -8.1903   3.6607   3.6608   4.0262   4.0263
     5.6358   5.6359   6.5314   6.5316   6.6518   6.6519   6.8050   6.8051

          k =-0.5000 0.2525-0.5000 (  5260 PWs)   bands (ev):

   -65.1334 -65.1333 -65.1333 -65.1323 -31.9310 -31.9308 -31.9308 -31.9307
   -31.8829 -31.8827 -31.8827 -31.8824 -31.8824 -31.8821 -31.8821 -31.8820
    -8.3583  -8.3582  -8.3580  -8.3580   3.4872   3.4873   3.4874   3.4875
     6.3255   6.3255   6.3260   6.3260   6.8392   6.8394   6.8394   6.8396

          k =-0.5000-0.5051 0.0000 (  5252 PWs)   bands (ev):

   -65.1335 -65.1334 -65.1332 -65.1323 -31.9189 -31.9188 -31.9177 -31.9176
   -31.9007 -31.9004 -31.8986 -31.8983 -31.8783 -31.8781 -31.8771 -31.8769
    -8.4035  -8.4034  -8.3741  -8.3740   4.0968   4.0969   4.1111   4.1113
     5.5404   5.5405   5.6141   5.6141   6.8406   6.8408   6.8651   6.8652

          k =-0.5000-0.5051 0.2500 (  5244 PWs)   bands (ev):

   -65.1335 -65.1334 -65.1332 -65.1323 -31.9308 -31.9306 -31.9305 -31.9303
   -31.8881 -31.8879 -31.8873 -31.8871 -31.8771 -31.8769 -31.8763 -31.8761
    -8.3653  -8.3652  -8.3442  -8.3441   3.4649   3.4650   3.4847   3.4848
     6.2927   6.2927   6.3356   6.3356   6.8455   6.8456   6.8626   6.8628

          k =-0.5000-0.5051-0.5000 (  5296 PWs)   bands (ev):

   -65.1334 -65.1333 -65.1333 -65.1323 -31.9392 -31.9390 -31.9390 -31.9389
   -31.8824 -31.8821 -31.8821 -31.8821 -31.8765 -31.8763 -31.8763 -31.8761
    -8.3204  -8.3203  -8.3202  -8.3202   3.0656   3.0658   3.0658   3.0658
     6.8403   6.8405   6.8405   6.8407   6.8592   6.8593   6.8594   6.8594

          k = 0.0000 0.2525-0.2500 (  5245 PWs)   bands (ev):

   -65.1374 -65.1323 -65.1319 -65.1310 -31.9231 -31.9201 -31.9178 -31.9070
   -31.8991 -31.8979 -31.8940 -31.8907 -31.8874 -31.8855 -31.8802 -31.8707
    -9.1205  -8.2601  -8.2415  -8.0917   3.9862   3.9951   4.1546   4.8889
     5.6220   5.8363   5.8851   6.2542   6.2726   6.3877   6.9591   7.2759

          k =-0.2500 0.2525-0.2500 (  5250 PWs)   bands (ev):

   -65.1365 -65.1323 -65.1322 -65.1315 -31.9257 -31.9256 -31.9235 -31.9074
   -31.8959 -31.8958 -31.8944 -31.8894 -31.8842 -31.8841 -31.8780 -31.8725
    -8.9589  -8.2274  -8.2273  -8.2141   3.8319   3.8357   3.8357   4.8899
     5.6461   5.6463   5.6618   6.4749   6.5042   6.5045   7.1298   7.1321

          k = 0.5000 0.2525-0.2500 (  5248 PWs)   bands (ev):

   -65.1345 -65.1341 -65.1322 -65.1316 -31.9277 -31.9275 -31.9210 -31.9208
   -31.8944 -31.8942 -31.8855 -31.8854 -31.8834 -31.8832 -31.8774 -31.8772
    -8.5803  -8.5802  -8.1904  -8.1903   3.6607   3.6608   4.0262   4.0263
     5.6358   5.6359   6.5314   6.5316   6.6518   6.6519   6.8050   6.8051

     highest occupied level (ev):     7.4434

!    total energy              =    -608.39092509 Ry
     Harris-Foulkes estimate   =    -608.39092509 Ry
     estimated scf accuracy    <          3.4E-09 Ry

     The total energy is the sum of the following terms:

     one-electron contribution =    -307.50722496 Ry
     hartree contribution      =     169.40522623 Ry
     xc contribution           =     -97.76698771 Ry
     ewald contribution        =    -372.52193865 Ry

     convergence has been achieved in   9 iterations

     Forces acting on atoms (cartesian axes, Ry/au):

     atom    1 type  1   force =     0.00000000    0.00547303   -0.00004774
     atom    2 type  1   force =     0.00000000   -0.00539622    0.00004504
     atom    3 type  1   force =     0.00000000    0.00547749    0.00004817
     atom    4 type  1   force =     0.00000000   -0.00539687   -0.00004852
     atom    5 type  2   force =     0.00000000    0.00624759   -0.00005606
     atom    6 type  2   force =     0.00000000   -0.00631445   -0.00005592
     atom    7 type  2   force =     0.00000000    0.00624601    0.00005724
     atom    8 type  2   force =     0.00000000   -0.00633658    0.00005779

     Total force =     0.016622     Total SCF correction =     0.000061


     Computing stress (Cartesian axis) and pressure

          total   stress  (Ry/bohr**3)                   (kbar)     P=  -94.16
  -0.00067684   0.00000000   0.00000000        -99.57      0.00      0.00
   0.00000000  -0.00056569   0.00000000          0.00    -83.22      0.00
   0.00000000   0.00000000  -0.00067781          0.00      0.00    -99.71


     BFGS Geometry Optimization

     number of scf cycles    =   1
     number of bfgs steps    =   0

     energy   new            =    -608.3909250880 Ry

     new trust radius        =       0.0063368398 bohr
     new conv_thr            =       0.0000000100 Ry


ATOMIC_POSITIONS (alat)
Mg       0.000000000   0.000673587  -0.000005876
Mg       0.000000000   0.499335866   0.500005543
Mg       0.500000000   0.000674136   0.500005929
Mg       0.500000000   0.499335786  -0.000005971
O        0.500000000   0.000768915  -0.000006899
O        0.000000000   0.499222856  -0.000006883
O        0.000000000   0.000768721   0.500007045
O        0.500000000   0.499220133   0.500007113



     Writing output data file diamond.8.1251975.70.4.save
     NEW-OLD atomic charge density approx. for the potential

     Check: negative/imaginary core charge=   -0.000007    0.000000

     total cpu time spent up to now is       12.8 secs

     per-process dynamical memory:    52.1 Mb

     Self-consistent Calculation

     iteration #  1     ecut=    70.00 Ry     beta=0.70
     Davidson diagonalization with overlap
     ethr =  1.00E-06,  avg # of iterations =  3.1

     Threshold (ethr) on eigenvalues was too large:
     Diagonalizing with lowered threshold

     Davidson diagonalization with overlap
     ethr =  7.71E-08,  avg # of iterations =  1.1

     total cpu time spent up to now is       15.8 secs

     total energy              =    -608.39114295 Ry
     Harris-Foulkes estimate   =    -608.39117918 Ry
     estimated scf accuracy    <       0.00004953 Ry

     iteration #  2     ecut=    70.00 Ry     beta=0.70
     Davidson diagonalization with overlap
     ethr =  7.74E-08,  avg # of iterations =  2.2

     total cpu time spent up to now is       17.0 secs

     total energy              =    -608.39115791 Ry
     Harris-Foulkes estimate   =    -608.39116291 Ry
     estimated scf accuracy    <       0.00000831 Ry

     iteration #  3     ecut=    70.00 Ry     beta=0.70
     Davidson diagonalization with overlap
     ethr =  1.30E-08,  avg # of iterations =  2.0

     total cpu time spent up to now is       18.2 secs

     total energy              =    -608.39115971 Ry
     Harris-Foulkes estimate   =    -608.39115969 Ry
     estimated scf accuracy    <       0.00000006 Ry

     iteration #  4     ecut=    70.00 Ry     beta=0.70
     Davidson diagonalization with overlap
     ethr =  9.90E-11,  avg # of iterations =  2.8

     total cpu time spent up to now is       19.7 secs

     total energy              =    -608.39115973 Ry
     Harris-Foulkes estimate   =    -608.39115973 Ry
     estimated scf accuracy    <       0.00000002 Ry

     iteration #  5     ecut=    70.00 Ry     beta=0.70
     Davidson diagonalization with overlap
     ethr =  2.35E-11,  avg # of iterations =  2.0

     total cpu time spent up to now is       21.0 secs

     End of self-consistent calculation

          k = 0.0000 0.0000 0.0000 (  5257 PWs)   bands (ev):

   -65.1404 -65.1319 -65.1317 -65.1310 -31.9309 -31.9308 -31.9252 -31.8988
   -31.8988 -31.8951 -31.8950 -31.8909 -31.8909 -31.8757 -31.8757 -31.8673
    -9.5054  -8.1173  -8.1170  -8.0917   3.5905   3.5908   3.6233   6.1446
     6.1452   6.1545   6.1552   6.2172   6.2173   7.4203   7.4433   7.4435

          k = 0.0000 0.0000 0.2500 (  5230 PWs)   bands (ev):

   -65.1391 -65.1330 -65.1318 -65.1311 -31.9257 -31.9235 -31.9200 -31.9029
   -31.8979 -31.8965 -31.8954 -31.8933 -31.8878 -31.8837 -31.8765 -31.8705
    -9.3063  -8.3234  -8.0877  -8.0696   3.8745   3.9055   3.9204   5.6387
     5.6545   5.9559   6.0038   6.3155   6.3721   6.4385   7.2048   7.2363

          k = 0.0000 0.0000-0.5000 (  5262 PWs)   bands (ev):

   -65.1362 -65.1358 -65.1317 -65.1312 -31.9147 -31.9144 -31.9084 -31.9082
   -31.9054 -31.9053 -31.8983 -31.8983 -31.8858 -31.8855 -31.8793 -31.8791
    -8.8189  -8.8185  -8.0527  -8.0526   4.6542   4.6548   4.6789   4.6795
     4.9283   4.9287   5.7890   5.7893   6.7329   6.7333   6.7781   6.7785

          k = 0.0000 0.2525 0.0000 (  5245 PWs)   bands (ev):

   -65.1390 -65.1327 -65.1319 -65.1313 -31.9263 -31.9262 -31.9160 -31.9013
   -31.9012 -31.8949 -31.8948 -31.8917 -31.8917 -31.8780 -31.8778 -31.8777
    -9.3009  -8.2988  -8.0886  -8.0884   3.8809   3.8812   3.9377   5.6939
     5.6940   5.9404   5.9409   6.3088   6.3094   6.4164   7.2227   7.2230

          k = 0.0000 0.2525 0.2500 (  5245 PWs)   bands (ev):

   -65.1380 -65.1329 -65.1325 -65.1316 -31.9236 -31.9206 -31.9182 -31.9075
   -31.8996 -31.8984 -31.8944 -31.8914 -31.8879 -31.8860 -31.8808 -31.8713
    -9.1199  -8.2597  -8.2414  -8.0914   3.9867   3.9950   4.1554   4.8889
     5.6224   5.8370   5.8849   6.2551   6.2728   6.3869   6.9591   7.2763

          k = 0.0000 0.2525-0.5000 (  5260 PWs)   bands (ev):

   -65.1356 -65.1351 -65.1324 -65.1318 -31.9168 -31.9167 -31.9117 -31.9116
   -31.9113 -31.9110 -31.8900 -31.8897 -31.8874 -31.8873 -31.8761 -31.8759
    -8.6853  -8.6850  -8.1390  -8.1389   4.2416   4.2419   4.5557   4.5561
     4.9038   4.9044   6.3570   6.3574   6.3862   6.3866   6.8664   6.8665

          k = 0.0000-0.5051 0.0000 (  5222 PWs)   bands (ev):

   -65.1362 -65.1355 -65.1319 -65.1313 -31.9140 -31.9140 -31.9124 -31.9123
   -31.8998 -31.8977 -31.8897 -31.8896 -31.8869 -31.8869 -31.8857 -31.8856
    -8.8201  -8.7828  -8.0596  -8.0595   4.6517   4.6520   4.7113   4.7115
     4.9067   4.9309   5.7392   5.7394   6.7187   6.7192   6.7552   6.7557

          k = 0.0000-0.5051 0.2500 (  5268 PWs)   bands (ev):

   -65.1355 -65.1350 -65.1325 -65.1319 -31.9192 -31.9181 -31.9109 -31.9099
   -31.9093 -31.9091 -31.8916 -31.8902 -31.8848 -31.8841 -31.8802 -31.8800
    -8.6901  -8.6573  -8.1484  -8.1420   4.2293   4.2526   4.5351   4.5615
     4.8958   4.9534   6.3173   6.3380   6.3389   6.3802   6.8714   6.8828

          k = 0.0000-0.5051-0.5000 (  5252 PWs)   bands (ev):

   -65.1341 -65.1340 -65.1338 -65.1330 -31.9192 -31.9191 -31.9184 -31.9183
   -31.9009 -31.9006 -31.8993 -31.8990 -31.8787 -31.8786 -31.8778 -31.8777
    -8.3988  -8.3986  -8.3782  -8.3780   4.0996   4.0997   4.1093   4.1094
     5.5514   5.5520   5.6031   5.6036   6.8444   6.8447   6.8614   6.8617

          k = 0.2500 0.0000 0.0000 (  5238 PWs)   bands (ev):

   -65.1391 -65.1330 -65.1318 -65.1311 -31.9263 -31.9235 -31.9200 -31.9029
   -31.8979 -31.8966 -31.8956 -31.8934 -31.8878 -31.8838 -31.8772 -31.8706
    -9.3063  -8.3232  -8.0878  -8.0696   3.8739   3.9055   3.9206   5.6391
     5.6550   5.9553   6.0037   6.3149   6.3721   6.4383   7.2046   7.2364

          k = 0.2500 0.0000 0.2500 (  5257 PWs)   bands (ev):

   -65.1380 -65.1329 -65.1326 -65.1314 -31.9241 -31.9240 -31.9153 -31.9108
   -31.8960 -31.8928 -31.8927 -31.8925 -31.8919 -31.8918 -31.8749 -31.8747
    -9.1247  -8.2602  -8.2600  -8.0792   3.9928   3.9929   4.1775   4.8881
     5.6524   5.8467   5.8472   6.3020   6.3022   6.3532   6.9355   7.2809

          k = 0.2500 0.0000-0.5000 (  5268 PWs)   bands (ev):

   -65.1356 -65.1351 -65.1324 -65.1318 -31.9198 -31.9196 -31.9127 -31.9126
   -31.9041 -31.9039 -31.8907 -31.8906 -31.8840 -31.8838 -31.8822 -31.8820
    -8.6883  -8.6879  -8.1426  -8.1425   4.2551   4.2554   4.5788   4.5791
     4.9219   4.9225   6.3308   6.3312   6.3588   6.3592   6.8840   6.8841

          k = 0.2500 0.2525 0.0000 (  5245 PWs)   bands (ev):

   -65.1380 -65.1329 -65.1325 -65.1316 -31.9235 -31.9206 -31.9182 -31.9074
   -31.8997 -31.8985 -31.8944 -31.8913 -31.8878 -31.8860 -31.8808 -31.8712
    -9.1199  -8.2595  -8.2414  -8.0915   3.9867   3.9950   4.1552   4.8889
     5.6222   5.8374   5.8848   6.2548   6.2723   6.3872   6.9593   7.2762

          k = 0.2500 0.2525 0.2500 (  5250 PWs)   bands (ev):

   -65.1371 -65.1329 -65.1328 -65.1321 -31.9262 -31.9261 -31.9240 -31.9078
   -31.8965 -31.8964 -31.8950 -31.8899 -31.8847 -31.8846 -31.8786 -31.8730
    -8.9583  -8.2270  -8.2269  -8.2139   3.8320   3.8360   3.8361   4.8902
     5.6464   5.6466   5.6618   6.4755   6.5041   6.5044   7.1299   7.1324

          k = 0.2500 0.2525-0.5000 (  5248 PWs)   bands (ev):

   -65.1351 -65.1347 -65.1328 -65.1322 -31.9282 -31.9280 -31.9214 -31.9213
   -31.8949 -31.8947 -31.8861 -31.8860 -31.8840 -31.8838 -31.8780 -31.8778
    -8.5800  -8.5797  -8.1901  -8.1900   3.6610   3.6611   4.0264   4.0267
     5.6361   5.6361   6.5322   6.5324   6.6516   6.6518   6.8050   6.8052

          k = 0.2500-0.5051 0.0000 (  5268 PWs)   bands (ev):

   -65.1355 -65.1350 -65.1325 -65.1319 -31.9192 -31.9180 -31.9110 -31.9099
   -31.9093 -31.9091 -31.8916 -31.8902 -31.8848 -31.8841 -31.8802 -31.8800
    -8.6901  -8.6573  -8.1484  -8.1420   4.2292   4.2524   4.5349   4.5612
     4.8956   4.9533   6.3176   6.3383   6.3391   6.3806   6.8712   6.8826

          k = 0.2500-0.5051 0.2500 (  5244 PWs)   bands (ev):

   -65.1351 -65.1346 -65.1329 -65.1323 -31.9283 -31.9283 -31.9208 -31.9206
   -31.8979 -31.8978 -31.8847 -31.8838 -31.8810 -31.8810 -31.8800 -31.8795
    -8.5845  -8.5566  -8.1934  -8.1933   3.6588   3.6589   3.9973   4.0244
     5.6380   5.6380   6.5249   6.5251   6.6591   6.6715   6.7754   6.8017

          k = 0.2500-0.5051-0.5000 (  5244 PWs)   bands (ev):

   -65.1341 -65.1339 -65.1339 -65.1330 -31.9312 -31.9310 -31.9310 -31.9309
   -31.8885 -31.8883 -31.8879 -31.8877 -31.8775 -31.8774 -31.8769 -31.8768
    -8.3618  -8.3616  -8.3471  -8.3469   3.4682   3.4684   3.4819   3.4820
     6.2994   6.2997   6.3294   6.3297   6.8482   6.8484   6.8601   6.8603

          k =-0.5000 0.0000 0.0000 (  5262 PWs)   bands (ev):

   -65.1362 -65.1358 -65.1317 -65.1312 -31.9147 -31.9145 -31.9084 -31.9082
   -31.9053 -31.9053 -31.8983 -31.8983 -31.8859 -31.8856 -31.8793 -31.8791
    -8.8185  -8.8185  -8.0528  -8.0527   4.6545   4.6545   4.6794   4.6794
     4.9282   4.9285   5.7885   5.7888   6.7327   6.7327   6.7784   6.7784

          k =-0.5000 0.0000 0.2500 (  5268 PWs)   bands (ev):

   -65.1356 -65.1351 -65.1324 -65.1318 -31.9199 -31.9197 -31.9127 -31.9126
   -31.9041 -31.9038 -31.8907 -31.8906 -31.8840 -31.8838 -31.8822 -31.8820
    -8.6880  -8.6880  -8.1427  -8.1426   4.2552   4.2553   4.5788   4.5790
     4.9224   4.9224   6.3306   6.3308   6.3587   6.3588   6.8841   6.8842

          k =-0.5000 0.0000-0.5000 (  5280 PWs)   bands (ev):

   -65.1340 -65.1340 -65.1339 -65.1330 -31.9208 -31.9206 -31.9206 -31.9205
   -31.8948 -31.8946 -31.8946 -31.8943 -31.8830 -31.8828 -31.8828 -31.8827
    -8.3952  -8.3952  -8.3950  -8.3949   4.1415   4.1417   4.1417   4.1418
     5.5729   5.5730   5.5735   5.5735   6.8384   6.8386   6.8386   6.8388

          k =-0.5000 0.2525 0.0000 (  5260 PWs)   bands (ev):

   -65.1356 -65.1351 -65.1324 -65.1318 -31.9168 -31.9167 -31.9116 -31.9116
   -31.9114 -31.9111 -31.8901 -31.8898 -31.8873 -31.8872 -31.8761 -31.8759
    -8.6850  -8.6850  -8.1390  -8.1389   4.2415   4.2416   4.5555   4.5557
     4.9041   4.9041   6.3570   6.3573   6.3865   6.3865   6.8663   6.8664

          k =-0.5000 0.2525 0.2500 (  5248 PWs)   bands (ev):

   -65.1351 -65.1347 -65.1328 -65.1322 -31.9282 -31.9280 -31.9214 -31.9213
   -31.8949 -31.8947 -31.8860 -31.8859 -31.8840 -31.8838 -31.8780 -31.8778
    -8.5798  -8.5797  -8.1901  -8.1900   3.6610   3.6610   4.0263   4.0265
     5.6361   5.6361   6.5321   6.5324   6.6518   6.6519   6.8050   6.8050

          k =-0.5000 0.2525-0.5000 (  5260 PWs)   bands (ev):

   -65.1340 -65.1339 -65.1339 -65.1330 -31.9315 -31.9313 -31.9313 -31.9312
   -31.8834 -31.8832 -31.8832 -31.8830 -31.8829 -31.8826 -31.8826 -31.8826
    -8.3579  -8.3578  -8.3577  -8.3576   3.4874   3.4875   3.4876   3.4876
     6.3256   6.3257   6.3260   6.3260   6.8396   6.8398   6.8398   6.8400

          k =-0.5000-0.5051 0.0000 (  5252 PWs)   bands (ev):

   -65.1341 -65.1340 -65.1338 -65.1330 -31.9192 -31.9191 -31.9184 -31.9183
   -31.9009 -31.9006 -31.8994 -31.8991 -31.8787 -31.8785 -31.8778 -31.8776
    -8.3987  -8.3986  -8.3781  -8.3780   4.0992   4.0994   4.1089   4.1091
     5.5517   5.5517   5.6034   5.6034   6.8446   6.8448   6.8616   6.8618

          k =-0.5000-0.5051 0.2500 (  5244 PWs)   bands (ev):

   -65.1341 -65.1339 -65.1339 -65.1330 -31.9312 -31.9310 -31.9310 -31.9309
   -31.8885 -31.8883 -31.8879 -31.8877 -31.8775 -31.8773 -31.8769 -31.8767
    -8.3617  -8.3617  -8.3470  -8.3469   3.4681   3.4682   3.4818   3.4819
     6.2994   6.2994   6.3294   6.3295   6.8483   6.8485   6.8602   6.8604

          k =-0.5000-0.5051-0.5000 (  5296 PWs)   bands (ev):

   -65.1340 -65.1339 -65.1339 -65.1330 -31.9397 -31.9395 -31.9395 -31.9394
   -31.8829 -31.8826 -31.8826 -31.8826 -31.8771 -31.8769 -31.8769 -31.8766
    -8.3200  -8.3199  -8.3199  -8.3198   3.0657   3.0659   3.0659   3.0659
     6.8407   6.8409   6.8409   6.8411   6.8595   6.8596   6.8597   6.8597

          k = 0.0000 0.2525-0.2500 (  5245 PWs)   bands (ev):

   -65.1380 -65.1329 -65.1325 -65.1316 -31.9236 -31.9206 -31.9182 -31.9075
   -31.8996 -31.8984 -31.8944 -31.8914 -31.8879 -31.8860 -31.8808 -31.8713
    -9.1199  -8.2597  -8.2414  -8.0914   3.9867   3.9950   4.1554   4.8889
     5.6224   5.8370   5.8849   6.2551   6.2728   6.3869   6.9591   7.2763

          k =-0.2500 0.2525-0.2500 (  5250 PWs)   bands (ev):

   -65.1371 -65.1329 -65.1328 -65.1321 -31.9262 -31.9261 -31.9240 -31.9078
   -31.8965 -31.8964 -31.8950 -31.8899 -31.8847 -31.8846 -31.8786 -31.8730
    -8.9583  -8.2270  -8.2269  -8.2139   3.8320   3.8360   3.8361   4.8902
     5.6464   5.6466   5.6618   6.4755   6.5041   6.5044   7.1299   7.1324

          k = 0.5000 0.2525-0.2500 (  5248 PWs)   bands (ev):

   -65.1351 -65.1347 -65.1328 -65.1322 -31.9282 -31.9280 -31.9214 -31.9213
   -31.8949 -31.8947 -31.8860 -31.8859 -31.8840 -31.8838 -31.8780 -31.8778
    -8.5798  -8.5797  -8.1901  -8.1900   3.6610   3.6610   4.0263   4.0265
     5.6361   5.6361   6.5321   6.5324   6.6518   6.6519   6.8050   6.8050

     highest occupied level (ev):     7.4435

!    total energy              =    -608.39115973 Ry
     Harris-Foulkes estimate   =    -608.39115973 Ry
     estimated scf accuracy    <          8.4E-10 Ry

     The total energy is the sum of the following terms:

     one-electron contribution =    -307.46568225 Ry
     hartree contribution      =     169.38413502 Ry
     xc contribution           =     -97.76649031 Ry
     ewald contribution        =    -372.54312219 Ry

     convergence has been achieved in   5 iterations

     Forces acting on atoms (cartesian axes, Ry/au):

     atom    1 type  1   force =     0.00000000    0.00388106   -0.00003557
     atom    2 type  1   force =     0.00000000   -0.00390889    0.00003464
     atom    3 type  1   force =     0.00000000    0.00399502    0.00003563
     atom    4 type  1   force =     0.00000000   -0.00390865   -0.00003635
     atom    5 type  2   force =     0.00000000    0.00428101   -0.00003969
     atom    6 type  2   force =     0.00000000   -0.00430271   -0.00003982
     atom    7 type  2   force =     0.00000000    0.00428145    0.00004053
     atom    8 type  2   force =     0.00000000   -0.00431828    0.00004063

     Total force =     0.011637     Total SCF correction =     0.000262


     Computing stress (Cartesian axis) and pressure

          total   stress  (Ry/bohr**3)                   (kbar)     P=  -94.35
  -0.00067671   0.00000000   0.00000000        -99.55      0.00      0.00
   0.00000000  -0.00056983   0.00000000          0.00    -83.83      0.00
   0.00000000   0.00000000  -0.00067768          0.00      0.00    -99.69


     number of scf cycles    =   2
     number of bfgs steps    =   1

     energy   old            =    -608.3909250880 Ry
     energy   new            =    -608.3911597285 Ry

     CASE: energy  _new < energy  _old

     new trust radius        =       0.0069705238 bohr
     new conv_thr            =       0.0000000023 Ry


ATOMIC_POSITIONS (alat)
Mg       0.000000000   0.001444524  -0.000012941
Mg       0.000000000   0.498559429   0.500012423
Mg       0.500000000   0.001467671   0.500013006
Mg       0.500000000   0.498559398  -0.000013192
O        0.500000000   0.001619354  -0.000014782
O        0.000000000   0.498368098  -0.000014793
O        0.000000000   0.001619246   0.500015095
O        0.500000000   0.498362281   0.500015184



     Writing output data file diamond.8.1251975.70.4.save
     NEW-OLD atomic charge density approx. for the potential

     Check: negative/imaginary core charge=   -0.000007    0.000000

     total cpu time spent up to now is       21.7 secs

     per-process dynamical memory:    52.1 Mb

     Self-consistent Calculation

     iteration #  1     ecut=    70.00 Ry     beta=0.70
     Davidson diagonalization with overlap
     ethr =  1.00E-06,  avg # of iterations =  3.2

     Threshold (ethr) on eigenvalues was too large:
     Diagonalizing with lowered threshold

     Davidson diagonalization with overlap
     ethr =  9.65E-08,  avg # of iterations =  1.0

     total cpu time spent up to now is       24.7 secs

     total energy              =    -608.39130500 Ry
     Harris-Foulkes estimate   =    -608.39134984 Ry
     estimated scf accuracy    <       0.00006134 Ry

     iteration #  2     ecut=    70.00 Ry     beta=0.70
     Davidson diagonalization with overlap
     ethr =  9.58E-08,  avg # of iterations =  2.2

     total cpu time spent up to now is       26.0 secs

     total energy              =    -608.39132356 Ry
     Harris-Foulkes estimate   =    -608.39132973 Ry
     estimated scf accuracy    <       0.00001026 Ry

     iteration #  3     ecut=    70.00 Ry     beta=0.70
     Davidson diagonalization with overlap
     ethr =  1.60E-08,  avg # of iterations =  2.0

     total cpu time spent up to now is       27.2 secs

     total energy              =    -608.39132578 Ry
     Harris-Foulkes estimate   =    -608.39132574 Ry
     estimated scf accuracy    <       0.00000007 Ry

     iteration #  4     ecut=    70.00 Ry     beta=0.70
     Davidson diagonalization with overlap
     ethr =  1.15E-10,  avg # of iterations =  2.5

     total cpu time spent up to now is       28.6 secs

     total energy              =    -608.39132580 Ry
     Harris-Foulkes estimate   =    -608.39132580 Ry
     estimated scf accuracy    <          7.8E-09 Ry

     iteration #  5     ecut=    70.00 Ry     beta=0.70
     Davidson diagonalization with overlap
     ethr =  1.22E-11,  avg # of iterations =  2.0

     total cpu time spent up to now is       29.8 secs

     End of self-consistent calculation

          k = 0.0000 0.0000 0.0000 (  5257 PWs)   bands (ev):

   -65.1405 -65.1320 -65.1319 -65.1312 -31.9310 -31.9310 -31.9253 -31.8990
   -31.8989 -31.8953 -31.8952 -31.8910 -31.8910 -31.8759 -31.8758 -31.8674
    -9.5051  -8.1171  -8.1168  -8.0916   3.5909   3.5912   3.6230   6.1449
     6.1455   6.1545   6.1552   6.2172   6.2172   7.4208   7.4433   7.4435

          k = 0.0000 0.0000 0.2500 (  5230 PWs)   bands (ev):

   -65.1393 -65.1331 -65.1319 -65.1313 -31.9259 -31.9237 -31.9201 -31.9030
   -31.8981 -31.8966 -31.8956 -31.8935 -31.8879 -31.8839 -31.8767 -31.8706
    -9.3060  -8.3232  -8.0875  -8.0695   3.8748   3.9053   3.9207   5.6391
     5.6544   5.9563   6.0043   6.3151   6.3721   6.4386   7.2049   7.2363

          k = 0.0000 0.0000-0.5000 (  5262 PWs)   bands (ev):

   -65.1364 -65.1360 -65.1319 -65.1314 -31.9148 -31.9146 -31.9084 -31.9081
   -31.9057 -31.9057 -31.8985 -31.8985 -31.8860 -31.8857 -31.8795 -31.8792
    -8.8185  -8.8183  -8.0526  -8.0525   4.6546   4.6550   4.6790   4.6794
     4.9283   4.9286   5.7894   5.7898   6.7327   6.7330   6.7782   6.7784

          k = 0.0000 0.2525 0.0000 (  5245 PWs)   bands (ev):

   -65.1392 -65.1329 -65.1320 -65.1315 -31.9264 -31.9264 -31.9161 -31.9015
   -31.9014 -31.8950 -31.8949 -31.8918 -31.8918 -31.8782 -31.8779 -31.8779
    -9.3005  -8.2988  -8.0884  -8.0882   3.8813   3.8816   3.9375   5.6937
     5.6938   5.9404   5.9409   6.3092   6.3098   6.4166   7.2226   7.2229

          k = 0.0000 0.2525 0.2500 (  5245 PWs)   bands (ev):

   -65.1381 -65.1331 -65.1327 -65.1318 -31.9237 -31.9207 -31.9183 -31.9076
   -31.8998 -31.8986 -31.8945 -31.8916 -31.8880 -31.8862 -31.8809 -31.8714
    -9.1195  -8.2594  -8.2414  -8.0912   3.9870   3.9949   4.1558   4.8888
     5.6227   5.8374   5.8847   6.2557   6.2728   6.3863   6.9590   7.2765

          k = 0.0000 0.2525-0.5000 (  5260 PWs)   bands (ev):

   -65.1357 -65.1353 -65.1326 -65.1320 -31.9169 -31.9168 -31.9118 -31.9118
   -31.9115 -31.9112 -31.8902 -31.8899 -31.8875 -31.8874 -31.8762 -31.8761
    -8.6849  -8.6847  -8.1389  -8.1388   4.2416   4.2418   4.5559   4.5562
     4.9043   4.9047   6.3574   6.3576   6.3862   6.3864   6.8663   6.8664

          k = 0.0000-0.5051 0.0000 (  5222 PWs)   bands (ev):

   -65.1363 -65.1358 -65.1320 -65.1315 -31.9138 -31.9138 -31.9129 -31.9129
   -31.8995 -31.8983 -31.8898 -31.8897 -31.8868 -31.8868 -31.8861 -31.8861
    -8.8110  -8.7915  -8.0594  -8.0593   4.6660   4.6662   4.6973   4.6975
     4.9126   4.9250   5.7392   5.7395   6.7277   6.7282   6.7466   6.7471

          k = 0.0000-0.5051 0.2500 (  5268 PWs)   bands (ev):

   -65.1356 -65.1352 -65.1326 -65.1321 -31.9191 -31.9185 -31.9107 -31.9099
   -31.9098 -31.9094 -31.8915 -31.8906 -31.8848 -31.8844 -31.8804 -31.8802
    -8.6821  -8.6650  -8.1467  -8.1433   4.2349   4.2473   4.5416   4.5550
     4.9096   4.9399   6.3225   6.3337   6.3483   6.3703   6.8742   6.8803

          k = 0.0000-0.5051-0.5000 (  5252 PWs)   bands (ev):

   -65.1342 -65.1341 -65.1341 -65.1332 -31.9192 -31.9191 -31.9186 -31.9186
   -31.9007 -31.9004 -31.8998 -31.8995 -31.8787 -31.8785 -31.8781 -31.8780
    -8.3937  -8.3935  -8.3829  -8.3828   4.1021   4.1023   4.1068   4.1069
     5.5640   5.5643   5.5910   5.5914   6.8487   6.8489   6.8574   6.8576

          k = 0.2500 0.0000 0.0000 (  5238 PWs)   bands (ev):

   -65.1393 -65.1331 -65.1319 -65.1313 -31.9264 -31.9236 -31.9201 -31.9031
   -31.8980 -31.8968 -31.8957 -31.8935 -31.8880 -31.8839 -31.8773 -31.8708
    -9.3060  -8.3230  -8.0876  -8.0695   3.8742   3.9053   3.9209   5.6395
     5.6550   5.9557   6.0042   6.3145   6.3720   6.4384   7.2048   7.2364

          k = 0.2500 0.0000 0.2500 (  5257 PWs)   bands (ev):

   -65.1382 -65.1331 -65.1327 -65.1316 -31.9242 -31.9241 -31.9154 -31.9109
   -31.8962 -31.8928 -31.8928 -31.8926 -31.8922 -31.8921 -31.8750 -31.8748
    -9.1244  -8.2600  -8.2598  -8.0791   3.9931   3.9932   4.1774   4.8885
     5.6524   5.8467   5.8473   6.3019   6.3021   6.3535   6.9356   7.2810

          k = 0.2500 0.0000-0.5000 (  5268 PWs)   bands (ev):

   -65.1357 -65.1353 -65.1326 -65.1320 -31.9200 -31.9198 -31.9128 -31.9127
   -31.9043 -31.9040 -31.8908 -31.8908 -31.8842 -31.8839 -31.8823 -31.8822
    -8.6880  -8.6877  -8.1425  -8.1423   4.2555   4.2557   4.5793   4.5795
     4.9216   4.9219   6.3342   6.3344   6.3557   6.3560   6.8841   6.8842

          k = 0.2500 0.2525 0.0000 (  5245 PWs)   bands (ev):

   -65.1381 -65.1331 -65.1327 -65.1318 -31.9236 -31.9208 -31.9183 -31.9076
   -31.8998 -31.8987 -31.8944 -31.8916 -31.8880 -31.8862 -31.8810 -31.8714
    -9.1195  -8.2592  -8.2414  -8.0913   3.9870   3.9949   4.1556   4.8888
     5.6224   5.8378   5.8846   6.2554   6.2724   6.3867   6.9592   7.2764

          k = 0.2500 0.2525 0.2500 (  5250 PWs)   bands (ev):

   -65.1372 -65.1331 -65.1330 -65.1323 -31.9263 -31.9262 -31.9241 -31.9079
   -31.8966 -31.8965 -31.8951 -31.8900 -31.8848 -31.8848 -31.8788 -31.8732
    -8.9580  -8.2268  -8.2266  -8.2139   3.8320   3.8362   3.8363   4.8903
     5.6466   5.6468   5.6618   6.4759   6.5040   6.5043   7.1299   7.1326

          k = 0.2500 0.2525-0.5000 (  5248 PWs)   bands (ev):

   -65.1353 -65.1349 -65.1330 -65.1324 -31.9283 -31.9282 -31.9216 -31.9215
   -31.8951 -31.8948 -31.8862 -31.8861 -31.8841 -31.8840 -31.8781 -31.8779
    -8.5797  -8.5795  -8.1900  -8.1898   3.6611   3.6612   4.0265   4.0267
     5.6362   5.6362   6.5326   6.5329   6.6516   6.6518   6.8049   6.8051

          k = 0.2500-0.5051 0.0000 (  5268 PWs)   bands (ev):

   -65.1356 -65.1352 -65.1326 -65.1321 -31.9191 -31.9184 -31.9108 -31.9099
   -31.9098 -31.9094 -31.8915 -31.8907 -31.8848 -31.8844 -31.8803 -31.8802
    -8.6820  -8.6649  -8.1466  -8.1433   4.2347   4.2471   4.5414   4.5547
     4.9094   4.9397   6.3227   6.3339   6.3486   6.3706   6.8740   6.8801

          k = 0.2500-0.5051 0.2500 (  5244 PWs)   bands (ev):

   -65.1352 -65.1348 -65.1331 -65.1325 -31.9285 -31.9284 -31.9208 -31.9207
   -31.8981 -31.8980 -31.8847 -31.8842 -31.8812 -31.8811 -31.8801 -31.8798
    -8.5777  -8.5631  -8.1932  -8.1931   3.6589   3.6590   4.0040   4.0177
     5.6382   5.6383   6.5248   6.5249   6.6621   6.6688   6.7819   6.7956

          k = 0.2500-0.5051-0.5000 (  5244 PWs)   bands (ev):

   -65.1342 -65.1341 -65.1341 -65.1332 -31.9313 -31.9311 -31.9311 -31.9310
   -31.8885 -31.8883 -31.8881 -31.8880 -31.8776 -31.8774 -31.8772 -31.8770
    -8.3581  -8.3579  -8.3504  -8.3502   3.4716   3.4718   3.4786   3.4787
     6.3068   6.3070   6.3225   6.3226   6.8512   6.8514   6.8573   6.8575

          k =-0.5000 0.0000 0.0000 (  5262 PWs)   bands (ev):

   -65.1364 -65.1360 -65.1319 -65.1314 -31.9149 -31.9146 -31.9083 -31.9081
   -31.9056 -31.9056 -31.8984 -31.8984 -31.8860 -31.8858 -31.8795 -31.8792
    -8.8183  -8.8182  -8.0527  -8.0525   4.6548   4.6549   4.6794   4.6795
     4.9282   4.9285   5.7889   5.7893   6.7324   6.7325   6.7783   6.7784

          k =-0.5000 0.0000 0.2500 (  5268 PWs)   bands (ev):

   -65.1357 -65.1353 -65.1326 -65.1320 -31.9200 -31.9198 -31.9127 -31.9127
   -31.9043 -31.9040 -31.8908 -31.8907 -31.8842 -31.8839 -31.8824 -31.8822
    -8.6878  -8.6877  -8.1425  -8.1424   4.2556   4.2556   4.5792   4.5794
     4.9219   4.9219   6.3339   6.3341   6.3556   6.3556   6.8842   6.8843

          k =-0.5000 0.0000-0.5000 (  5280 PWs)   bands (ev):

   -65.1342 -65.1341 -65.1341 -65.1332 -31.9209 -31.9207 -31.9207 -31.9207
   -31.8950 -31.8947 -31.8947 -31.8945 -31.8832 -31.8829 -31.8829 -31.8829
    -8.3950  -8.3949  -8.3948  -8.3947   4.1418   4.1419   4.1420   4.1421
     5.5727   5.5728   5.5732   5.5732   6.8386   6.8388   6.8388   6.8390

          k =-0.5000 0.2525 0.0000 (  5260 PWs)   bands (ev):

   -65.1357 -65.1353 -65.1326 -65.1320 -31.9169 -31.9167 -31.9118 -31.9118
   -31.9115 -31.9112 -31.8903 -31.8900 -31.8875 -31.8874 -31.8762 -31.8760
    -8.6847  -8.6846  -8.1389  -8.1388   4.2415   4.2416   4.5556   4.5558
     4.9045   4.9046   6.3573   6.3576   6.3863   6.3864   6.8662   6.8663

          k =-0.5000 0.2525 0.2500 (  5248 PWs)   bands (ev):

   -65.1353 -65.1349 -65.1330 -65.1324 -31.9283 -31.9282 -31.9216 -31.9214
   -31.8951 -31.8948 -31.8862 -31.8861 -31.8841 -31.8840 -31.8781 -31.8779
    -8.5795  -8.5794  -8.1900  -8.1899   3.6611   3.6612   4.0264   4.0266
     5.6362   5.6362   6.5325   6.5328   6.6517   6.6519   6.8048   6.8049

          k =-0.5000 0.2525-0.5000 (  5260 PWs)   bands (ev):

   -65.1342 -65.1341 -65.1341 -65.1332 -31.9316 -31.9314 -31.9314 -31.9313
   -31.8836 -31.8834 -31.8834 -31.8831 -31.8830 -31.8828 -31.8828 -31.8827
    -8.3577  -8.3575  -8.3575  -8.3574   3.4875   3.4876   3.4876   3.4877
     6.3257   6.3257   6.3260   6.3260   6.8398   6.8400   6.8400   6.8402

          k =-0.5000-0.5051 0.0000 (  5252 PWs)   bands (ev):

   -65.1342 -65.1341 -65.1341 -65.1332 -31.9192 -31.9191 -31.9186 -31.9186
   -31.9007 -31.9005 -31.8999 -31.8996 -31.8786 -31.8785 -31.8781 -31.8780
    -8.3936  -8.3935  -8.3829  -8.3827   4.1018   4.1019   4.1065   4.1065
     5.5642   5.5642   5.5912   5.5913   6.8489   6.8491   6.8576   6.8577

          k =-0.5000-0.5051 0.2500 (  5244 PWs)   bands (ev):

   -65.1342 -65.1341 -65.1341 -65.1332 -31.9313 -31.9311 -31.9311 -31.9310
   -31.8886 -31.8883 -31.8882 -31.8880 -31.8776 -31.8774 -31.8771 -31.8770
    -8.3580  -8.3579  -8.3503  -8.3502   3.4715   3.4716   3.4785   3.4785
     6.3067   6.3068   6.3224   6.3225   6.8514   6.8515   6.8574   6.8576

          k =-0.5000-0.5051-0.5000 (  5296 PWs)   bands (ev):

   -65.1342 -65.1341 -65.1341 -65.1332 -31.9398 -31.9396 -31.9396 -31.9395
   -31.8831 -31.8828 -31.8828 -31.8828 -31.8772 -31.8770 -31.8770 -31.8768
    -8.3198  -8.3196  -8.3196  -8.3196   3.0657   3.0659   3.0659   3.0659
     6.8409   6.8411   6.8411   6.8413   6.8596   6.8597   6.8598   6.8598

          k = 0.0000 0.2525-0.2500 (  5245 PWs)   bands (ev):

   -65.1381 -65.1331 -65.1327 -65.1318 -31.9237 -31.9207 -31.9183 -31.9076
   -31.8998 -31.8986 -31.8945 -31.8916 -31.8880 -31.8862 -31.8809 -31.8714
    -9.1195  -8.2594  -8.2414  -8.0912   3.9870   3.9949   4.1558   4.8888
     5.6227   5.8374   5.8847   6.2557   6.2728   6.3863   6.9590   7.2765

          k =-0.2500 0.2525-0.2500 (  5250 PWs)   bands (ev):

   -65.1372 -65.1331 -65.1330 -65.1323 -31.9263 -31.9262 -31.9241 -31.9079
   -31.8966 -31.8965 -31.8951 -31.8900 -31.8848 -31.8848 -31.8788 -31.8732
    -8.9580  -8.2268  -8.2266  -8.2139   3.8320   3.8362   3.8363   4.8903
     5.6466   5.6468   5.6618   6.4759   6.5040   6.5043   7.1299   7.1326

          k = 0.5000 0.2525-0.2500 (  5248 PWs)   bands (ev):

   -65.1353 -65.1349 -65.1330 -65.1324 -31.9283 -31.9282 -31.9216 -31.9214
   -31.8951 -31.8948 -31.8862 -31.8861 -31.8841 -31.8840 -31.8781 -31.8779
    -8.5795  -8.5794  -8.1900  -8.1899   3.6611   3.6612   4.0264   4.0265
     5.6362   5.6362   6.5325   6.5328   6.6518   6.6519   6.8048   6.8049

     highest occupied level (ev):     7.4435

!    total energy              =    -608.39132580 Ry
     Harris-Foulkes estimate   =    -608.39132580 Ry
     estimated scf accuracy    <          8.6E-10 Ry

     The total energy is the sum of the following terms:

     one-electron contribution =    -307.43519812 Ry
     hartree contribution      =     169.36865360 Ry
     xc contribution           =     -97.76614117 Ry
     ewald contribution        =    -372.55864010 Ry

     convergence has been achieved in   5 iterations

     Forces acting on atoms (cartesian axes, Ry/au):

     atom    1 type  1   force =     0.00000000    0.00205961   -0.00002109
     atom    2 type  1   force =     0.00000000   -0.00218116    0.00002183
     atom    3 type  1   force =     0.00000000    0.00226230    0.00002209
     atom    4 type  1   force =     0.00000000   -0.00218104   -0.00002275
     atom    5 type  2   force =     0.00000000    0.00212925   -0.00002175
     atom    6 type  2   force =     0.00000000   -0.00211010   -0.00002190
     atom    7 type  2   force =     0.00000000    0.00212951    0.00002184
     atom    8 type  2   force =     0.00000000   -0.00210837    0.00002172

     Total force =     0.006070     Total SCF correction =     0.000303


     Computing stress (Cartesian axis) and pressure

          total   stress  (Ry/bohr**3)                   (kbar)     P=  -94.54
  -0.00067693   0.00000000   0.00000000        -99.58      0.00      0.00
   0.00000000  -0.00057316   0.00000000          0.00    -84.31      0.00
   0.00000000   0.00000000  -0.00067790          0.00      0.00    -99.72


     number of scf cycles    =   3
     number of bfgs steps    =   2

     energy   old            =    -608.3911597285 Ry
     energy   new            =    -608.3913257970 Ry

     CASE: energy  _new < energy  _old

     new trust radius        =       0.0074008079 bohr
     new conv_thr            =       0.0000000017 Ry


ATOMIC_POSITIONS (alat)
Mg       0.000000000   0.002293971  -0.000021293
Mg       0.000000000   0.497676547   0.500020888
Mg       0.500000000   0.002378477   0.500021619
Mg       0.500000000   0.497676566  -0.000022034
O        0.500000000   0.002519859  -0.000023645
O        0.000000000   0.497470694  -0.000023704
O        0.000000000   0.002519853   0.500024050
O        0.500000000   0.497464033   0.500024119



     Writing output data file diamond.8.1251975.70.4.save
     NEW-OLD atomic charge density approx. for the potential

     Check: negative/imaginary core charge=   -0.000007    0.000000

     total cpu time spent up to now is       30.6 secs

     per-process dynamical memory:    52.1 Mb

     Self-consistent Calculation

     iteration #  1     ecut=    70.00 Ry     beta=0.70
     Davidson diagonalization with overlap
     ethr =  1.00E-06,  avg # of iterations =  3.2

     total cpu time spent up to now is       32.6 secs

     total energy              =    -608.39136398 Ry
     Harris-Foulkes estimate   =    -608.39141529 Ry
     estimated scf accuracy    <       0.00007027 Ry

     iteration #  2     ecut=    70.00 Ry     beta=0.70
     Davidson diagonalization with overlap
     ethr =  1.10E-07,  avg # of iterations =  2.2

     total cpu time spent up to now is       33.8 secs

     total energy              =    -608.39138571 Ry
     Harris-Foulkes estimate   =    -608.39139290 Ry
     estimated scf accuracy    <       0.00001200 Ry

     iteration #  3     ecut=    70.00 Ry     beta=0.70
     Davidson diagonalization with overlap
     ethr =  1.88E-08,  avg # of iterations =  2.0

     total cpu time spent up to now is       35.0 secs

     total energy              =    -608.39138828 Ry
     Harris-Foulkes estimate   =    -608.39138824 Ry
     estimated scf accuracy    <       0.00000009 Ry

     iteration #  4     ecut=    70.00 Ry     beta=0.70
     Davidson diagonalization with overlap
     ethr =  1.39E-10,  avg # of iterations =  2.4

     total cpu time spent up to now is       36.4 secs

     total energy              =    -608.39138830 Ry
     Harris-Foulkes estimate   =    -608.39138831 Ry
     estimated scf accuracy    <          6.8E-09 Ry

     iteration #  5     ecut=    70.00 Ry     beta=0.70
     Davidson diagonalization with overlap
     ethr =  1.06E-11,  avg # of iterations =  2.1

     total cpu time spent up to now is       37.7 secs

     End of self-consistent calculation

          k = 0.0000 0.0000 0.0000 (  5257 PWs)   bands (ev):

   -65.1406 -65.1321 -65.1320 -65.1313 -31.9311 -31.9310 -31.9254 -31.8990
   -31.8990 -31.8953 -31.8953 -31.8910 -31.8910 -31.8760 -31.8759 -31.8675
    -9.5050  -8.1169  -8.1167  -8.0915   3.5910   3.5913   3.6229   6.1451
     6.1457   6.1545   6.1553   6.2172   6.2173   7.4210   7.4434   7.4436

          k = 0.0000 0.0000 0.2500 (  5230 PWs)   bands (ev):

   -65.1393 -65.1332 -65.1320 -65.1314 -31.9259 -31.9237 -31.9201 -31.9031
   -31.8981 -31.8967 -31.8956 -31.8936 -31.8880 -31.8840 -31.8768 -31.8706
    -9.3059  -8.3231  -8.0873  -8.0694   3.8750   3.9052   3.9208   5.6392
     5.6544   5.9565   6.0045   6.3149   6.3721   6.4387   7.2050   7.2364

          k = 0.0000 0.0000-0.5000 (  5262 PWs)   bands (ev):

   -65.1365 -65.1360 -65.1320 -65.1314 -31.9149 -31.9146 -31.9083 -31.9080
   -31.9059 -31.9058 -31.8986 -31.8985 -31.8860 -31.8858 -31.8795 -31.8792
    -8.8183  -8.8182  -8.0524  -8.0524   4.6550   4.6550   4.6792   4.6793
     4.9283   4.9286   5.7897   5.7900   6.7328   6.7328   6.7783   6.7783

          k = 0.0000 0.2525 0.0000 (  5245 PWs)   bands (ev):

   -65.1393 -65.1330 -65.1321 -65.1316 -31.9265 -31.9264 -31.9161 -31.9015
   -31.9015 -31.8950 -31.8950 -31.8919 -31.8918 -31.8782 -31.8780 -31.8780
    -9.3003  -8.2988  -8.0883  -8.0881   3.8815   3.8818   3.9375   5.6937
     5.6938   5.9404   5.9409   6.3094   6.3100   6.4167   7.2226   7.2229

          k = 0.0000 0.2525 0.2500 (  5245 PWs)   bands (ev):

   -65.1382 -65.1331 -65.1327 -65.1319 -31.9237 -31.9208 -31.9183 -31.9077
   -31.8998 -31.8987 -31.8945 -31.8917 -31.8880 -31.8862 -31.8810 -31.8715
    -9.1194  -8.2593  -8.2413  -8.0911   3.9871   3.9949   4.1560   4.8888
     5.6228   5.8376   5.8847   6.2559   6.2729   6.3862   6.9590   7.2765

          k = 0.0000 0.2525-0.5000 (  5260 PWs)   bands (ev):

   -65.1358 -65.1354 -65.1326 -65.1321 -31.9169 -31.9168 -31.9119 -31.9119
   -31.9115 -31.9112 -31.8903 -31.8900 -31.8876 -31.8875 -31.8763 -31.8761
    -8.6847  -8.6846  -8.1388  -8.1388   4.2417   4.2418   4.5560   4.5562
     4.9047   4.9047   6.3575   6.3578   6.3862   6.3863   6.8662   6.8663

          k = 0.0000-0.5051 0.0000 (  5222 PWs)   bands (ev):

   -65.1363 -65.1359 -65.1321 -65.1316 -31.9135 -31.9135 -31.9133 -31.9133
   -31.8990 -31.8988 -31.8898 -31.8897 -31.8866 -31.8866 -31.8865 -31.8864
    -8.8014  -8.8010  -8.0592  -8.0592   4.6812   4.6814   4.6822   4.6824
     4.9187   4.9189   5.7392   5.7394   6.7372   6.7374   6.7376   6.7378

          k = 0.0000-0.5051 0.2500 (  5268 PWs)   bands (ev):

   -65.1357 -65.1353 -65.1327 -65.1322 -31.9189 -31.9188 -31.9104 -31.9102
   -31.9097 -31.9096 -31.8912 -31.8910 -31.8847 -31.8846 -31.8804 -31.8803
    -8.6736  -8.6732  -8.1449  -8.1449   4.2408   4.2415   4.5481   4.5485
     4.9243   4.9253   6.3280   6.3283   6.3592   6.3596   6.8772   6.8775

          k = 0.0000-0.5051-0.5000 (  5252 PWs)   bands (ev):

   -65.1342 -65.1342 -65.1342 -65.1333 -31.9191 -31.9190 -31.9188 -31.9188
   -31.9004 -31.9002 -31.9002 -31.8999 -31.8786 -31.8784 -31.8783 -31.8782
    -8.3882  -8.3882  -8.3880  -8.3880   4.1043   4.1043   4.1048   4.1050
     5.5773   5.5774   5.5781   5.5782   6.8531   6.8532   6.8532   6.8534

          k = 0.2500 0.0000 0.0000 (  5238 PWs)   bands (ev):

   -65.1393 -65.1332 -65.1320 -65.1314 -31.9264 -31.9237 -31.9201 -31.9031
   -31.8981 -31.8968 -31.8958 -31.8936 -31.8880 -31.8840 -31.8774 -31.8708
    -9.3058  -8.3228  -8.0875  -8.0694   3.8744   3.9052   3.9210   5.6396
     5.6549   5.9559   6.0044   6.3143   6.3721   6.4385   7.2048   7.2365

          k = 0.2500 0.0000 0.2500 (  5257 PWs)   bands (ev):

   -65.1382 -65.1331 -65.1328 -65.1317 -31.9243 -31.9242 -31.9154 -31.9110
   -31.8963 -31.8928 -31.8927 -31.8927 -31.8923 -31.8922 -31.8751 -31.8749
    -9.1243  -8.2599  -8.2597  -8.0790   3.9933   3.9933   4.1773   4.8887
     5.6524   5.8468   5.8473   6.3019   6.3021   6.3537   6.9356   7.2810

          k = 0.2500 0.0000-0.5000 (  5268 PWs)   bands (ev):

   -65.1358 -65.1354 -65.1326 -65.1321 -31.9200 -31.9198 -31.9128 -31.9127
   -31.9044 -31.9041 -31.8909 -31.8908 -31.8842 -31.8840 -31.8824 -31.8822
    -8.6878  -8.6877  -8.1423  -8.1423   4.2557   4.2558   4.5795   4.5797
     4.9215   4.9216   6.3357   6.3359   6.3544   6.3545   6.8841   6.8842

          k = 0.2500 0.2525 0.0000 (  5245 PWs)   bands (ev):

   -65.1382 -65.1331 -65.1327 -65.1319 -31.9237 -31.9208 -31.9183 -31.9076
   -31.8999 -31.8987 -31.8944 -31.8917 -31.8880 -31.8862 -31.8811 -31.8715
    -9.1193  -8.2591  -8.2413  -8.0912   3.9871   3.9949   4.1558   4.8888
     5.6225   5.8380   5.8846   6.2556   6.2724   6.3865   6.9592   7.2765

          k = 0.2500 0.2525 0.2500 (  5250 PWs)   bands (ev):

   -65.1373 -65.1331 -65.1331 -65.1324 -31.9264 -31.9263 -31.9241 -31.9080
   -31.8967 -31.8966 -31.8952 -31.8901 -31.8849 -31.8848 -31.8789 -31.8732
    -8.9578  -8.2267  -8.2265  -8.2138   3.8320   3.8363   3.8364   4.8904
     5.6467   5.6468   5.6618   6.4761   6.5040   6.5043   7.1300   7.1327

          k = 0.2500 0.2525-0.5000 (  5248 PWs)   bands (ev):

   -65.1353 -65.1349 -65.1331 -65.1325 -31.9284 -31.9282 -31.9216 -31.9215
   -31.8951 -31.8949 -31.8863 -31.8862 -31.8842 -31.8840 -31.8782 -31.8780
    -8.5795  -8.5794  -8.1898  -8.1898   3.6612   3.6612   4.0266   4.0268
     5.6362   5.6363   6.5328   6.5331   6.6516   6.6518   6.8049   6.8050

          k = 0.2500-0.5051 0.0000 (  5268 PWs)   bands (ev):

   -65.1357 -65.1353 -65.1327 -65.1322 -31.9189 -31.9187 -31.9105 -31.9103
   -31.9097 -31.9096 -31.8913 -31.8911 -31.8847 -31.8846 -31.8803 -31.8803
    -8.6735  -8.6732  -8.1449  -8.1448   4.2406   4.2413   4.5478   4.5483
     4.9242   4.9251   6.3283   6.3285   6.3595   6.3599   6.8770   6.8773

          k = 0.2500-0.5051 0.2500 (  5244 PWs)   bands (ev):

   -65.1352 -65.1349 -65.1331 -65.1326 -31.9285 -31.9284 -31.9208 -31.9208
   -31.8982 -31.8980 -31.8846 -31.8844 -31.8812 -31.8812 -31.8800 -31.8800
    -8.5704  -8.5701  -8.1930  -8.1930   3.6590   3.6591   4.0107   4.0111
     5.6384   5.6384   6.5247   6.5249   6.6653   6.6657   6.7888   6.7889

          k = 0.2500-0.5051-0.5000 (  5244 PWs)   bands (ev):

   -65.1342 -65.1342 -65.1342 -65.1333 -31.9314 -31.9312 -31.9311 -31.9311
   -31.8885 -31.8883 -31.8883 -31.8882 -31.8776 -31.8774 -31.8773 -31.8771
    -8.3541  -8.3541  -8.3540  -8.3539   3.4750   3.4751   3.4752   3.4754
     6.3145   6.3147   6.3150   6.3150   6.8543   6.8544   6.8544   6.8546

          k =-0.5000 0.0000 0.0000 (  5262 PWs)   bands (ev):

   -65.1365 -65.1360 -65.1320 -65.1314 -31.9149 -31.9147 -31.9083 -31.9080
   -31.9058 -31.9058 -31.8985 -31.8985 -31.8861 -31.8858 -31.8795 -31.8793
    -8.8181  -8.8181  -8.0525  -8.0525   4.6550   4.6550   4.6795   4.6795
     4.9282   4.9285   5.7892   5.7895   6.7324   6.7324   6.7784   6.7784

          k =-0.5000 0.0000 0.2500 (  5268 PWs)   bands (ev):

   -65.1358 -65.1354 -65.1326 -65.1321 -31.9200 -31.9199 -31.9128 -31.9127
   -31.9044 -31.9041 -31.8909 -31.8908 -31.8842 -31.8840 -31.8824 -31.8823
    -8.6876  -8.6876  -8.1424  -8.1423   4.2557   4.2558   4.5794   4.5796
     4.9218   4.9218   6.3354   6.3356   6.3542   6.3542   6.8843   6.8844

          k =-0.5000 0.0000-0.5000 (  5280 PWs)   bands (ev):

   -65.1342 -65.1342 -65.1342 -65.1333 -31.9210 -31.9207 -31.9207 -31.9207
   -31.8950 -31.8948 -31.8948 -31.8945 -31.8832 -31.8830 -31.8830 -31.8830
    -8.3948  -8.3947  -8.3947  -8.3947   4.1420   4.1421   4.1421   4.1422
     5.5728   5.5728   5.5730   5.5730   6.8387   6.8389   6.8389   6.8391

          k =-0.5000 0.2525 0.0000 (  5260 PWs)   bands (ev):

   -65.1358 -65.1354 -65.1326 -65.1321 -31.9169 -31.9168 -31.9118 -31.9118
   -31.9116 -31.9113 -31.8903 -31.8901 -31.8875 -31.8874 -31.8763 -31.8761
    -8.6846  -8.6845  -8.1388  -8.1388   4.2415   4.2416   4.5557   4.5559
     4.9047   4.9048   6.3574   6.3577   6.3863   6.3863   6.8662   6.8663

          k =-0.5000 0.2525 0.2500 (  5248 PWs)   bands (ev):

   -65.1353 -65.1349 -65.1331 -65.1325 -31.9284 -31.9282 -31.9216 -31.9215
   -31.8951 -31.8949 -31.8862 -31.8862 -31.8842 -31.8840 -31.8782 -31.8780
    -8.5794  -8.5793  -8.1899  -8.1898   3.6611   3.6612   4.0265   4.0266
     5.6363   5.6363   6.5327   6.5330   6.6518   6.6519   6.8048   6.8048

          k =-0.5000 0.2525-0.5000 (  5260 PWs)   bands (ev):

   -65.1342 -65.1342 -65.1342 -65.1333 -31.9317 -31.9314 -31.9314 -31.9314
   -31.8836 -31.8834 -31.8834 -31.8832 -31.8831 -31.8829 -31.8828 -31.8828
    -8.3575  -8.3574  -8.3574  -8.3574   3.4875   3.4877   3.4877   3.4877
     6.3257   6.3258   6.3259   6.3260   6.8399   6.8401   6.8401   6.8403

          k =-0.5000-0.5051 0.0000 (  5252 PWs)   bands (ev):

   -65.1342 -65.1342 -65.1342 -65.1333 -31.9191 -31.9190 -31.9188 -31.9187
   -31.9004 -31.9003 -31.9002 -31.9000 -31.8786 -31.8784 -31.8783 -31.8782
    -8.3882  -8.3881  -8.3880  -8.3879   4.1039   4.1039   4.1044   4.1046
     5.5774   5.5775   5.5781   5.5782   6.8532   6.8534   6.8534   6.8536

          k =-0.5000-0.5051 0.2500 (  5244 PWs)   bands (ev):

   -65.1342 -65.1342 -65.1342 -65.1333 -31.9314 -31.9312 -31.9311 -31.9311
   -31.8885 -31.8883 -31.8883 -31.8882 -31.8775 -31.8774 -31.8773 -31.8771
    -8.3541  -8.3540  -8.3540  -8.3539   3.4749   3.4750   3.4751   3.4752
     6.3144   6.3146   6.3149   6.3149   6.8544   6.8546   6.8546   6.8547

          k =-0.5000-0.5051-0.5000 (  5296 PWs)   bands (ev):

   -65.1342 -65.1342 -65.1342 -65.1333 -31.9399 -31.9396 -31.9396 -31.9395
   -31.8831 -31.8829 -31.8829 -31.8829 -31.8773 -31.8771 -31.8771 -31.8768
    -8.3196  -8.3195  -8.3195  -8.3195   3.0657   3.0659   3.0659   3.0659
     6.8410   6.8412   6.8412   6.8414   6.8596   6.8598   6.8599   6.8599

          k = 0.0000 0.2525-0.2500 (  5245 PWs)   bands (ev):

   -65.1382 -65.1331 -65.1327 -65.1319 -31.9237 -31.9208 -31.9183 -31.9077
   -31.8998 -31.8987 -31.8945 -31.8917 -31.8880 -31.8862 -31.8810 -31.8715
    -9.1194  -8.2593  -8.2413  -8.0911   3.9871   3.9949   4.1560   4.8888
     5.6228   5.8376   5.8847   6.2559   6.2729   6.3862   6.9590   7.2765

          k =-0.2500 0.2525-0.2500 (  5250 PWs)   bands (ev):

   -65.1373 -65.1331 -65.1331 -65.1324 -31.9264 -31.9263 -31.9241 -31.9080
   -31.8967 -31.8966 -31.8952 -31.8901 -31.8849 -31.8848 -31.8789 -31.8732
    -8.9578  -8.2267  -8.2265  -8.2138   3.8320   3.8363   3.8364   4.8904
     5.6467   5.6468   5.6618   6.4761   6.5040   6.5043   7.1300   7.1327

          k = 0.5000 0.2525-0.2500 (  5248 PWs)   bands (ev):

   -65.1353 -65.1349 -65.1331 -65.1325 -31.9284 -31.9282 -31.9216 -31.9215
   -31.8951 -31.8949 -31.8862 -31.8862 -31.8842 -31.8840 -31.8782 -31.8780
    -8.5794  -8.5793  -8.1899  -8.1898   3.6611   3.6612   4.0265   4.0266
     5.6363   5.6363   6.5327   6.5330   6.6518   6.6519   6.8048   6.8048

     highest occupied level (ev):     7.4436

!    total energy              =    -608.39138830 Ry
     Harris-Foulkes estimate   =    -608.39138831 Ry
     estimated scf accuracy    <          9.9E-10 Ry

     The total energy is the sum of the following terms:

     one-electron contribution =    -307.42233704 Ry
     hartree contribution      =     169.36211463 Ry
     xc contribution           =     -97.76597787 Ry
     ewald contribution        =    -372.56518802 Ry

     convergence has been achieved in   5 iterations

     Forces acting on atoms (cartesian axes, Ry/au):

     atom    1 type  1   force =     0.00000000    0.00004924   -0.00000377
     atom    2 type  1   force =     0.00000000   -0.00022637    0.00000572
     atom    3 type  1   force =     0.00000000    0.00028316    0.00000540
     atom    4 type  1   force =     0.00000000   -0.00022643   -0.00000596
     atom    5 type  2   force =     0.00000000   -0.00012829   -0.00000176
     atom    6 type  2   force =     0.00000000    0.00017218   -0.00000185
     atom    7 type  2   force =     0.00000000   -0.00012793    0.00000117
     atom    8 type  2   force =     0.00000000    0.00020445    0.00000105

     Total force =     0.000538     Total SCF correction =     0.000266
     SCF correction compared to forces is large: reduce conv_thr to get better values


     Computing stress (Cartesian axis) and pressure

          total   stress  (Ry/bohr**3)                   (kbar)     P=  -94.63
  -0.00067709   0.00000000   0.00000000        -99.60      0.00      0.00
   0.00000000  -0.00057462   0.00000000          0.00    -84.53      0.00
   0.00000000   0.00000000  -0.00067806          0.00      0.00    -99.75


     number of scf cycles    =   4
     number of bfgs steps    =   3

     energy   old            =    -608.3913257970 Ry
     energy   new            =    -608.3913883046 Ry

     CASE: energy  _new < energy  _old

     new trust radius        =       0.0003418959 bohr
     new conv_thr            =       0.0000000003 Ry


ATOMIC_POSITIONS (alat)
Mg       0.000000000   0.002306667  -0.000021823
Mg       0.000000000   0.497641705   0.500021660
Mg       0.500000000   0.002420549   0.500022354
Mg       0.500000000   0.497641717  -0.000022840
O        0.500000000   0.002511065  -0.000023932
O        0.000000000   0.497484930  -0.000024002
O        0.000000000   0.002511104   0.500024264
O        0.500000000   0.497482262   0.500024318



     Writing output data file diamond.8.1251975.70.4.save
     NEW-OLD atomic charge density approx. for the potential

     Check: negative/imaginary core charge=   -0.000007    0.000000

     total cpu time spent up to now is       38.4 secs

     per-process dynamical memory:    52.1 Mb

     Self-consistent Calculation

     iteration #  1     ecut=    70.00 Ry     beta=0.70
     Davidson diagonalization with overlap
     ethr =  1.00E-06,  avg # of iterations =  2.0

     Threshold (ethr) on eigenvalues was too large:
     Diagonalizing with lowered threshold

     Davidson diagonalization with overlap
     ethr =  1.51E-11,  avg # of iterations =  3.5

     total cpu time spent up to now is       41.5 secs

     total energy              =    -608.39138856 Ry
     Harris-Foulkes estimate   =    -608.39138856 Ry
     estimated scf accuracy    <          7.1E-09 Ry

     iteration #  2     ecut=    70.00 Ry     beta=0.70
     Davidson diagonalization with overlap
     ethr =  1.10E-11,  avg # of iterations =  3.0

     total cpu time spent up to now is       42.9 secs

     total energy              =    -608.39138856 Ry
     Harris-Foulkes estimate   =    -608.39138856 Ry
     estimated scf accuracy    <          4.8E-09 Ry

     iteration #  3     ecut=    70.00 Ry     beta=0.70
     Davidson diagonalization with overlap
     ethr =  7.45E-12,  avg # of iterations =  3.0

     total cpu time spent up to now is       44.2 secs

     total energy              =    -608.39138856 Ry
     Harris-Foulkes estimate   =    -608.39138856 Ry
     estimated scf accuracy    <          5.4E-10 Ry

     iteration #  4     ecut=    70.00 Ry     beta=0.70
     Davidson diagonalization with overlap
     ethr =  8.39E-13,  avg # of iterations =  2.9

     total cpu time spent up to now is       45.6 secs

     End of self-consistent calculation

          k = 0.0000 0.0000 0.0000 (  5257 PWs)   bands (ev):

   -65.1406 -65.1321 -65.1320 -65.1313 -31.9311 -31.9310 -31.9254 -31.8990
   -31.8990 -31.8953 -31.8953 -31.8910 -31.8910 -31.8760 -31.8759 -31.8674
    -9.5050  -8.1170  -8.1167  -8.0916   3.5910   3.5913   3.6229   6.1450
     6.1456   6.1545   6.1552   6.2172   6.2172   7.4209   7.4433   7.4436

          k = 0.0000 0.0000 0.2500 (  5230 PWs)   bands (ev):

   -65.1393 -65.1332 -65.1320 -65.1314 -31.9259 -31.9237 -31.9201 -31.9031
   -31.8981 -31.8967 -31.8956 -31.8936 -31.8880 -31.8840 -31.8768 -31.8706
    -9.3059  -8.3231  -8.0874  -8.0695   3.8750   3.9052   3.9208   5.6392
     5.6544   5.9565   6.0045   6.3149   6.3721   6.4386   7.2049   7.2363

          k = 0.0000 0.0000-0.5000 (  5262 PWs)   bands (ev):

   -65.1365 -65.1360 -65.1320 -65.1314 -31.9149 -31.9146 -31.9083 -31.9080
   -31.9059 -31.9058 -31.8985 -31.8985 -31.8860 -31.8858 -31.8795 -31.8792
    -8.8183  -8.8183  -8.0525  -8.0524   4.6549   4.6550   4.6792   4.6792
     4.9283   4.9286   5.7896   5.7900   6.7327   6.7328   6.7783   6.7783

          k = 0.0000 0.2525 0.0000 (  5245 PWs)   bands (ev):

   -65.1393 -65.1330 -65.1321 -65.1316 -31.9265 -31.9264 -31.9161 -31.9015
   -31.9015 -31.8950 -31.8950 -31.8919 -31.8918 -31.8782 -31.8780 -31.8780
    -9.3003  -8.2988  -8.0883  -8.0881   3.8815   3.8818   3.9375   5.6936
     5.6938   5.9403   5.9409   6.3094   6.3100   6.4166   7.2226   7.2229

          k = 0.0000 0.2525 0.2500 (  5245 PWs)   bands (ev):

   -65.1382 -65.1331 -65.1327 -65.1319 -31.9237 -31.9208 -31.9183 -31.9077
   -31.8998 -31.8987 -31.8945 -31.8917 -31.8880 -31.8862 -31.8810 -31.8715
    -9.1194  -8.2593  -8.2414  -8.0911   3.9871   3.9949   4.1560   4.8888
     5.6228   5.8376   5.8846   6.2559   6.2728   6.3861   6.9589   7.2765

          k = 0.0000 0.2525-0.5000 (  5260 PWs)   bands (ev):

   -65.1358 -65.1354 -65.1326 -65.1321 -31.9169 -31.9168 -31.9119 -31.9118
   -31.9115 -31.9112 -31.8903 -31.8900 -31.8875 -31.8875 -31.8763 -31.8761
    -8.6847  -8.6847  -8.1388  -8.1388   4.2416   4.2417   4.5560   4.5562
     4.9047   4.9047   6.3575   6.3577   6.3862   6.3863   6.8662   6.8663

          k = 0.0000-0.5051 0.0000 (  5222 PWs)   bands (ev):

   -65.1363 -65.1359 -65.1321 -65.1316 -31.9135 -31.9135 -31.9133 -31.9133
   -31.8990 -31.8988 -31.8898 -31.8897 -31.8866 -31.8866 -31.8865 -31.8864
    -8.8014  -8.8010  -8.0593  -8.0592   4.6812   4.6814   4.6822   4.6824
     4.9187   4.9189   5.7392   5.7394   6.7371   6.7374   6.7376   6.7378

          k = 0.0000-0.5051 0.2500 (  5268 PWs)   bands (ev):

   -65.1357 -65.1353 -65.1327 -65.1322 -31.9189 -31.9188 -31.9104 -31.9102
   -31.9097 -31.9096 -31.8912 -31.8910 -31.8847 -31.8846 -31.8804 -31.8803
    -8.6736  -8.6733  -8.1450  -8.1449   4.2408   4.2414   4.5481   4.5484
     4.9243   4.9252   6.3280   6.3282   6.3591   6.3596   6.8772   6.8774

          k = 0.0000-0.5051-0.5000 (  5252 PWs)   bands (ev):

   -65.1342 -65.1342 -65.1342 -65.1333 -31.9191 -31.9190 -31.9188 -31.9188
   -31.9004 -31.9002 -31.9001 -31.8999 -31.8786 -31.8784 -31.8783 -31.8782
    -8.3883  -8.3882  -8.3881  -8.3880   4.1043   4.1044   4.1046   4.1049
     5.5773   5.5773   5.5781   5.5782   6.8531   6.8532   6.8532   6.8534

          k = 0.2500 0.0000 0.0000 (  5238 PWs)   bands (ev):

   -65.1393 -65.1332 -65.1320 -65.1314 -31.9264 -31.9237 -31.9201 -31.9031
   -31.8981 -31.8968 -31.8957 -31.8936 -31.8880 -31.8840 -31.8774 -31.8708
    -9.3059  -8.3229  -8.0876  -8.0695   3.8743   3.9052   3.9210   5.6396
     5.6549   5.9558   6.0043   6.3143   6.3720   6.4384   7.2048   7.2364

          k = 0.2500 0.0000 0.2500 (  5257 PWs)   bands (ev):

   -65.1382 -65.1331 -65.1328 -65.1317 -31.9243 -31.9242 -31.9154 -31.9110
   -31.8963 -31.8928 -31.8927 -31.8927 -31.8923 -31.8922 -31.8751 -31.8749
    -9.1243  -8.2599  -8.2597  -8.0790   3.9933   3.9933   4.1773   4.8887
     5.6524   5.8467   5.8473   6.3019   6.3020   6.3537   6.9356   7.2810

          k = 0.2500 0.0000-0.5000 (  5268 PWs)   bands (ev):

   -65.1358 -65.1354 -65.1326 -65.1321 -31.9200 -31.9198 -31.9128 -31.9127
   -31.9044 -31.9041 -31.8909 -31.8908 -31.8842 -31.8840 -31.8824 -31.8822
    -8.6878  -8.6877  -8.1424  -8.1423   4.2557   4.2557   4.5795   4.5797
     4.9215   4.9216   6.3356   6.3359   6.3544   6.3544   6.8841   6.8842

          k = 0.2500 0.2525 0.0000 (  5245 PWs)   bands (ev):

   -65.1382 -65.1331 -65.1327 -65.1319 -31.9237 -31.9208 -31.9183 -31.9076
   -31.8999 -31.8987 -31.8944 -31.8917 -31.8880 -31.8862 -31.8811 -31.8714
    -9.1193  -8.2591  -8.2414  -8.0913   3.9871   3.9948   4.1558   4.8888
     5.6225   5.8379   5.8846   6.2556   6.2724   6.3864   6.9592   7.2765

          k = 0.2500 0.2525 0.2500 (  5250 PWs)   bands (ev):

   -65.1373 -65.1331 -65.1331 -65.1324 -31.9263 -31.9262 -31.9241 -31.9080
   -31.8967 -31.8966 -31.8952 -31.8901 -31.8849 -31.8848 -31.8789 -31.8732
    -8.9578  -8.2267  -8.2266  -8.2139   3.8320   3.8363   3.8364   4.8904
     5.6466   5.6468   5.6618   6.4760   6.5040   6.5043   7.1299   7.1326

          k = 0.2500 0.2525-0.5000 (  5248 PWs)   bands (ev):

   -65.1353 -65.1349 -65.1331 -65.1325 -31.9284 -31.9282 -31.9216 -31.9215
   -31.8951 -31.8949 -31.8863 -31.8862 -31.8842 -31.8840 -31.8782 -31.8780
    -8.5795  -8.5794  -8.1899  -8.1898   3.6611   3.6612   4.0266   4.0267
     5.6362   5.6362   6.5328   6.5330   6.6516   6.6517   6.8049   6.8049

          k = 0.2500-0.5051 0.0000 (  5268 PWs)   bands (ev):

   -65.1357 -65.1353 -65.1327 -65.1322 -31.9189 -31.9187 -31.9105 -31.9103
   -31.9097 -31.9096 -31.8913 -31.8911 -31.8846 -31.8846 -31.8803 -31.8803
    -8.6736  -8.6732  -8.1449  -8.1448   4.2406   4.2413   4.5479   4.5482
     4.9242   4.9251   6.3282   6.3285   6.3594   6.3599   6.8770   6.8772

          k = 0.2500-0.5051 0.2500 (  5244 PWs)   bands (ev):

   -65.1352 -65.1349 -65.1331 -65.1326 -31.9285 -31.9284 -31.9208 -31.9208
   -31.8982 -31.8980 -31.8846 -31.8844 -31.8812 -31.8812 -31.8800 -31.8800
    -8.5705  -8.5701  -8.1931  -8.1930   3.6590   3.6590   4.0108   4.0109
     5.6384   5.6384   6.5247   6.5249   6.6653   6.6657   6.7887   6.7889

          k = 0.2500-0.5051-0.5000 (  5244 PWs)   bands (ev):

   -65.1342 -65.1342 -65.1342 -65.1333 -31.9314 -31.9312 -31.9311 -31.9311
   -31.8885 -31.8883 -31.8883 -31.8882 -31.8776 -31.8774 -31.8773 -31.8771
    -8.3542  -8.3541  -8.3540  -8.3539   3.4750   3.4751   3.4752   3.4753
     6.3145   6.3146   6.3150   6.3150   6.8542   6.8543   6.8544   6.8545

          k =-0.5000 0.0000 0.0000 (  5262 PWs)   bands (ev):

   -65.1365 -65.1360 -65.1320 -65.1314 -31.9149 -31.9147 -31.9083 -31.9080
   -31.9058 -31.9058 -31.8985 -31.8985 -31.8861 -31.8858 -31.8795 -31.8793
    -8.8182  -8.8181  -8.0526  -8.0525   4.6550   4.6550   4.6794   4.6795
     4.9282   4.9285   5.7891   5.7895   6.7323   6.7323   6.7783   6.7783

          k =-0.5000 0.0000 0.2500 (  5268 PWs)   bands (ev):

   -65.1358 -65.1354 -65.1326 -65.1321 -31.9200 -31.9198 -31.9128 -31.9127
   -31.9044 -31.9041 -31.8909 -31.8908 -31.8842 -31.8840 -31.8824 -31.8823
    -8.6877  -8.6876  -8.1424  -8.1424   4.2557   4.2557   4.5794   4.5796
     4.9217   4.9217   6.3353   6.3356   6.3542   6.3542   6.8842   6.8843

          k =-0.5000 0.0000-0.5000 (  5280 PWs)   bands (ev):

   -65.1342 -65.1342 -65.1342 -65.1333 -31.9210 -31.9207 -31.9207 -31.9207
   -31.8950 -31.8948 -31.8948 -31.8945 -31.8832 -31.8830 -31.8830 -31.8830
    -8.3949  -8.3948  -8.3948  -8.3947   4.1420   4.1421   4.1421   4.1422
     5.5727   5.5728   5.5730   5.5730   6.8387   6.8389   6.8389   6.8391

          k =-0.5000 0.2525 0.0000 (  5260 PWs)   bands (ev):

[...]
    -8.5794  -8.5793  -8.1899  -8.1898   3.6611   3.6612   4.0264   4.0266
     5.6362   5.6363   6.5327   6.5330   6.6517   6.6519   6.8048   6.8048

     highest occupied level (ev):     7.4436

!    total energy              =    -608.39138875 Ry
     Harris-Foulkes estimate   =    -608.39138875 Ry
     estimated scf accuracy    <          8.2E-11 Ry

     The total energy is the sum of the following terms:

     one-electron contribution =    -307.42236774 Ry
     hartree contribution      =     169.36218937 Ry
     xc contribution           =     -97.76600677 Ry
     ewald contribution        =    -372.56520361 Ry

     convergence has been achieved in   3 iterations

     Forces acting on atoms (cartesian axes, Ry/au):

     atom    1 type  1   force =     0.00000000   -0.00002830   -0.00000061
     atom    2 type  1   force =     0.00000000   -0.00007581    0.00000204
     atom    3 type  1   force =     0.00000000    0.00011063    0.00000179
     atom    4 type  1   force =     0.00000000   -0.00007581   -0.00000213
     atom    5 type  2   force =     0.00000000   -0.00003665   -0.00000089
     atom    6 type  2   force =     0.00000000    0.00004839   -0.00000091
     atom    7 type  2   force =     0.00000000   -0.00003687    0.00000049
     atom    8 type  2   force =     0.00000000    0.00009441    0.00000021

     Total force =     0.000196     Total SCF correction =     0.000012


     Computing stress (Cartesian axis) and pressure

          total   stress  (Ry/bohr**3)                   (kbar)     P=  -94.61
  -0.00067695   0.00000000   0.00000000        -99.58      0.00      0.00
   0.00000000  -0.00057448   0.00000000          0.00    -84.51      0.00
   0.00000000   0.00000000  -0.00067792          0.00      0.00    -99.73


     number of scf cycles    =   6
     number of bfgs steps    =   5

     energy   old            =    -608.3913885577 Ry
     energy   new            =    -608.3913887530 Ry

     CASE: energy  _new < energy  _old

     new trust radius        =       0.0004275412 bohr
     new conv_thr            =            1.0E-10 Ry


ATOMIC_POSITIONS (alat)
Mg       0.000000000   0.002305999  -0.000022842
Mg       0.000000000   0.497567424   0.500023612
Mg       0.500000000   0.002519438   0.500024156
Mg       0.500000000   0.497567407  -0.000024862
O        0.500000000   0.002474682  -0.000024613
O        0.000000000   0.497534748  -0.000024712
O        0.000000000   0.002474703   0.500024676
O        0.500000000   0.497555599   0.500024586



     Writing output data file diamond.8.1251975.70.4.save
     NEW-OLD atomic charge density approx. for the potential

     Check: negative/imaginary core charge=   -0.000007    0.000000

     total cpu time spent up to now is       52.5 secs

     per-process dynamical memory:    52.1 Mb

     Self-consistent Calculation

     iteration #  1     ecut=    70.00 Ry     beta=0.70
     Davidson diagonalization with overlap
     ethr =  1.00E-06,  avg # of iterations =  2.0

     Threshold (ethr) on eigenvalues was too large:
     Diagonalizing with lowered threshold

     Davidson diagonalization with overlap
     ethr =  3.58E-11,  avg # of iterations =  3.7

     total cpu time spent up to now is       55.5 secs

     total energy              =    -608.39138880 Ry
     Harris-Foulkes estimate   =    -608.39138881 Ry
     estimated scf accuracy    <       0.00000002 Ry

     iteration #  2     ecut=    70.00 Ry     beta=0.70
     Davidson diagonalization with overlap
     ethr =  2.92E-11,  avg # of iterations =  2.0

     total cpu time spent up to now is       56.8 secs

     total energy              =    -608.39138881 Ry
     Harris-Foulkes estimate   =    -608.39138881 Ry
     estimated scf accuracy    <          2.8E-09 Ry

     iteration #  3     ecut=    70.00 Ry     beta=0.70
     Davidson diagonalization with overlap
     ethr =  4.41E-12,  avg # of iterations =  2.0

     total cpu time spent up to now is       58.0 secs

     total energy              =    -608.39138881 Ry
     Harris-Foulkes estimate   =    -608.39138881 Ry
     estimated scf accuracy    <          1.8E-10 Ry

     iteration #  4     ecut=    70.00 Ry     beta=0.70
     Davidson diagonalization with overlap
     ethr =  2.82E-13,  avg # of iterations =  3.0

     total cpu time spent up to now is       59.4 secs

     End of self-consistent calculation

          k = 0.0000 0.0000 0.0000 (  5257 PWs)   bands (ev):

   -65.1406 -65.1321 -65.1320 -65.1313 -31.9311 -31.9310 -31.9254 -31.8990
   -31.8990 -31.8953 -31.8953 -31.8910 -31.8910 -31.8760 -31.8759 -31.8674
    -9.5050  -8.1170  -8.1167  -8.0916   3.5910   3.5913   3.6229   6.1450
     6.1457   6.1545   6.1552   6.2172   6.2172   7.4209   7.4433   7.4436

          k = 0.0000 0.0000 0.2500 (  5230 PWs)   bands (ev):

   -65.1393 -65.1332 -65.1320 -65.1314 -31.9259 -31.9237 -31.9201 -31.9031
   -31.8981 -31.8967 -31.8956 -31.8936 -31.8880 -31.8840 -31.8768 -31.8706
    -9.3059  -8.3231  -8.0874  -8.0695   3.8750   3.9052   3.9208   5.6392
     5.6544   5.9565   6.0045   6.3149   6.3721   6.4386   7.2050   7.2363

          k = 0.0000 0.0000-0.5000 (  5262 PWs)   bands (ev):

   -65.1365 -65.1360 -65.1320 -65.1314 -31.9149 -31.9146 -31.9083 -31.9080
   -31.9059 -31.9058 -31.8986 -31.8985 -31.8860 -31.8858 -31.8795 -31.8792
    -8.8183  -8.8182  -8.0525  -8.0524   4.6549   4.6550   4.6792   4.6792
     4.9283   4.9286   5.7896   5.7900   6.7327   6.7328   6.7783   6.7783

          k = 0.0000 0.2525 0.0000 (  5245 PWs)   bands (ev):

   -65.1393 -65.1330 -65.1321 -65.1316 -31.9265 -31.9264 -31.9161 -31.9015
   -31.9015 -31.8950 -31.8950 -31.8919 -31.8918 -31.8782 -31.8780 -31.8780
    -9.3003  -8.2988  -8.0883  -8.0881   3.8815   3.8818   3.9375   5.6936
     5.6938   5.9403   5.9409   6.3094   6.3100   6.4166   7.2226   7.2229

          k = 0.0000 0.2525 0.2500 (  5245 PWs)   bands (ev):

   -65.1382 -65.1331 -65.1327 -65.1319 -31.9237 -31.9208 -31.9183 -31.9077
   -31.8998 -31.8987 -31.8945 -31.8917 -31.8880 -31.8862 -31.8810 -31.8715
    -9.1194  -8.2593  -8.2414  -8.0911   3.9871   3.9949   4.1560   4.8888
     5.6228   5.8376   5.8846   6.2559   6.2728   6.3861   6.9589   7.2765

          k = 0.0000 0.2525-0.5000 (  5260 PWs)   bands (ev):

   -65.1358 -65.1354 -65.1326 -65.1321 -31.9169 -31.9168 -31.9119 -31.9119
   -31.9115 -31.9112 -31.8903 -31.8900 -31.8876 -31.8875 -31.8763 -31.8761
    -8.6848  -8.6846  -8.1389  -8.1387   4.2417   4.2417   4.5560   4.5562
     4.9047   4.9047   6.3575   6.3577   6.3862   6.3863   6.8662   6.8663

          k = 0.0000-0.5051 0.0000 (  5222 PWs)   bands (ev):

   -65.1363 -65.1359 -65.1321 -65.1316 -31.9135 -31.9135 -31.9134 -31.9133
   -31.8989 -31.8988 -31.8898 -31.8897 -31.8866 -31.8866 -31.8865 -31.8864
    -8.8017  -8.8007  -8.0593  -8.0592   4.6809   4.6811   4.6825   4.6827
     4.9185   4.9191   5.7392   5.7394   6.7368   6.7373   6.7377   6.7381

          k = 0.0000-0.5051 0.2500 (  5268 PWs)   bands (ev):

   -65.1357 -65.1353 -65.1327 -65.1322 -31.9189 -31.9188 -31.9104 -31.9102
   -31.9097 -31.9096 -31.8912 -31.8910 -31.8847 -31.8846 -31.8804 -31.8803
    -8.6739  -8.6730  -8.1450  -8.1448   4.2408   4.2415   4.5480   4.5486
     4.9240   4.9255   6.3278   6.3284   6.3588   6.3599   6.8771   6.8775

          k = 0.0000-0.5051-0.5000 (  5252 PWs)   bands (ev):

   -65.1342 -65.1342 -65.1342 -65.1333 -31.9191 -31.9190 -31.9188 -31.9188
   -31.9004 -31.9002 -31.9001 -31.8999 -31.8786 -31.8784 -31.8783 -31.8782
    -8.3885  -8.3884  -8.3879  -8.3878   4.1044   4.1045   4.1046   4.1047
     5.5770   5.5770   5.5784   5.5785   6.8529   6.8531   6.8533   6.8535

          k = 0.2500 0.0000 0.0000 (  5238 PWs)   bands (ev):

   -65.1393 -65.1332 -65.1320 -65.1314 -31.9264 -31.9237 -31.9201 -31.9031
   -31.8981 -31.8968 -31.8957 -31.8936 -31.8880 -31.8840 -31.8774 -31.8708
    -9.3059  -8.3229  -8.0876  -8.0695   3.8743   3.9052   3.9210   5.6396
     5.6549   5.9558   6.0043   6.3143   6.3720   6.4384   7.2048   7.2364

          k = 0.2500 0.0000 0.2500 (  5257 PWs)   bands (ev):

   -65.1382 -65.1331 -65.1328 -65.1317 -31.9243 -31.9242 -31.9154 -31.9110
   -31.8963 -31.8928 -31.8927 -31.8927 -31.8923 -31.8922 -31.8751 -31.8749
    -9.1243  -8.2599  -8.2597  -8.0790   3.9933   3.9933   4.1773   4.8887
     5.6524   5.8467   5.8473   6.3019   6.3020   6.3537   6.9356   7.2810

          k = 0.2500 0.0000-0.5000 (  5268 PWs)   bands (ev):

   -65.1358 -65.1354 -65.1326 -65.1321 -31.9200 -31.9198 -31.9128 -31.9127
   -31.9044 -31.9041 -31.8909 -31.8908 -31.8842 -31.8840 -31.8824 -31.8822
    -8.6878  -8.6877  -8.1424  -8.1423   4.2557   4.2557   4.5795   4.5797
     4.9215   4.9216   6.3356   6.3359   6.3544   6.3545   6.8841   6.8842

          k = 0.2500 0.2525 0.0000 (  5245 PWs)   bands (ev):

   -65.1382 -65.1331 -65.1327 -65.1319 -31.9237 -31.9208 -31.9183 -31.9076
   -31.8999 -31.8987 -31.8944 -31.8917 -31.8880 -31.8862 -31.8811 -31.8714
    -9.1193  -8.2591  -8.2414  -8.0913   3.9871   3.9948   4.1558   4.8888
     5.6225   5.8379   5.8846   6.2556   6.2724   6.3864   6.9592   7.2765

          k = 0.2500 0.2525 0.2500 (  5250 PWs)   bands (ev):

   -65.1373 -65.1331 -65.1331 -65.1324 -31.9264 -31.9262 -31.9241 -31.9080
   -31.8967 -31.8966 -31.8952 -31.8901 -31.8849 -31.8848 -31.8789 -31.8732
    -8.9578  -8.2267  -8.2266  -8.2139   3.8320   3.8363   3.8364   4.8904
     5.6466   5.6468   5.6618   6.4760   6.5040   6.5043   7.1299   7.1326

          k = 0.2500 0.2525-0.5000 (  5248 PWs)   bands (ev):

   -65.1353 -65.1349 -65.1331 -65.1325 -31.9284 -31.9282 -31.9216 -31.9215
   -31.8951 -31.8949 -31.8863 -31.8862 -31.8842 -31.8840 -31.8782 -31.8780
    -8.5795  -8.5794  -8.1899  -8.1898   3.6612   3.6612   4.0266   4.0267
     5.6362   5.6362   6.5328   6.5330   6.6516   6.6517   6.8049   6.8050

          k = 0.2500-0.5051 0.0000 (  5268 PWs)   bands (ev):

   -65.1357 -65.1353 -65.1327 -65.1322 -31.9188 -31.9187 -31.9105 -31.9103
   -31.9097 -31.9096 -31.8912 -31.8911 -31.8846 -31.8846 -31.8803 -31.8803
    -8.6738  -8.6730  -8.1450  -8.1448   4.2406   4.2413   4.5478   4.5483
     4.9239   4.9254   6.3281   6.3286   6.3591   6.3602   6.8770   6.8773

          k = 0.2500-0.5051 0.2500 (  5244 PWs)   bands (ev):

   -65.1352 -65.1349 -65.1331 -65.1326 -31.9285 -31.9284 -31.9208 -31.9208
   -31.8982 -31.8980 -31.8846 -31.8844 -31.8812 -31.8812 -31.8800 -31.8800
    -8.5707  -8.5699  -8.1931  -8.1930   3.6590   3.6590   4.0106   4.0112
     5.6384   5.6384   6.5247   6.5249   6.6653   6.6657   6.7885   6.7891

          k = 0.2500-0.5051-0.5000 (  5244 PWs)   bands (ev):

   -65.1342 -65.1342 -65.1342 -65.1333 -31.9314 -31.9312 -31.9311 -31.9311
   -31.8885 -31.8883 -31.8883 -31.8882 -31.8776 -31.8774 -31.8773 -31.8771
    -8.3543  -8.3542  -8.3539  -8.3538   3.4750   3.4751   3.4753   3.4753
     6.3143   6.3144   6.3152   6.3152   6.8542   6.8543   6.8544   6.8546

          k =-0.5000 0.0000 0.0000 (  5262 PWs)   bands (ev):

   -65.1365 -65.1360 -65.1320 -65.1314 -31.9149 -31.9147 -31.9083 -31.9080
   -31.9058 -31.9058 -31.8985 -31.8985 -31.8861 -31.8858 -31.8795 -31.8792
    -8.8182  -8.8181  -8.0526  -8.0525   4.6550   4.6550   4.6794   4.6795
     4.9282   4.9285   5.7891   5.7895   6.7323   6.7324   6.7783   6.7784

          k =-0.5000 0.0000 0.2500 (  5268 PWs)   bands (ev):

   -65.1358 -65.1354 -65.1326 -65.1321 -31.9200 -31.9199 -31.9128 -31.9127
   -31.9044 -31.9041 -31.8909 -31.8908 -31.8842 -31.8840 -31.8824 -31.8823
    -8.6877  -8.6876  -8.1425  -8.1423   4.2557   4.2557   4.5794   4.5796
     4.9217   4.9218   6.3353   6.3356   6.3541   6.3542   6.8843   6.8843

          k =-0.5000 0.0000-0.5000 (  5280 PWs)   bands (ev):

   -65.1342 -65.1342 -65.1342 -65.1333 -31.9210 -31.9207 -31.9207 -31.9207
   -31.8950 -31.8948 -31.8948 -31.8945 -31.8832 -31.8830 -31.8830 -31.8830
    -8.3949  -8.3947  -8.3947  -8.3947   4.1420   4.1421   4.1421   4.1422
     5.5727   5.5728   5.5730   5.5730   6.8387   6.8389   6.8389   6.8391

          k =-0.5000 0.2525 0.0000 (  5260 PWs)   bands (ev):

   -65.1358 -65.1354 -65.1326 -65.1321 -31.9169 -31.9168 -31.9118 -31.9118
   -31.9116 -31.9113 -31.8903 -31.8901 -31.8875 -31.8874 -31.8763 -31.8761
    -8.6846  -8.6845  -8.1389  -8.1388   4.2415   4.2416   4.5556   4.5559
     4.9047   4.9048   6.3574   6.3577   6.3863   6.3863   6.8662   6.8662

          k =-0.5000 0.2525 0.2500 (  5248 PWs)   bands (ev):

   -65.1353 -65.1349 -65.1331 -65.1325 -31.9284 -31.9282 -31.9216 -31.9215
   -31.8951 -31.8949 -31.8862 -31.8862 -31.8842 -31.8840 -31.8782 -31.8780
    -8.5794  -8.5793  -8.1899  -8.1898   3.6611   3.6612   4.0264   4.0266
     5.6362   5.6363   6.5327   6.5330   6.6517   6.6519   6.8048   6.8048

          k =-0.5000 0.2525-0.5000 (  5260 PWs)   bands (ev):

   -65.1342 -65.1342 -65.1342 -65.1333 -31.9317 -31.9314 -31.9314 -31.9314
   -31.8836 -31.8834 -31.8834 -31.8832 -31.8831 -31.8829 -31.8828 -31.8828
    -8.3576  -8.3574  -8.3574  -8.3574   3.4875   3.4877   3.4877   3.4877
     6.3257   6.3257   6.3259   6.3259   6.8399   6.8401   6.8401   6.8403

          k =-0.5000-0.5051 0.0000 (  5252 PWs)   bands (ev):

   -65.1342 -65.1342 -65.1342 -65.1333 -31.9191 -31.9189 -31.9188 -31.9187
   -31.9004 -31.9003 -31.9002 -31.9000 -31.8786 -31.8784 -31.8783 -31.8782
    -8.3884  -8.3883  -8.3879  -8.3878   4.1040   4.1042   4.1042   4.1043
     5.5771   5.5771   5.5784   5.5785   6.8531   6.8532   6.8535   6.8537

          k =-0.5000-0.5051 0.2500 (  5244 PWs)   bands (ev):

   -65.1342 -65.1342 -65.1342 -65.1333 -31.9314 -31.9312 -31.9311 -31.9311
   -31.8885 -31.8883 -31.8883 -31.8882 -31.8775 -31.8774 -31.8773 -31.8771
    -8.3543  -8.3542  -8.3539  -8.3538   3.4748   3.4750   3.4752   3.4752
     6.3142   6.3143   6.3150   6.3151   6.8543   6.8545   6.8546   6.8548

          k =-0.5000-0.5051-0.5000 (  5296 PWs)   bands (ev):

   -65.1342 -65.1342 -65.1342 -65.1333 -31.9399 -31.9396 -31.9396 -31.9395
   -31.8831 -31.8829 -31.8829 -31.8829 -31.8773 -31.8771 -31.8771 -31.8768
    -8.3197  -8.3195  -8.3195  -8.3195   3.0658   3.0659   3.0659   3.0659
     6.8410   6.8412   6.8412   6.8414   6.8596   6.8597   6.8598   6.8598

          k = 0.0000 0.2525-0.2500 (  5245 PWs)   bands (ev):

   -65.1382 -65.1331 -65.1327 -65.1319 -31.9237 -31.9208 -31.9183 -31.9077
   -31.8998 -31.8987 -31.8945 -31.8917 -31.8880 -31.8862 -31.8810 -31.8715
    -9.1194  -8.2593  -8.2414  -8.0911   3.9871   3.9949   4.1560   4.8888
     5.6228   5.8376   5.8846   6.2559   6.2728   6.3861   6.9589   7.2765

          k =-0.2500 0.2525-0.2500 (  5250 PWs)   bands (ev):

   -65.1373 -65.1331 -65.1331 -65.1324 -31.9264 -31.9262 -31.9241 -31.9080
   -31.8967 -31.8966 -31.8952 -31.8901 -31.8849 -31.8848 -31.8789 -31.8732
    -8.9578  -8.2267  -8.2266  -8.2139   3.8320   3.8363   3.8364   4.8904
     5.6466   5.6468   5.6618   6.4760   6.5040   6.5043   7.1299   7.1326

          k = 0.5000 0.2525-0.2500 (  5248 PWs)   bands (ev):

   -65.1353 -65.1349 -65.1331 -65.1325 -31.9284 -31.9282 -31.9216 -31.9215
   -31.8951 -31.8949 -31.8862 -31.8862 -31.8842 -31.8840 -31.8782 -31.8780
    -8.5794  -8.5793  -8.1899  -8.1898   3.6611   3.6612   4.0264   4.0266
     5.6362   5.6363   6.5327   6.5330   6.6517   6.6519   6.8048   6.8048

     highest occupied level (ev):     7.4436

!    total energy              =    -608.39138881 Ry
     Harris-Foulkes estimate   =    -608.39138881 Ry
     estimated scf accuracy    <          1.0E-10 Ry

     The total energy is the sum of the following terms:

     one-electron contribution =    -307.42236338 Ry
     hartree contribution      =     169.36219267 Ry
     xc contribution           =     -97.76600944 Ry
     ewald contribution        =    -372.56520866 Ry

     convergence has been achieved in   4 iterations

     Forces acting on atoms (cartesian axes, Ry/au):

     atom    1 type  1   force =     0.00000000   -0.00006937    0.00000056
     atom    2 type  1   force =     0.00000000    0.00002180    0.00000029
     atom    3 type  1   force =     0.00000000   -0.00000116    0.00000013
     atom    4 type  1   force =     0.00000000    0.00002181   -0.00000031
     atom    5 type  2   force =     0.00000000    0.00002278   -0.00000017
     atom    6 type  2   force =     0.00000000   -0.00003038   -0.00000016
     atom    7 type  2   force =     0.00000000    0.00002276   -0.00000001
     atom    8 type  2   force =     0.00000000    0.00001177   -0.00000032

     Total force =     0.000089     Total SCF correction =     0.000012
     SCF correction compared to forces is large: reduce conv_thr to get better values


     Computing stress (Cartesian axis) and pressure

          total   stress  (Ry/bohr**3)                   (kbar)     P=  -94.60
  -0.00067694   0.00000000   0.00000000        -99.58      0.00      0.00
   0.00000000  -0.00057447   0.00000000          0.00    -84.51      0.00
   0.00000000   0.00000000  -0.00067791          0.00      0.00    -99.72


     bfgs converged in   7 scf cycles and   6 bfgs steps
     (criteria: energy <  1.0E-05 Ry, force <  1.0E-04 Ry/Bohr)

     End of BFGS Geometry Optimization

     Final energy   =    -608.3913888064 Ry
Begin final coordinates

ATOMIC_POSITIONS (alat)
Mg       0.000000000   0.002305999  -0.000022842
Mg       0.000000000   0.497567424   0.500023612
Mg       0.500000000   0.002519438   0.500024156
Mg       0.500000000   0.497567407  -0.000024862
O        0.500000000   0.002474682  -0.000024613
O        0.000000000   0.497534748  -0.000024712
O        0.000000000   0.002474703   0.500024676
O        0.500000000   0.497555599   0.500024586
End final coordinates



     Writing output data file diamond.8.1251975.70.4.save
 
     init_run     :      0.54s CPU      0.57s WALL (       1 calls)
     electrons    :     52.81s CPU     54.26s WALL (       7 calls)
     update_pot   :      0.66s CPU      0.67s WALL (       6 calls)
     forces       :      1.16s CPU      1.16s WALL (       7 calls)
     stress       :      2.68s CPU      2.69s WALL (       7 calls)

     Called by init_run:
     wfcinit      :      0.42s CPU      0.44s WALL (       1 calls)
     potinit      :      0.05s CPU      0.05s WALL (       1 calls)

     Called by electrons:
     c_bands      :     46.23s CPU     47.52s WALL (      40 calls)
     sum_band     :      6.33s CPU      6.47s WALL (      40 calls)
     v_of_rho     :      0.22s CPU      0.22s WALL (      42 calls)
     mix_rho      :      0.02s CPU      0.03s WALL (      40 calls)

     Called by c_bands:
     init_us_2    :      0.68s CPU      0.73s WALL (    2850 calls)
     cegterg      :     43.15s CPU     44.32s WALL (    1200 calls)

     Called by sum_band:

     Called by *egterg:
     h_psi        :     31.41s CPU     32.15s WALL (    4038 calls)
     g_psi        :      0.25s CPU      0.25s WALL (    2808 calls)
     cdiaghg      :      6.21s CPU      6.21s WALL (    3678 calls)

     Called by h_psi:
     h_psi:pot    :     31.28s CPU     31.98s WALL (    4038 calls)
     h_psi:calbec :      1.80s CPU      1.81s WALL (    4038 calls)
     vloc_psi     :     27.98s CPU     28.64s WALL (    4038 calls)
     add_vuspsi   :      1.50s CPU      1.51s WALL (    4038 calls)

     General routines
     calbec       :      2.40s CPU      2.40s WALL (    5088 calls)
     fft          :      0.17s CPU      0.17s WALL (     646 calls)
     fftw         :     31.53s CPU     31.24s WALL (  245010 calls)
     davcio       :      0.00s CPU      0.00s WALL (      30 calls)
 
     Parallel routines
     fft_scatter  :      8.08s CPU      7.98s WALL (  245656 calls)
 
     PWSCF        :  0m58.36s CPU     1m 0.02s WALL

 
   This run was terminated on:  15: 5:24  22Apr2018            

=------------------------------------------------------------------------------=
   JOB DONE.
=------------------------------------------------------------------------------=
