
     Program PWSCF v.6.1 (svn rev. 13369) starts on 22Apr2018 at 14:57:23 

     This program is part of the open-source Quantum ESPRESSO suite
     for quantum simulation of materials; please cite
         "P. Giannozzi et al., J. Phys.:Condens. Matter 21 395502 (2009);
          URL http://www.quantum-espresso.org", 
     in publications or presentations arising from this work. More details at
     http://www.quantum-espresso.org/quote

     Parallel version (MPI), running on     8 processors
     R & G space division:  proc/nbgrp/npool/nimage =       8
     Waiting for input...
     Reading input from standard input
Warning: card       &CELL ignored
Warning: card       CELL_DYNAMICS = 'BFGS' ignored
Warning: card       PRESS = 0.0D0 ignored
Warning: card       PRESS_CONV_THR = 0.01D0 ignored
Warning: card       / ignored

     Current dimensions of program PWSCF are:
     Max number of different atomic species (ntypx) = 10
     Max number of k-points (npk) =  40000
     Max angular momentum in pseudopotentials (lmaxx) =  3

     Subspace diagonalization in iterative solution of the eigenvalue problem:
     a serial algorithm will be used

 
     Parallelization info
     --------------------
     sticks:   dense  smooth     PW     G-vecs:    dense   smooth      PW
     Min         181     181     52                 5211     5211     824
     Max         182     182     53                 5214     5214     829
     Sum        1453    1453    421                41699    41699    6619
 


     bravais-lattice index     =            8
     lattice parameter (alat)  =       8.0792  a.u.
     unit-cell volume          =     525.1126 (a.u.)^3
     number of atoms/cell      =            8
     number of atomic types    =            2
     number of electrons       =        64.00
     number of Kohn-Sham states=           32
     kinetic-energy cutoff     =      70.0000  Ry
     charge density cutoff     =     280.0000  Ry
     convergence threshold     =      1.0E-08
     mixing beta               =       0.7000
     number of iterations used =            8  plain     mixing
     Exchange-correlation      = PBE ( 1  4  3  4 0 0)
     nstep                     =           50


     celldm(1)=   8.079230  celldm(2)=   0.995714  celldm(3)=   1.000018
     celldm(4)=   0.000000  celldm(5)=   0.000000  celldm(6)=   0.000000

     crystal axes: (cart. coord. in units of alat)
               a(1) = (   1.000000   0.000000   0.000000 )  
               a(2) = (   0.000000   0.995714   0.000000 )  
               a(3) = (   0.000000   0.000000   1.000018 )  

     reciprocal axes: (cart. coord. in units 2 pi/alat)
               b(1) = (  1.000000  0.000000  0.000000 )  
               b(2) = (  0.000000  1.004304  0.000000 )  
               b(3) = (  0.000000  0.000000  0.999982 )  


     PseudoPot. # 1 for Mg read from file:
     ../pseudo/Mg.pbe.UPF
     MD5 check sum: 4c04d8c6e0476e83eaecaf72fa8acc4d
     Pseudo is Norm-conserving, Zval = 10.0
     Generated using ONCVPSP code by D. R. Hamann
     Using radial grid of 1510 points,  4 beta functions with: 
                l(1) =   0
                l(2) =   0
                l(3) =   1
                l(4) =   1

     PseudoPot. # 2 for O  read from file:
     ../pseudo/O.pbe.UPF
     MD5 check sum: 3e3f909f7470e8921608ab6b1f57bbae
     Pseudo is Norm-conserving + core correction, Zval =  6.0
     Generated using ONCVPSP code by D. R. Hamann
     Using radial grid of  936 points,  5 beta functions with: 
                l(1) =   0
                l(2) =   0
                l(3) =   1
                l(4) =   1
                l(5) =   2

     atomic species   valence    mass     pseudopotential
        Mg            10.00    24.30500     Mg( 1.00)
        O              6.00    15.99940     O ( 1.00)

      2 Sym. Ops. (no inversion) found



   Cartesian axes

     site n.     atom                  positions (alat units)
         1           Mg  tau(   1) = (   0.0000000   0.0000000   0.0000000  )
         2           Mg  tau(   2) = (   0.0000000   0.5000000   0.5000000  )
         3           Mg  tau(   3) = (   0.5000000   0.0000000   0.5000000  )
         4           Mg  tau(   4) = (   0.5000000   0.5000000   0.0000000  )
         5           O   tau(   5) = (   0.5000000   0.0000000   0.0000000  )
         6           O   tau(   6) = (   0.0000000   0.5000000   0.0000000  )
         7           O   tau(   7) = (   0.0000000   0.0000000   0.5000000  )
         8           O   tau(   8) = (   0.5000000   0.5000000   0.5000000  )

     number of k points=    30
                       cart. coord. in units 2pi/alat
        k(    1) = (   0.0000000   0.0000000   0.0000000), wk =   0.0312500
        k(    2) = (   0.0000000   0.0000000   0.2499954), wk =   0.0625000
        k(    3) = (   0.0000000   0.0000000  -0.4999908), wk =   0.0312500
        k(    4) = (   0.0000000   0.2510761   0.0000000), wk =   0.0625000
        k(    5) = (   0.0000000   0.2510761   0.2499954), wk =   0.0625000
        k(    6) = (   0.0000000   0.2510761  -0.4999908), wk =   0.0625000
        k(    7) = (   0.0000000  -0.5021522   0.0000000), wk =   0.0312500
        k(    8) = (   0.0000000  -0.5021522   0.2499954), wk =   0.0625000
        k(    9) = (   0.0000000  -0.5021522  -0.4999908), wk =   0.0312500
        k(   10) = (   0.2500000   0.0000000   0.0000000), wk =   0.0625000
        k(   11) = (   0.2500000   0.0000000   0.2499954), wk =   0.1250000
        k(   12) = (   0.2500000   0.0000000  -0.4999908), wk =   0.0625000
        k(   13) = (   0.2500000   0.2510761   0.0000000), wk =   0.1250000
        k(   14) = (   0.2500000   0.2510761   0.2499954), wk =   0.1250000
        k(   15) = (   0.2500000   0.2510761  -0.4999908), wk =   0.1250000
        k(   16) = (   0.2500000  -0.5021522   0.0000000), wk =   0.0625000
        k(   17) = (   0.2500000  -0.5021522   0.2499954), wk =   0.1250000
        k(   18) = (   0.2500000  -0.5021522  -0.4999908), wk =   0.0625000
        k(   19) = (  -0.5000000   0.0000000   0.0000000), wk =   0.0312500
        k(   20) = (  -0.5000000   0.0000000   0.2499954), wk =   0.0625000
        k(   21) = (  -0.5000000   0.0000000  -0.4999908), wk =   0.0312500
        k(   22) = (  -0.5000000   0.2510761   0.0000000), wk =   0.0625000
        k(   23) = (  -0.5000000   0.2510761   0.2499954), wk =   0.0625000
        k(   24) = (  -0.5000000   0.2510761  -0.4999908), wk =   0.0625000
        k(   25) = (  -0.5000000  -0.5021522   0.0000000), wk =   0.0312500
        k(   26) = (  -0.5000000  -0.5021522   0.2499954), wk =   0.0625000
        k(   27) = (  -0.5000000  -0.5021522  -0.4999908), wk =   0.0312500
        k(   28) = (   0.0000000   0.2510761  -0.2499954), wk =   0.0625000
        k(   29) = (  -0.2500000   0.2510761  -0.2499954), wk =   0.1250000
        k(   30) = (   0.5000000   0.2510761  -0.2499954), wk =   0.0625000

     Dense  grid:    41699 G-vectors     FFT dimensions: (  45,  45,  45)

     Estimated max dynamical RAM per process >      15.47MB

     Estimated total allocated dynamical RAM >     123.73MB

     Check: negative/imaginary core charge=   -0.000007    0.000000

     Initial potential from superposition of free atoms

     starting charge   63.99678, renormalised to   64.00000
     Starting wfc are   36 randomized atomic wfcs

     total cpu time spent up to now is        0.7 secs

     per-process dynamical memory:    51.2 Mb

     Self-consistent Calculation

     iteration #  1     ecut=    70.00 Ry     beta=0.70
     Davidson diagonalization with overlap
     ethr =  1.00E-02,  avg # of iterations =  2.0

     total cpu time spent up to now is        2.0 secs

     total energy              =    -607.71555312 Ry
     Harris-Foulkes estimate   =    -608.84338562 Ry
     estimated scf accuracy    <       1.56645867 Ry

     iteration #  2     ecut=    70.00 Ry     beta=0.70
     Davidson diagonalization with overlap
     ethr =  2.45E-03,  avg # of iterations =  2.9

     total cpu time spent up to now is        3.3 secs

     total energy              =    -608.10004501 Ry
     Harris-Foulkes estimate   =    -608.80975945 Ry
     estimated scf accuracy    <       1.47756132 Ry

     iteration #  3     ecut=    70.00 Ry     beta=0.70
     Davidson diagonalization with overlap
     ethr =  2.31E-03,  avg # of iterations =  2.0

     total cpu time spent up to now is        4.6 secs

     total energy              =    -608.39084939 Ry
     Harris-Foulkes estimate   =    -608.39153591 Ry
     estimated scf accuracy    <       0.00686182 Ry

     iteration #  4     ecut=    70.00 Ry     beta=0.70
     Davidson diagonalization with overlap
     ethr =  1.07E-05,  avg # of iterations =  2.0

     total cpu time spent up to now is        5.8 secs

     total energy              =    -608.39236608 Ry
     Harris-Foulkes estimate   =    -608.39241282 Ry
     estimated scf accuracy    <       0.00011544 Ry

     iteration #  5     ecut=    70.00 Ry     beta=0.70
     Davidson diagonalization with overlap
     ethr =  1.80E-07,  avg # of iterations =  1.6

     total cpu time spent up to now is        6.9 secs

     total energy              =    -608.39237365 Ry
     Harris-Foulkes estimate   =    -608.39237224 Ry
     estimated scf accuracy    <       0.00001046 Ry

     iteration #  6     ecut=    70.00 Ry     beta=0.70
     Davidson diagonalization with overlap
     ethr =  1.63E-08,  avg # of iterations =  2.0

     total cpu time spent up to now is        8.3 secs

     total energy              =    -608.39237521 Ry
     Harris-Foulkes estimate   =    -608.39237562 Ry
     estimated scf accuracy    <       0.00000098 Ry

     iteration #  7     ecut=    70.00 Ry     beta=0.70
     Davidson diagonalization with overlap
     ethr =  1.54E-09,  avg # of iterations =  2.0

     total cpu time spent up to now is        9.5 secs

     total energy              =    -608.39237522 Ry
     Harris-Foulkes estimate   =    -608.39237531 Ry
     estimated scf accuracy    <       0.00000023 Ry

     iteration #  8     ecut=    70.00 Ry     beta=0.70
     Davidson diagonalization with overlap
     ethr =  3.58E-10,  avg # of iterations =  2.0

     total cpu time spent up to now is       10.6 secs

     total energy              =    -608.39237522 Ry
     Harris-Foulkes estimate   =    -608.39237525 Ry
     estimated scf accuracy    <       0.00000005 Ry

     iteration #  9     ecut=    70.00 Ry     beta=0.70
     Davidson diagonalization with overlap
     ethr =  7.49E-11,  avg # of iterations =  2.0

     total cpu time spent up to now is       12.0 secs

     End of self-consistent calculation

          k = 0.0000 0.0000 0.0000 (  5185 PWs)   bands (ev):

   -64.9664 -64.9574 -64.9573 -64.9565 -31.7600 -31.7600 -31.7579 -31.7244
   -31.7244 -31.7234 -31.7234 -31.7218 -31.7217 -31.6980 -31.6979 -31.6956
    -9.4254  -8.0017  -8.0016  -7.9905   3.6856   3.6856   3.6997   6.2789
     6.2790   6.2826   6.2830   6.3095   6.3096   7.5641   7.5744   7.5745

          k = 0.0000 0.0000 0.2500 (  5190 PWs)   bands (ev):

   -64.9650 -64.9585 -64.9573 -64.9567 -31.7543 -31.7517 -31.7515 -31.7298
   -31.7265 -31.7248 -31.7242 -31.7199 -31.7175 -31.7108 -31.7028 -31.7005
    -9.2210  -8.2128  -7.9727  -7.9648   3.9734   3.9866   4.0191   5.7631
     5.7702   6.0777   6.0984   6.4446   6.4692   6.5632   7.3443   7.3578

          k = 0.0000 0.0000-0.5000 (  5198 PWs)   bands (ev):

   -64.9620 -64.9615 -64.9573 -64.9567 -31.7426 -31.7424 -31.7384 -31.7382
   -31.7320 -31.7320 -31.7257 -31.7256 -31.7113 -31.7110 -31.7092 -31.7090
    -8.7206  -8.7204  -7.9413  -7.9412   4.7632   4.7633   4.7752   4.7753
     5.0388   5.0391   5.8928   5.8932   6.8667   6.8669   6.8865   6.8867

          k = 0.0000 0.2511 0.0000 (  5185 PWs)   bands (ev):

   -64.9650 -64.9584 -64.9574 -64.9567 -31.7541 -31.7541 -31.7481 -31.7291
   -31.7291 -31.7225 -31.7225 -31.7207 -31.7207 -31.7068 -31.7027 -31.7027
    -9.2186  -8.2020  -7.9732  -7.9730   3.9762   3.9762   4.0272   5.7868
     5.7868   6.0711   6.0715   6.4419   6.4420   6.5546   7.3522   7.3522

          k = 0.0000 0.2511 0.2500 (  5199 PWs)   bands (ev):

   -64.9639 -64.9585 -64.9581 -64.9571 -31.7513 -31.7496 -31.7490 -31.7365
   -31.7261 -31.7254 -31.7226 -31.7181 -31.7173 -31.7158 -31.7071 -31.6995
    -9.0325  -8.1485  -8.1405  -7.9772   4.0858   4.0896   4.2535   4.9925
     5.7500   5.9606   5.9815   6.3856   6.3930   6.4985   7.0804   7.4063

          k = 0.0000 0.2511-0.5000 (  5192 PWs)   bands (ev):

   -64.9613 -64.9609 -64.9580 -64.9574 -31.7460 -31.7459 -31.7401 -31.7401
   -31.7376 -31.7374 -31.7166 -31.7163 -31.7145 -31.7144 -31.7053 -31.7051
    -8.5855  -8.5853  -8.0299  -8.0298   4.3421   4.3422   4.6666   4.6668
     5.0134   5.0135   6.4654   6.4657   6.4936   6.4937   6.9957   6.9958

          k = 0.0000-0.5022 0.0000 (  5190 PWs)   bands (ev):

   -64.9620 -64.9614 -64.9574 -64.9568 -31.7427 -31.7427 -31.7417 -31.7417
   -31.7305 -31.7292 -31.7206 -31.7205 -31.7120 -31.7120 -31.7113 -31.7112
    -8.7246  -8.7015  -7.9443  -7.9442   4.7567   4.7568   4.7930   4.7931
     5.0276   5.0421   5.8720   5.8724   6.8578   6.8578   6.8800   6.8801

          k = 0.0000-0.5022 0.2500 (  5188 PWs)   bands (ev):

   -64.9613 -64.9608 -64.9580 -64.9574 -31.7469 -31.7462 -31.7393 -31.7386
   -31.7378 -31.7367 -31.7172 -31.7163 -31.7135 -31.7130 -31.7067 -31.7065
    -8.5906  -8.5703  -8.0346  -8.0306   4.3347   4.3490   4.6555   4.6716
     5.0045   5.0397   6.4466   6.4596   6.4691   6.4950   6.9970   7.0037

          k = 0.0000-0.5022-0.5000 (  5224 PWs)   bands (ev):

   -64.9597 -64.9596 -64.9596 -64.9586 -31.7483 -31.7481 -31.7477 -31.7476
   -31.7284 -31.7282 -31.7275 -31.7272 -31.7071 -31.7069 -31.7065 -31.7064
    -8.2909  -8.2907  -8.2781  -8.2779   4.2086   4.2087   4.2147   4.2149
     5.6692   5.6693   5.7007   5.7009   6.9671   6.9673   6.9777   6.9779

          k = 0.2500 0.0000 0.0000 (  5190 PWs)   bands (ev):

   -64.9650 -64.9585 -64.9573 -64.9567 -31.7543 -31.7517 -31.7515 -31.7298
   -31.7265 -31.7248 -31.7242 -31.7199 -31.7175 -31.7108 -31.7028 -31.7005
    -9.2210  -8.2127  -7.9728  -7.9648   3.9733   3.9866   4.0191   5.7632
     5.7703   6.0776   6.0984   6.4444   6.4692   6.5632   7.3443   7.3579

          k = 0.2500 0.0000 0.2500 (  5193 PWs)   bands (ev):

   -64.9639 -64.9585 -64.9581 -64.9570 -31.7513 -31.7511 -31.7471 -31.7379
   -31.7234 -31.7227 -31.7226 -31.7192 -31.7178 -31.7176 -31.7047 -31.7010
    -9.0346  -8.1487  -8.1486  -7.9719   4.0885   4.0885   4.2634   4.9922
     5.7628   5.9653   5.9656   6.4057   6.4057   6.4839   7.0705   7.4081

          k = 0.2500 0.0000-0.5000 (  5194 PWs)   bands (ev):

   -64.9613 -64.9609 -64.9580 -64.9574 -31.7476 -31.7474 -31.7406 -31.7405
   -31.7351 -31.7349 -31.7157 -31.7156 -31.7138 -31.7135 -31.7074 -31.7072
    -8.5868  -8.5866  -8.0315  -8.0314   4.3478   4.3479   4.6766   4.6768
     5.0210   5.0212   6.4545   6.4547   6.4819   6.4820   7.0032   7.0033

          k = 0.2500 0.2511 0.0000 (  5199 PWs)   bands (ev):

   -64.9639 -64.9585 -64.9581 -64.9571 -31.7513 -31.7496 -31.7490 -31.7365
   -31.7261 -31.7254 -31.7226 -31.7181 -31.7173 -31.7158 -31.7071 -31.6995
    -9.0325  -8.1484  -8.1405  -7.9772   4.0858   4.0896   4.2534   4.9925
     5.7500   5.9607   5.9814   6.3855   6.3929   6.4985   7.0804   7.4063

          k = 0.2500 0.2511 0.2500 (  5189 PWs)   bands (ev):

   -64.9629 -64.9585 -64.9584 -64.9577 -31.7550 -31.7549 -31.7534 -31.7360
   -31.7239 -31.7238 -31.7231 -31.7154 -31.7139 -31.7139 -31.7038 -31.7014
    -8.8662  -8.1156  -8.1155  -8.1098   3.9277   3.9293   3.9293   5.0031
     5.7596   5.7598   5.7664   6.6062   6.6182   6.6184   7.2577   7.2592

          k = 0.2500 0.2511-0.5000 (  5170 PWs)   bands (ev):

   -64.9608 -64.9604 -64.9585 -64.9578 -31.7571 -31.7569 -31.7504 -31.7503
   -31.7225 -31.7222 -31.7119 -31.7118 -31.7096 -31.7095 -31.7073 -31.7071
    -8.4773  -8.4771  -8.0806  -8.0804   3.7521   3.7522   4.1237   4.1239
     5.7466   5.7467   6.6504   6.6507   6.7750   6.7751   6.9247   6.9248

          k = 0.2500-0.5022 0.0000 (  5188 PWs)   bands (ev):

   -64.9613 -64.9608 -64.9580 -64.9574 -31.7469 -31.7462 -31.7393 -31.7386
   -31.7378 -31.7367 -31.7173 -31.7163 -31.7135 -31.7130 -31.7067 -31.7065
    -8.5906  -8.5703  -8.0346  -8.0306   4.3347   4.3489   4.6555   4.6716
     5.0045   5.0397   6.4466   6.4597   6.4692   6.4950   6.9969   7.0036

          k = 0.2500-0.5022 0.2500 (  5174 PWs)   bands (ev):

   -64.9608 -64.9603 -64.9585 -64.9579 -31.7572 -31.7570 -31.7502 -31.7500
   -31.7236 -31.7234 -31.7103 -31.7101 -31.7101 -31.7097 -31.7082 -31.7079
    -8.4818  -8.4645  -8.0820  -8.0819   3.7512   3.7512   4.1087   4.1255
     5.7472   5.7473   6.6472   6.6475   6.7773   6.7845   6.9094   6.9255

          k = 0.2500-0.5022-0.5000 (  5200 PWs)   bands (ev):

   -64.9597 -64.9596 -64.9596 -64.9586 -31.7609 -31.7606 -31.7606 -31.7605
   -31.7151 -31.7149 -31.7147 -31.7145 -31.7061 -31.7060 -31.7057 -31.7056
    -8.2531  -8.2530  -8.2439  -8.2438   3.5645   3.5646   3.5730   3.5731
     6.4242   6.4243   6.4425   6.4426   6.9697   6.9699   6.9772   6.9774

          k =-0.5000 0.0000 0.0000 (  5198 PWs)   bands (ev):

   -64.9620 -64.9615 -64.9573 -64.9567 -31.7426 -31.7424 -31.7384 -31.7382
   -31.7320 -31.7320 -31.7257 -31.7256 -31.7113 -31.7110 -31.7092 -31.7090
    -8.7205  -8.7204  -7.9414  -7.9412   4.7632   4.7633   4.7753   4.7753
     5.0388   5.0391   5.8927   5.8931   6.8667   6.8668   6.8866   6.8866

          k =-0.5000 0.0000 0.2500 (  5194 PWs)   bands (ev):

   -64.9613 -64.9609 -64.9580 -64.9574 -31.7476 -31.7474 -31.7406 -31.7405
   -31.7351 -31.7349 -31.7157 -31.7156 -31.7138 -31.7135 -31.7074 -31.7072
    -8.5868  -8.5866  -8.0315  -8.0314   4.3479   4.3479   4.6766   4.6768
     5.0211   5.0211   6.4544   6.4547   6.4819   6.4820   7.0033   7.0033

          k =-0.5000 0.0000-0.5000 (  5248 PWs)   bands (ev):

   -64.9596 -64.9596 -64.9596 -64.9586 -31.7495 -31.7493 -31.7492 -31.7492
   -31.7258 -31.7256 -31.7256 -31.7253 -31.7088 -31.7086 -31.7085 -31.7085
    -8.2876  -8.2873  -8.2873  -8.2873   4.2274   4.2275   4.2275   4.2277
     5.6832   5.6833   5.6836   5.6836   6.9660   6.9661   6.9661   6.9663

          k =-0.5000 0.2511 0.0000 (  5192 PWs)   bands (ev):

   -64.9613 -64.9609 -64.9580 -64.9574 -31.7460 -31.7459 -31.7401 -31.7401
   -31.7376 -31.7374 -31.7166 -31.7163 -31.7145 -31.7144 -31.7053 -31.7051
    -8.5855  -8.5853  -8.0299  -8.0298   4.3421   4.3421   4.6666   4.6668
     5.0134   5.0135   6.4654   6.4657   6.4936   6.4937   6.9957   6.9958

          k =-0.5000 0.2511 0.2500 (  5170 PWs)   bands (ev):

   -64.9608 -64.9604 -64.9585 -64.9578 -31.7571 -31.7569 -31.7504 -31.7503
   -31.7225 -31.7223 -31.7119 -31.7118 -31.7096 -31.7095 -31.7073 -31.7071
    -8.4772  -8.4771  -8.0806  -8.0804   3.7521   3.7522   4.1237   4.1238
     5.7466   5.7467   6.6504   6.6507   6.7750   6.7751   6.9247   6.9247

          k =-0.5000 0.2511-0.5000 (  5208 PWs)   bands (ev):

   -64.9596 -64.9596 -64.9596 -64.9586 -31.7613 -31.7610 -31.7610 -31.7610
   -31.7129 -31.7127 -31.7127 -31.7125 -31.7082 -31.7080 -31.7079 -31.7079
    -8.2501  -8.2499  -8.2499  -8.2499   3.5741   3.5742   3.5742   3.5742
     6.4385   6.4385   6.4388   6.4388   6.9671   6.9672   6.9672   6.9674

          k =-0.5000-0.5022 0.0000 (  5224 PWs)   bands (ev):

   -64.9597 -64.9596 -64.9596 -64.9586 -31.7483 -31.7481 -31.7477 -31.7476
   -31.7284 -31.7282 -31.7275 -31.7273 -31.7071 -31.7069 -31.7065 -31.7064
    -8.2909  -8.2907  -8.2781  -8.2779   4.2085   4.2087   4.2147   4.2148
     5.6692   5.6693   5.7008   5.7008   6.9672   6.9673   6.9778   6.9779

          k =-0.5000-0.5022 0.2500 (  5200 PWs)   bands (ev):

   -64.9597 -64.9596 -64.9596 -64.9586 -31.7609 -31.7606 -31.7606 -31.7605
   -31.7151 -31.7149 -31.7147 -31.7145 -31.7061 -31.7060 -31.7057 -31.7056
    -8.2531  -8.2530  -8.2439  -8.2438   3.5645   3.5646   3.5730   3.5731
     6.4243   6.4243   6.4426   6.4426   6.9698   6.9699   6.9772   6.9774

          k =-0.5000-0.5022-0.5000 (  5232 PWs)   bands (ev):

   -64.9596 -64.9596 -64.9596 -64.9586 -31.7696 -31.7693 -31.7693 -31.7693
   -31.7082 -31.7079 -31.7078 -31.7078 -31.7059 -31.7057 -31.7057 -31.7056
    -8.2121  -8.2119  -8.2119  -8.2119   3.1517   3.1518   3.1518   3.1518
     6.9680   6.9681   6.9681   6.9684   6.9762   6.9762   6.9764   6.9764

          k = 0.0000 0.2511-0.2500 (  5199 PWs)   bands (ev):

   -64.9639 -64.9585 -64.9581 -64.9571 -31.7513 -31.7496 -31.7490 -31.7365
   -31.7261 -31.7254 -31.7226 -31.7181 -31.7173 -31.7158 -31.7071 -31.6995
    -9.0325  -8.1485  -8.1405  -7.9772   4.0858   4.0896   4.2535   4.9925
     5.7500   5.9606   5.9815   6.3856   6.3930   6.4985   7.0804   7.4063

          k =-0.2500 0.2511-0.2500 (  5189 PWs)   bands (ev):

   -64.9629 -64.9585 -64.9584 -64.9577 -31.7550 -31.7549 -31.7534 -31.7360
   -31.7239 -31.7238 -31.7231 -31.7154 -31.7139 -31.7139 -31.7038 -31.7014
    -8.8662  -8.1156  -8.1155  -8.1098   3.9277   3.9293   3.9293   5.0031
     5.7596   5.7598   5.7664   6.6062   6.6182   6.6184   7.2577   7.2592

          k = 0.5000 0.2511-0.2500 (  5170 PWs)   bands (ev):

   -64.9608 -64.9604 -64.9585 -64.9578 -31.7571 -31.7569 -31.7504 -31.7503
   -31.7225 -31.7223 -31.7119 -31.7118 -31.7096 -31.7095 -31.7073 -31.7071
    -8.4772  -8.4771  -8.0806  -8.0804   3.7521   3.7522   4.1237   4.1238
     5.7466   5.7467   6.6504   6.6507   6.7750   6.7751   6.9247   6.9247

     highest occupied level (ev):     7.5745

!    total energy              =    -608.39237523 Ry
     Harris-Foulkes estimate   =    -608.39237523 Ry
     estimated scf accuracy    <          2.0E-09 Ry

     The total energy is the sum of the following terms:

     one-electron contribution =    -305.23102310 Ry
     hartree contribution      =     168.62904791 Ry
     xc contribution           =     -97.81168569 Ry
     ewald contribution        =    -373.97871434 Ry

     convergence has been achieved in   9 iterations

     Forces acting on atoms (cartesian axes, Ry/au):

     atom    1 type  1   force =     0.00000000    0.00233665   -0.00000890
     atom    2 type  1   force =     0.00000000   -0.00229351    0.00000824
     atom    3 type  1   force =     0.00000000    0.00233807    0.00000835
     atom    4 type  1   force =     0.00000000   -0.00229407   -0.00000790
     atom    5 type  2   force =     0.00000000    0.00266817   -0.00000997
     atom    6 type  2   force =     0.00000000   -0.00270512   -0.00001044
     atom    7 type  2   force =     0.00000000    0.00266701    0.00001041
     atom    8 type  2   force =     0.00000000   -0.00271720    0.00001021

     Total force =     0.007098     Total SCF correction =     0.000044


     Computing stress (Cartesian axis) and pressure

          total   stress  (Ry/bohr**3)                   (kbar)     P=  -80.00
  -0.00056050   0.00000000   0.00000000        -82.45      0.00      0.00
   0.00000000  -0.00051028  -0.00000000          0.00    -75.06     -0.00
   0.00000000  -0.00000000  -0.00056061          0.00     -0.00    -82.47


     BFGS Geometry Optimization

     number of scf cycles    =   1
     number of bfgs steps    =   0

     energy   new            =    -608.3923752285 Ry

     new trust radius        =       0.0027172189 bohr
     new conv_thr            =       0.0000000100 Ry


ATOMIC_POSITIONS (alat)
Mg       0.000000000   0.000289217  -0.000001102
Mg       0.000000000   0.499716122   0.500001020
Mg       0.500000000   0.000289393   0.500001034
Mg       0.500000000   0.499716054  -0.000000977
O        0.500000000   0.000330250  -0.000001234
O        0.000000000   0.499665176  -0.000001292
O        0.000000000   0.000330107   0.500001288
O        0.500000000   0.499663681   0.500001263



     Writing output data file diamond.8.07922979850.70.4.save
     NEW-OLD atomic charge density approx. for the potential

     Check: negative/imaginary core charge=   -0.000007    0.000000

     total cpu time spent up to now is       12.8 secs

     per-process dynamical memory:    51.9 Mb

     Self-consistent Calculation

     iteration #  1     ecut=    70.00 Ry     beta=0.70
     Davidson diagonalization with overlap
     ethr =  1.00E-06,  avg # of iterations =  3.0

     Threshold (ethr) on eigenvalues was too large:
     Diagonalizing with lowered threshold

     Davidson diagonalization with overlap
     ethr =  1.41E-08,  avg # of iterations =  1.2

     total cpu time spent up to now is       15.6 secs

     total energy              =    -608.39241489 Ry
     Harris-Foulkes estimate   =    -608.39242162 Ry
     estimated scf accuracy    <       0.00000917 Ry

     iteration #  2     ecut=    70.00 Ry     beta=0.70
     Davidson diagonalization with overlap
     ethr =  1.43E-08,  avg # of iterations =  2.2

     total cpu time spent up to now is       16.8 secs

     total energy              =    -608.39241767 Ry
     Harris-Foulkes estimate   =    -608.39241860 Ry
     estimated scf accuracy    <       0.00000155 Ry

     iteration #  3     ecut=    70.00 Ry     beta=0.70
     Davidson diagonalization with overlap
     ethr =  2.42E-09,  avg # of iterations =  2.0

     total cpu time spent up to now is       18.0 secs

     total energy              =    -608.39241800 Ry
     Harris-Foulkes estimate   =    -608.39241800 Ry
     estimated scf accuracy    <       0.00000001 Ry

     iteration #  4     ecut=    70.00 Ry     beta=0.70
     Davidson diagonalization with overlap
     ethr =  1.74E-11,  avg # of iterations =  2.8

     total cpu time spent up to now is       19.5 secs

     End of self-consistent calculation

          k = 0.0000 0.0000 0.0000 (  5185 PWs)   bands (ev):

   -64.9667 -64.9576 -64.9575 -64.9568 -31.7602 -31.7602 -31.7581 -31.7246
   -31.7246 -31.7236 -31.7236 -31.7220 -31.7219 -31.6982 -31.6982 -31.6958
    -9.4253  -8.0017  -8.0015  -7.9905   3.6857   3.6857   3.6997   6.2790
     6.2791   6.2826   6.2830   6.3095   6.3095   7.5642   7.5744   7.5745

          k = 0.0000 0.0000 0.2500 (  5190 PWs)   bands (ev):

   -64.9653 -64.9588 -64.9576 -64.9569 -31.7545 -31.7520 -31.7517 -31.7301
   -31.7267 -31.7251 -31.7244 -31.7202 -31.7177 -31.7110 -31.7030 -31.7007
    -9.2210  -8.2127  -7.9727  -7.9648   3.9734   3.9865   4.0192   5.7632
     5.7701   6.0778   6.0985   6.4444   6.4692   6.5632   7.3444   7.3578

          k = 0.0000 0.0000-0.5000 (  5198 PWs)   bands (ev):

   -64.9623 -64.9618 -64.9576 -64.9570 -31.7428 -31.7426 -31.7386 -31.7384
   -31.7323 -31.7323 -31.7259 -31.7259 -31.7115 -31.7113 -31.7094 -31.7092
    -8.7205  -8.7204  -7.9413  -7.9412   4.7632   4.7634   4.7752   4.7753
     5.0388   5.0391   5.8929   5.8934   6.8667   6.8668   6.8865   6.8866

          k = 0.0000 0.2511 0.0000 (  5185 PWs)   bands (ev):

   -64.9653 -64.9587 -64.9576 -64.9570 -31.7544 -31.7543 -31.7483 -31.7293
   -31.7293 -31.7227 -31.7227 -31.7209 -31.7209 -31.7071 -31.7030 -31.7030
    -9.2186  -8.2021  -7.9731  -7.9730   3.9763   3.9763   4.0271   5.7867
     5.7867   6.0711   6.0715   6.4420   6.4421   6.5547   7.3521   7.3522

          k = 0.0000 0.2511 0.2500 (  5199 PWs)   bands (ev):

   -64.9641 -64.9587 -64.9584 -64.9574 -31.7515 -31.7498 -31.7492 -31.7367
   -31.7263 -31.7256 -31.7229 -31.7183 -31.7175 -31.7160 -31.7073 -31.6998
    -9.0324  -8.1484  -8.1405  -7.9772   4.0859   4.0896   4.2536   4.9925
     5.7501   5.9607   5.9814   6.3857   6.3930   6.4983   7.0803   7.4063

          k = 0.0000 0.2511-0.5000 (  5192 PWs)   bands (ev):

   -64.9616 -64.9611 -64.9582 -64.9576 -31.7462 -31.7461 -31.7403 -31.7403
   -31.7378 -31.7376 -31.7168 -31.7165 -31.7147 -31.7147 -31.7055 -31.7054
    -8.5854  -8.5853  -8.0300  -8.0298   4.3421   4.3422   4.6666   4.6669
     5.0135   5.0136   6.4655   6.4658   6.4935   6.4936   6.9957   6.9957

          k = 0.0000-0.5022 0.0000 (  5190 PWs)   bands (ev):

   -64.9622 -64.9617 -64.9576 -64.9571 -31.7428 -31.7428 -31.7421 -31.7420
   -31.7306 -31.7296 -31.7208 -31.7207 -31.7121 -31.7121 -31.7116 -31.7116
    -8.7211  -8.7050  -7.9443  -7.9441   4.7622   4.7622   4.7876   4.7877
     5.0298   5.0399   5.8720   5.8724   6.8612   6.8613   6.8767   6.8768

          k = 0.0000-0.5022 0.2500 (  5188 PWs)   bands (ev):

   -64.9615 -64.9611 -64.9583 -64.9577 -31.7470 -31.7465 -31.7394 -31.7389
   -31.7379 -31.7370 -31.7174 -31.7167 -31.7136 -31.7133 -31.7069 -31.7068
    -8.5875  -8.5733  -8.0339  -8.0312   4.3368   4.3469   4.6580   4.6691
     5.0098   5.0345   6.4486   6.4577   6.4730   6.4911   6.9980   7.0027

          k = 0.0000-0.5022-0.5000 (  5224 PWs)   bands (ev):

   -64.9599 -64.9599 -64.9598 -64.9589 -31.7484 -31.7483 -31.7479 -31.7479
   -31.7285 -31.7283 -31.7278 -31.7276 -31.7072 -31.7071 -31.7068 -31.7067
    -8.2889  -8.2888  -8.2800  -8.2798   4.2096   4.2097   4.2138   4.2139
     5.6739   5.6741   5.6960   5.6962   6.9688   6.9689   6.9761   6.9763

          k = 0.2500 0.0000 0.0000 (  5190 PWs)   bands (ev):

   -64.9653 -64.9588 -64.9576 -64.9569 -31.7545 -31.7519 -31.7517 -31.7301
   -31.7267 -31.7251 -31.7244 -31.7202 -31.7177 -31.7110 -31.7030 -31.7007
    -9.2209  -8.2127  -7.9727  -7.9648   3.9734   3.9865   4.0192   5.7633
     5.7702   6.0777   6.0985   6.4443   6.4692   6.5632   7.3443   7.3579

          k = 0.2500 0.0000 0.2500 (  5193 PWs)   bands (ev):

   -64.9641 -64.9588 -64.9584 -64.9573 -31.7515 -31.7514 -31.7473 -31.7381
   -31.7236 -31.7229 -31.7229 -31.7194 -31.7180 -31.7179 -31.7050 -31.7012
    -9.0345  -8.1487  -8.1485  -7.9718   4.0886   4.0886   4.2633   4.9923
     5.7628   5.9653   5.9657   6.4056   6.4057   6.4840   7.0705   7.4081

          k = 0.2500 0.0000-0.5000 (  5194 PWs)   bands (ev):

   -64.9616 -64.9611 -64.9582 -64.9576 -31.7478 -31.7476 -31.7408 -31.7407
   -31.7354 -31.7351 -31.7159 -31.7158 -31.7140 -31.7138 -31.7076 -31.7074
    -8.5868  -8.5866  -8.0315  -8.0314   4.3479   4.3480   4.6767   4.6769
     5.0209   5.0210   6.4553   6.4556   6.4811   6.4812   7.0033   7.0033

          k = 0.2500 0.2511 0.0000 (  5199 PWs)   bands (ev):

   -64.9641 -64.9587 -64.9584 -64.9574 -31.7515 -31.7498 -31.7492 -31.7367
   -31.7263 -31.7256 -31.7228 -31.7183 -31.7175 -31.7160 -31.7073 -31.6998
    -9.0324  -8.1484  -8.1405  -7.9772   4.0859   4.0895   4.2535   4.9925
     5.7500   5.9608   5.9814   6.3857   6.3929   6.4983   7.0804   7.4063

          k = 0.2500 0.2511 0.2500 (  5189 PWs)   bands (ev):

   -64.9632 -64.9588 -64.9587 -64.9579 -31.7552 -31.7551 -31.7536 -31.7362
   -31.7241 -31.7240 -31.7234 -31.7156 -31.7142 -31.7142 -31.7040 -31.7016
    -8.8661  -8.1156  -8.1154  -8.1098   3.9277   3.9294   3.9294   5.0031
     5.7596   5.7598   5.7664   6.6062   6.6181   6.6183   7.2577   7.2592

          k = 0.2500 0.2511-0.5000 (  5170 PWs)   bands (ev):

   -64.9611 -64.9607 -64.9587 -64.9581 -31.7573 -31.7572 -31.7506 -31.7505
   -31.7227 -31.7225 -31.7121 -31.7120 -31.7099 -31.7097 -31.7075 -31.7073
    -8.4772  -8.4770  -8.0806  -8.0804   3.7521   3.7522   4.1237   4.1239
     5.7466   5.7467   6.6505   6.6508   6.7750   6.7751   6.9246   6.9248

          k = 0.2500-0.5022 0.0000 (  5188 PWs)   bands (ev):

   -64.9615 -64.9611 -64.9583 -64.9577 -31.7470 -31.7465 -31.7394 -31.7389
   -31.7379 -31.7370 -31.7174 -31.7167 -31.7136 -31.7133 -31.7069 -31.7068
    -8.5875  -8.5733  -8.0339  -8.0312   4.3368   4.3469   4.6580   4.6691
     5.0098   5.0345   6.4486   6.4577   6.4731   6.4911   6.9979   7.0027

          k = 0.2500-0.5022 0.2500 (  5174 PWs)   bands (ev):

   -64.9610 -64.9606 -64.9588 -64.9581 -31.7574 -31.7573 -31.7504 -31.7503
   -31.7238 -31.7236 -31.7105 -31.7103 -31.7103 -31.7100 -31.7083 -31.7081
    -8.4792  -8.4671  -8.0820  -8.0818   3.7512   3.7512   4.1113   4.1229
     5.7473   5.7474   6.6472   6.6474   6.7784   6.7835   6.9119   6.9231

          k = 0.2500-0.5022-0.5000 (  5200 PWs)   bands (ev):

   -64.9599 -64.9599 -64.9599 -64.9589 -31.7611 -31.7608 -31.7608 -31.7607
   -31.7153 -31.7151 -31.7149 -31.7148 -31.7063 -31.7062 -31.7059 -31.7059
    -8.2517  -8.2515  -8.2453  -8.2451   3.5658   3.5659   3.5717   3.5718
     6.4270   6.4271   6.4398   6.4399   6.9709   6.9711   6.9761   6.9762

          k =-0.5000 0.0000 0.0000 (  5198 PWs)   bands (ev):

   -64.9623 -64.9618 -64.9576 -64.9570 -31.7428 -31.7426 -31.7386 -31.7384
   -31.7323 -31.7323 -31.7259 -31.7258 -31.7115 -31.7113 -31.7094 -31.7092
    -8.7205  -8.7203  -7.9414  -7.9412   4.7633   4.7634   4.7752   4.7753
     5.0388   5.0391   5.8928   5.8933   6.8666   6.8667   6.8865   6.8866

          k =-0.5000 0.0000 0.2500 (  5194 PWs)   bands (ev):

   -64.9616 -64.9611 -64.9582 -64.9576 -31.7478 -31.7476 -31.7407 -31.7407
   -31.7354 -31.7351 -31.7159 -31.7158 -31.7140 -31.7138 -31.7076 -31.7074
    -8.5867  -8.5866  -8.0315  -8.0314   4.3479   4.3480   4.6767   4.6769
     5.0209   5.0210   6.4552   6.4555   6.4811   6.4812   7.0033   7.0033

          k =-0.5000 0.0000-0.5000 (  5248 PWs)   bands (ev):

   -64.9599 -64.9599 -64.9599 -64.9589 -31.7497 -31.7495 -31.7494 -31.7494
   -31.7260 -31.7258 -31.7258 -31.7256 -31.7091 -31.7089 -31.7087 -31.7087
    -8.2876  -8.2873  -8.2873  -8.2872   4.2275   4.2275   4.2276   4.2278
     5.6830   5.6832   5.6835   5.6835   6.9660   6.9661   6.9661   6.9664

          k =-0.5000 0.2511 0.0000 (  5192 PWs)   bands (ev):

   -64.9616 -64.9611 -64.9582 -64.9576 -31.7462 -31.7461 -31.7403 -31.7403
   -31.7378 -31.7376 -31.7168 -31.7166 -31.7147 -31.7147 -31.7055 -31.7054
    -8.5854  -8.5852  -8.0300  -8.0298   4.3421   4.3421   4.6666   4.6668
     5.0135   5.0136   6.4655   6.4658   6.4935   6.4936   6.9957   6.9957

          k =-0.5000 0.2511 0.2500 (  5170 PWs)   bands (ev):

   -64.9611 -64.9607 -64.9587 -64.9581 -31.7573 -31.7572 -31.7506 -31.7505
   -31.7227 -31.7225 -31.7121 -31.7120 -31.7099 -31.7097 -31.7075 -31.7073
    -8.4772  -8.4770  -8.0806  -8.0804   3.7521   3.7522   4.1237   4.1239
     5.7466   5.7467   6.6505   6.6508   6.7750   6.7751   6.9246   6.9247

          k =-0.5000 0.2511-0.5000 (  5208 PWs)   bands (ev):

   -64.9599 -64.9599 -64.9599 -64.9589 -31.7615 -31.7612 -31.7612 -31.7612
   -31.7131 -31.7129 -31.7129 -31.7127 -31.7084 -31.7082 -31.7081 -31.7081
    -8.2501  -8.2498  -8.2498  -8.2498   3.5741   3.5742   3.5742   3.5742
     6.4384   6.4385   6.4387   6.4388   6.9671   6.9672   6.9672   6.9675

          k =-0.5000-0.5022 0.0000 (  5224 PWs)   bands (ev):

   -64.9599 -64.9599 -64.9598 -64.9589 -31.7484 -31.7483 -31.7479 -31.7479
   -31.7286 -31.7283 -31.7279 -31.7276 -31.7072 -31.7071 -31.7068 -31.7067
    -8.2889  -8.2887  -8.2800  -8.2798   4.2095   4.2097   4.2137   4.2138
     5.6740   5.6741   5.6961   5.6962   6.9688   6.9690   6.9761   6.9763

          k =-0.5000-0.5022 0.2500 (  5200 PWs)   bands (ev):

   -64.9599 -64.9599 -64.9599 -64.9589 -31.7611 -31.7608 -31.7608 -31.7607
   -31.7153 -31.7151 -31.7150 -31.7148 -31.7063 -31.7061 -31.7059 -31.7058
    -8.2517  -8.2515  -8.2453  -8.2451   3.5658   3.5659   3.5717   3.5718
     6.4270   6.4271   6.4398   6.4399   6.9709   6.9711   6.9761   6.9763

          k =-0.5000-0.5022-0.5000 (  5232 PWs)   bands (ev):

   -64.9599 -64.9599 -64.9599 -64.9589 -31.7698 -31.7695 -31.7695 -31.7695
   -31.7084 -31.7082 -31.7081 -31.7081 -31.7062 -31.7059 -31.7059 -31.7058
    -8.2122  -8.2118  -8.2118  -8.2118   3.1517   3.1518   3.1518   3.1518
     6.9681   6.9682   6.9682   6.9684   6.9762   6.9762   6.9765   6.9765

          k = 0.0000 0.2511-0.2500 (  5199 PWs)   bands (ev):

   -64.9641 -64.9587 -64.9584 -64.9574 -31.7515 -31.7498 -31.7492 -31.7367
   -31.7263 -31.7256 -31.7229 -31.7183 -31.7175 -31.7160 -31.7073 -31.6998
    -9.0324  -8.1484  -8.1405  -7.9772   4.0859   4.0896   4.2536   4.9925
     5.7501   5.9607   5.9814   6.3857   6.3930   6.4983   7.0803   7.4063

          k =-0.2500 0.2511-0.2500 (  5189 PWs)   bands (ev):

   -64.9632 -64.9588 -64.9587 -64.9579 -31.7552 -31.7551 -31.7536 -31.7362
   -31.7241 -31.7240 -31.7234 -31.7156 -31.7142 -31.7142 -31.7040 -31.7016
    -8.8661  -8.1156  -8.1154  -8.1098   3.9277   3.9294   3.9294   5.0031
     5.7596   5.7598   5.7664   6.6062   6.6181   6.6183   7.2577   7.2592

          k = 0.5000 0.2511-0.2500 (  5170 PWs)   bands (ev):

   -64.9611 -64.9607 -64.9587 -64.9581 -31.7573 -31.7572 -31.7506 -31.7505
   -31.7227 -31.7225 -31.7121 -31.7120 -31.7099 -31.7097 -31.7075 -31.7073
    -8.4772  -8.4770  -8.0806  -8.0804   3.7521   3.7522   4.1237   4.1239
     5.7466   5.7467   6.6505   6.6508   6.7750   6.7751   6.9246   6.9247

     highest occupied level (ev):     7.5745

!    total energy              =    -608.39241800 Ry
     Harris-Foulkes estimate   =    -608.39241801 Ry
     estimated scf accuracy    <          2.5E-09 Ry

     The total energy is the sum of the following terms:

     one-electron contribution =    -305.22362262 Ry
     hartree contribution      =     168.62547526 Ry
     xc contribution           =     -97.81167131 Ry
     ewald contribution        =    -373.98259933 Ry

     convergence has been achieved in   4 iterations

     Forces acting on atoms (cartesian axes, Ry/au):

     atom    1 type  1   force =     0.00000000    0.00165904   -0.00000710
     atom    2 type  1   force =     0.00000000   -0.00166581    0.00000712
     atom    3 type  1   force =     0.00000000    0.00170704    0.00000718
     atom    4 type  1   force =     0.00000000   -0.00166565   -0.00000745
     atom    5 type  2   force =     0.00000000    0.00182546   -0.00000784
     atom    6 type  2   force =     0.00000000   -0.00183999   -0.00000777
     atom    7 type  2   force =     0.00000000    0.00182586    0.00000786
     atom    8 type  2   force =     0.00000000   -0.00184593    0.00000799

     Total force =     0.004967     Total SCF correction =     0.000264


     Computing stress (Cartesian axis) and pressure

          total   stress  (Ry/bohr**3)                   (kbar)     P=  -79.95
  -0.00055990   0.00000000   0.00000000        -82.36      0.00      0.00
   0.00000000  -0.00051046   0.00000000          0.00    -75.09      0.00
   0.00000000   0.00000000  -0.00056002          0.00      0.00    -82.38


     number of scf cycles    =   2
     number of bfgs steps    =   1

     energy   old            =    -608.3923752285 Ry
     energy   new            =    -608.3924180036 Ry

     CASE: energy  _new < energy  _old

     new trust radius        =       0.0029889407 bohr
     new conv_thr            =       0.0000000004 Ry


ATOMIC_POSITIONS (alat)
Mg       0.000000000   0.000621680  -0.000002524
Mg       0.000000000   0.499382318   0.500002447
Mg       0.500000000   0.000631454   0.500002472
Mg       0.500000000   0.499382281  -0.000002470
O        0.500000000   0.000696092  -0.000002805
O        0.000000000   0.499296417  -0.000002848
O        0.000000000   0.000696028   0.500002864
O        0.500000000   0.499293731   0.500002865



     Writing output data file diamond.8.07922979850.70.4.save
     NEW-OLD atomic charge density approx. for the potential

     Check: negative/imaginary core charge=   -0.000007    0.000000

     total cpu time spent up to now is       20.2 secs

     per-process dynamical memory:    51.9 Mb

     Self-consistent Calculation

     iteration #  1     ecut=    70.00 Ry     beta=0.70
     Davidson diagonalization with overlap
     ethr =  1.00E-06,  avg # of iterations =  3.0

     Threshold (ethr) on eigenvalues was too large:
     Diagonalizing with lowered threshold

     Davidson diagonalization with overlap
     ethr =  1.76E-08,  avg # of iterations =  1.2

     total cpu time spent up to now is       23.0 secs

     total energy              =    -608.39244445 Ry
     Harris-Foulkes estimate   =    -608.39245279 Ry
     estimated scf accuracy    <       0.00001139 Ry

     iteration #  2     ecut=    70.00 Ry     beta=0.70
     Davidson diagonalization with overlap
     ethr =  1.78E-08,  avg # of iterations =  2.2

     total cpu time spent up to now is       24.3 secs

     total energy              =    -608.39244789 Ry
     Harris-Foulkes estimate   =    -608.39244905 Ry
     estimated scf accuracy    <       0.00000193 Ry

     iteration #  3     ecut=    70.00 Ry     beta=0.70
     Davidson diagonalization with overlap
     ethr =  3.02E-09,  avg # of iterations =  2.0

     total cpu time spent up to now is       25.5 secs

     total energy              =    -608.39244831 Ry
     Harris-Foulkes estimate   =    -608.39244831 Ry
     estimated scf accuracy    <       0.00000002 Ry

     iteration #  4     ecut=    70.00 Ry     beta=0.70
     Davidson diagonalization with overlap
     ethr =  2.39E-11,  avg # of iterations =  3.0

     total cpu time spent up to now is       27.0 secs

     total energy              =    -608.39244831 Ry
     Harris-Foulkes estimate   =    -608.39244832 Ry
     estimated scf accuracy    <          6.7E-09 Ry

     iteration #  5     ecut=    70.00 Ry     beta=0.70
     Davidson diagonalization with overlap
     ethr =  1.05E-11,  avg # of iterations =  2.8

     total cpu time spent up to now is       28.3 secs

     total energy              =    -608.39244832 Ry
     Harris-Foulkes estimate   =    -608.39244832 Ry
     estimated scf accuracy    <          4.8E-10 Ry

     iteration #  6     ecut=    70.00 Ry     beta=0.70
     Davidson diagonalization with overlap
     ethr =  7.49E-13,  avg # of iterations =  2.7

     total cpu time spent up to now is       29.6 secs

     End of self-consistent calculation

          k = 0.0000 0.0000 0.0000 (  5185 PWs)   bands (ev):

   -64.9667 -64.9577 -64.9576 -64.9569 -31.7603 -31.7603 -31.7581 -31.7247
   -31.7247 -31.7237 -31.7237 -31.7220 -31.7220 -31.6982 -31.6982 -31.6958
    -9.4252  -8.0015  -8.0014  -7.9904   3.6858   3.6858   3.6997   6.2791
     6.2792   6.2827   6.2830   6.3096   6.3096   7.5643   7.5745   7.5745

          k = 0.0000 0.0000 0.2500 (  5190 PWs)   bands (ev):

   -64.9654 -64.9589 -64.9576 -64.9570 -31.7545 -31.7520 -31.7517 -31.7301
   -31.7268 -31.7251 -31.7244 -31.7202 -31.7178 -31.7111 -31.7031 -31.7008
    -9.2208  -8.2126  -7.9726  -7.9647   3.9736   3.9865   4.0193   5.7633
     5.7702   6.0779   6.0987   6.4444   6.4692   6.5633   7.3445   7.3579

          k = 0.0000 0.0000-0.5000 (  5198 PWs)   bands (ev):

   -64.9623 -64.9619 -64.9576 -64.9571 -31.7429 -31.7426 -31.7386 -31.7384
   -31.7324 -31.7323 -31.7259 -31.7259 -31.7116 -31.7113 -31.7095 -31.7093
    -8.7204  -8.7203  -7.9412  -7.9411   4.7634   4.7635   4.7753   4.7753
     5.0389   5.0392   5.8931   5.8935   6.8667   6.8668   6.8866   6.8867

          k = 0.0000 0.2511 0.0000 (  5185 PWs)   bands (ev):

   -64.9653 -64.9587 -64.9577 -64.9571 -31.7544 -31.7544 -31.7484 -31.7294
   -31.7294 -31.7228 -31.7227 -31.7210 -31.7210 -31.7071 -31.7030 -31.7030
    -9.2184  -8.2020  -7.9730  -7.9729   3.9764   3.9765   4.0271   5.7867
     5.7868   6.0712   6.0715   6.4422   6.4423   6.5548   7.3522   7.3523

          k = 0.0000 0.2511 0.2500 (  5199 PWs)   bands (ev):

   -64.9642 -64.9588 -64.9584 -64.9574 -31.7516 -31.7499 -31.7492 -31.7367
   -31.7264 -31.7256 -31.7229 -31.7184 -31.7176 -31.7161 -31.7074 -31.6998
    -9.0322  -8.1483  -8.1404  -7.9770   4.0860   4.0896   4.2537   4.9926
     5.7502   5.9608   5.9814   6.3859   6.3930   6.4982   7.0804   7.4064

          k = 0.0000 0.2511-0.5000 (  5192 PWs)   bands (ev):

   -64.9616 -64.9612 -64.9583 -64.9577 -31.7463 -31.7461 -31.7404 -31.7404
   -31.7379 -31.7376 -31.7168 -31.7166 -31.7148 -31.7147 -31.7056 -31.7054
    -8.5853  -8.5852  -8.0298  -8.0297   4.3421   4.3422   4.6667   4.6669
     5.0137   5.0137   6.4656   6.4659   6.4936   6.4936   6.9957   6.9958

          k = 0.0000-0.5022 0.0000 (  5190 PWs)   bands (ev):

   -64.9623 -64.9618 -64.9577 -64.9571 -31.7427 -31.7427 -31.7423 -31.7422
   -31.7304 -31.7299 -31.7208 -31.7208 -31.7121 -31.7121 -31.7117 -31.7117
    -8.7171  -8.7087  -7.9441  -7.9440   4.7683   4.7684   4.7816   4.7817
     5.0323   5.0375   5.8721   5.8724   6.8650   6.8651   6.8730   6.8731

          k = 0.0000-0.5022 0.2500 (  5188 PWs)   bands (ev):

   -64.9616 -64.9611 -64.9583 -64.9578 -31.7470 -31.7467 -31.7393 -31.7390
   -31.7377 -31.7372 -31.7173 -31.7168 -31.7136 -31.7134 -31.7070 -31.7068
    -8.5840  -8.5766  -8.0332  -8.0317   4.3392   4.3446   4.6608   4.6664
     5.0158   5.0287   6.4508   6.4555   6.4775   6.4868   6.9992   7.0017

          k = 0.0000-0.5022-0.5000 (  5224 PWs)   bands (ev):

   -64.9600 -64.9600 -64.9599 -64.9589 -31.7484 -31.7483 -31.7480 -31.7480
   -31.7285 -31.7282 -31.7280 -31.7278 -31.7073 -31.7071 -31.7069 -31.7068
    -8.2866  -8.2865  -8.2820  -8.2819   4.2108   4.2109   4.2127   4.2128
     5.6794   5.6794   5.6909   5.6910   6.9707   6.9708   6.9744   6.9746

          k = 0.2500 0.0000 0.0000 (  5190 PWs)   bands (ev):

   -64.9654 -64.9589 -64.9576 -64.9570 -31.7546 -31.7520 -31.7517 -31.7301
   -31.7268 -31.7251 -31.7244 -31.7202 -31.7178 -31.7111 -31.7031 -31.7008
    -9.2208  -8.2126  -7.9726  -7.9647   3.9735   3.9865   4.0193   5.7634
     5.7703   6.0778   6.0987   6.4443   6.4692   6.5633   7.3444   7.3579

          k = 0.2500 0.0000 0.2500 (  5193 PWs)   bands (ev):

   -64.9642 -64.9588 -64.9584 -64.9574 -31.7515 -31.7514 -31.7473 -31.7382
   -31.7237 -31.7230 -31.7229 -31.7195 -31.7181 -31.7179 -31.7050 -31.7013
    -9.0344  -8.1486  -8.1484  -7.9717   4.0887   4.0887   4.2633   4.9924
     5.7629   5.9653   5.9657   6.4057   6.4057   6.4841   7.0706   7.4082

          k = 0.2500 0.0000-0.5000 (  5194 PWs)   bands (ev):

   -64.9616 -64.9612 -64.9583 -64.9577 -31.7478 -31.7477 -31.7408 -31.7407
   -31.7354 -31.7352 -31.7159 -31.7159 -31.7141 -31.7138 -31.7077 -31.7075
    -8.5866  -8.5865  -8.0314  -8.0313   4.3480   4.3481   4.6768   4.6770
     5.0209   5.0210   6.4560   6.4562   6.4806   6.4807   7.0033   7.0034

          k = 0.2500 0.2511 0.0000 (  5199 PWs)   bands (ev):

   -64.9642 -64.9588 -64.9584 -64.9574 -31.7516 -31.7499 -31.7492 -31.7367
   -31.7264 -31.7257 -31.7229 -31.7184 -31.7176 -31.7161 -31.7074 -31.6998
    -9.0322  -8.1483  -8.1404  -7.9771   4.0860   4.0896   4.2537   4.9926
     5.7501   5.9609   5.9814   6.3859   6.3930   6.4983   7.0804   7.4064

          k = 0.2500 0.2511 0.2500 (  5189 PWs)   bands (ev):

   -64.9632 -64.9588 -64.9588 -64.9580 -31.7553 -31.7551 -31.7536 -31.7362
   -31.7242 -31.7240 -31.7234 -31.7156 -31.7142 -31.7142 -31.7041 -31.7017
    -8.8660  -8.1154  -8.1153  -8.1098   3.9278   3.9295   3.9295   5.0032
     5.7598   5.7599   5.7665   6.6064   6.6182   6.6184   7.2578   7.2593

          k = 0.2500 0.2511-0.5000 (  5170 PWs)   bands (ev):

   -64.9611 -64.9607 -64.9588 -64.9582 -31.7574 -31.7572 -31.7507 -31.7506
   -31.7228 -31.7225 -31.7121 -31.7121 -31.7099 -31.7098 -31.7076 -31.7074
    -8.4771  -8.4770  -8.0804  -8.0803   3.7522   3.7523   4.1238   4.1240
     5.7467   5.7467   6.6507   6.6509   6.7750   6.7752   6.9247   6.9248

          k = 0.2500-0.5022 0.0000 (  5188 PWs)   bands (ev):

   -64.9616 -64.9611 -64.9583 -64.9578 -31.7470 -31.7466 -31.7393 -31.7390
   -31.7378 -31.7373 -31.7173 -31.7169 -31.7136 -31.7134 -31.7070 -31.7068
    -8.5840  -8.5766  -8.0331  -8.0317   4.3392   4.3446   4.6608   4.6664
     5.0157   5.0287   6.4509   6.4556   6.4776   6.4869   6.9992   7.0017

          k = 0.2500-0.5022 0.2500 (  5174 PWs)   bands (ev):

   -64.9611 -64.9607 -64.9588 -64.9582 -31.7574 -31.7573 -31.7504 -31.7503
   -31.7239 -31.7237 -31.7105 -31.7104 -31.7103 -31.7101 -31.7084 -31.7082
    -8.4762  -8.4699  -8.0818  -8.0817   3.7513   3.7513   4.1142   4.1200
     5.7474   5.7475   6.6472   6.6475   6.7797   6.7824   6.9147   6.9205

          k = 0.2500-0.5022-0.5000 (  5200 PWs)   bands (ev):

   -64.9600 -64.9599 -64.9599 -64.9589 -31.7611 -31.7609 -31.7608 -31.7608
   -31.7153 -31.7151 -31.7150 -31.7149 -31.7063 -31.7062 -31.7060 -31.7059
    -8.2500  -8.2499  -8.2467  -8.2466   3.5673   3.5674   3.5703   3.5704
     6.4302   6.4303   6.4369   6.4369   6.9723   6.9724   6.9749   6.9751

          k =-0.5000 0.0000 0.0000 (  5198 PWs)   bands (ev):

   -64.9623 -64.9619 -64.9576 -64.9571 -31.7429 -31.7426 -31.7386 -31.7384
   -31.7324 -31.7323 -31.7259 -31.7259 -31.7116 -31.7113 -31.7095 -31.7093
    -8.7203  -8.7203  -7.9412  -7.9411   4.7634   4.7635   4.7753   4.7754
     5.0388   5.0391   5.8930   5.8934   6.8667   6.8667   6.8866   6.8867

          k =-0.5000 0.0000 0.2500 (  5194 PWs)   bands (ev):

   -64.9616 -64.9612 -64.9583 -64.9577 -31.7478 -31.7477 -31.7408 -31.7407
   -31.7354 -31.7352 -31.7159 -31.7159 -31.7141 -31.7139 -31.7077 -31.7075
    -8.5866  -8.5865  -8.0314  -8.0313   4.3480   4.3481   4.6768   4.6770
     5.0209   5.0210   6.4559   6.4562   6.4806   6.4806   7.0034   7.0034

          k =-0.5000 0.0000-0.5000 (  5248 PWs)   bands (ev):

   -64.9600 -64.9600 -64.9600 -64.9589 -31.7498 -31.7496 -31.7494 -31.7494
   -31.7261 -31.7259 -31.7259 -31.7256 -31.7091 -31.7089 -31.7088 -31.7088
    -8.2874  -8.2872  -8.2872  -8.2872   4.2276   4.2277   4.2277   4.2278
     5.6831   5.6832   5.6835   5.6835   6.9661   6.9662   6.9662   6.9664

          k =-0.5000 0.2511 0.0000 (  5192 PWs)   bands (ev):

   -64.9616 -64.9612 -64.9583 -64.9577 -31.7463 -31.7461 -31.7404 -31.7404
   -31.7379 -31.7377 -31.7169 -31.7166 -31.7148 -31.7147 -31.7056 -31.7054
    -8.5852  -8.5851  -8.0298  -8.0297   4.3421   4.3422   4.6667   4.6669
     5.0137   5.0137   6.4656   6.4659   6.4936   6.4936   6.9957   6.9958

          k =-0.5000 0.2511 0.2500 (  5170 PWs)   bands (ev):

   -64.9611 -64.9607 -64.9588 -64.9582 -31.7574 -31.7572 -31.7507 -31.7506
   -31.7228 -31.7225 -31.7121 -31.7121 -31.7099 -31.7098 -31.7076 -31.7074
    -8.4770  -8.4769  -8.0804  -8.0803   3.7522   3.7523   4.1238   4.1239
     5.7467   5.7468   6.6507   6.6509   6.7750   6.7752   6.9247   6.9247

          k =-0.5000 0.2511-0.5000 (  5208 PWs)   bands (ev):

   -64.9599 -64.9599 -64.9599 -64.9589 -31.7615 -31.7612 -31.7612 -31.7612
   -31.7132 -31.7130 -31.7130 -31.7128 -31.7085 -31.7083 -31.7081 -31.7081
    -8.2499  -8.2497  -8.2497  -8.2497   3.5741   3.5743   3.5743   3.5743
     6.4385   6.4386   6.4388   6.4388   6.9672   6.9674   6.9674   6.9676

          k =-0.5000-0.5022 0.0000 (  5224 PWs)   bands (ev):

   -64.9600 -64.9600 -64.9599 -64.9589 -31.7484 -31.7482 -31.7480 -31.7480
   -31.7285 -31.7282 -31.7280 -31.7278 -31.7072 -31.7071 -31.7069 -31.7068
    -8.2866  -8.2865  -8.2820  -8.2819   4.2107   4.2108   4.2127   4.2128
     5.6794   5.6794   5.6909   5.6909   6.9707   6.9709   6.9744   6.9746

          k =-0.5000-0.5022 0.2500 (  5200 PWs)   bands (ev):

   -64.9600 -64.9599 -64.9599 -64.9589 -31.7611 -31.7609 -31.7608 -31.7608
   -31.7153 -31.7151 -31.7150 -31.7149 -31.7063 -31.7062 -31.7060 -31.7059
    -8.2500  -8.2499  -8.2467  -8.2466   3.5673   3.5674   3.5703   3.5704
     6.4302   6.4302   6.4369   6.4369   6.9723   6.9725   6.9749   6.9751

          k =-0.5000-0.5022-0.5000 (  5232 PWs)   bands (ev):

   -64.9599 -64.9599 -64.9599 -64.9589 -31.7698 -31.7696 -31.7696 -31.7695
   -31.7084 -31.7082 -31.7081 -31.7081 -31.7062 -31.7060 -31.7060 -31.7058
    -8.2119  -8.2118  -8.2117  -8.2117   3.1518   3.1519   3.1519   3.1519
     6.9682   6.9683   6.9683   6.9685   6.9763   6.9764   6.9765   6.9765

          k = 0.0000 0.2511-0.2500 (  5199 PWs)   bands (ev):

   -64.9642 -64.9588 -64.9584 -64.9574 -31.7516 -31.7499 -31.7492 -31.7367
   -31.7264 -31.7256 -31.7229 -31.7184 -31.7176 -31.7161 -31.7074 -31.6998
    -9.0322  -8.1483  -8.1404  -7.9770   4.0860   4.0896   4.2537   4.9926
     5.7502   5.9608   5.9814   6.3859   6.3930   6.4982   7.0804   7.4064

          k =-0.2500 0.2511-0.2500 (  5189 PWs)   bands (ev):

   -64.9632 -64.9588 -64.9588 -64.9580 -31.7553 -31.7551 -31.7536 -31.7362
   -31.7242 -31.7240 -31.7234 -31.7156 -31.7142 -31.7142 -31.7041 -31.7017
    -8.8660  -8.1154  -8.1153  -8.1098   3.9278   3.9295   3.9295   5.0032
     5.7598   5.7599   5.7665   6.6064   6.6182   6.6184   7.2578   7.2593

          k = 0.5000 0.2511-0.2500 (  5170 PWs)   bands (ev):

   -64.9611 -64.9607 -64.9588 -64.9582 -31.7574 -31.7572 -31.7507 -31.7506
   -31.7228 -31.7225 -31.7121 -31.7121 -31.7099 -31.7098 -31.7076 -31.7074
    -8.4770  -8.4769  -8.0804  -8.0803   3.7522   3.7523   4.1238   4.1239
     5.7467   5.7468   6.6507   6.6509   6.7750   6.7752   6.9247   6.9247

     highest occupied level (ev):     7.5745

!    total energy              =    -608.39244832 Ry
     Harris-Foulkes estimate   =    -608.39244832 Ry
     estimated scf accuracy    <          6.4E-11 Ry

     The total energy is the sum of the following terms:

     one-electron contribution =    -305.21791154 Ry
     hartree contribution      =     168.62245453 Ry
     xc contribution           =     -97.81154197 Ry
     ewald contribution        =    -373.98544933 Ry

     convergence has been achieved in   6 iterations

     Forces acting on atoms (cartesian axes, Ry/au):

     atom    1 type  1   force =     0.00000000    0.00087525   -0.00000391
     atom    2 type  1   force =     0.00000000   -0.00092778    0.00000415
     atom    3 type  1   force =     0.00000000    0.00096374    0.00000417
     atom    4 type  1   force =     0.00000000   -0.00092770   -0.00000439
     atom    5 type  2   force =     0.00000000    0.00090160   -0.00000409
     atom    6 type  2   force =     0.00000000   -0.00089331   -0.00000402
     atom    7 type  2   force =     0.00000000    0.00090186    0.00000402
     atom    8 type  2   force =     0.00000000   -0.00089366    0.00000407

     Total force =     0.002577     Total SCF correction =     0.000003


     Computing stress (Cartesian axis) and pressure

          total   stress  (Ry/bohr**3)                   (kbar)     P=  -80.02
  -0.00056020   0.00000000   0.00000000        -82.41      0.00      0.00
   0.00000000  -0.00051133   0.00000000          0.00    -75.22      0.00
   0.00000000   0.00000000  -0.00056031          0.00      0.00    -82.42


     number of scf cycles    =   3
     number of bfgs steps    =   2

     energy   old            =    -608.3924180036 Ry
     energy   new            =    -608.3924483160 Ry

     CASE: energy  _new < energy  _old

     new trust radius        =       0.0031396774 bohr
     new conv_thr            =       0.0000000003 Ry


ATOMIC_POSITIONS (alat)
Mg       0.000000000   0.000983652  -0.000004114
Mg       0.000000000   0.499006340   0.500004101
Mg       0.500000000   0.001020062   0.500004136
Mg       0.500000000   0.499006337  -0.000004214
O        0.500000000   0.001078677  -0.000004505
O        0.000000000   0.498914744  -0.000004523
O        0.000000000   0.001078712   0.500004547
O        0.500000000   0.498911474   0.500004571



     Writing output data file diamond.8.07922979850.70.4.save
     NEW-OLD atomic charge density approx. for the potential

     Check: negative/imaginary core charge=   -0.000007    0.000000

     total cpu time spent up to now is       30.4 secs

     per-process dynamical memory:    51.9 Mb

     Self-consistent Calculation

     iteration #  1     ecut=    70.00 Ry     beta=0.70
     Davidson diagonalization with overlap
     ethr =  1.00E-06,  avg # of iterations =  3.0

     Threshold (ethr) on eigenvalues was too large:
     Diagonalizing with lowered threshold

     Davidson diagonalization with overlap
     ethr =  1.96E-08,  avg # of iterations =  1.1

     total cpu time spent up to now is       33.2 secs

     total energy              =    -608.39245521 Ry
     Harris-Foulkes estimate   =    -608.39246451 Ry
     estimated scf accuracy    <       0.00001271 Ry

     iteration #  2     ecut=    70.00 Ry     beta=0.70
     Davidson diagonalization with overlap
     ethr =  1.99E-08,  avg # of iterations =  2.2

     total cpu time spent up to now is       34.4 secs

     total energy              =    -608.39245905 Ry
     Harris-Foulkes estimate   =    -608.39246034 Ry
     estimated scf accuracy    <       0.00000215 Ry

     iteration #  3     ecut=    70.00 Ry     beta=0.70
     Davidson diagonalization with overlap
     ethr =  3.36E-09,  avg # of iterations =  2.0

     total cpu time spent up to now is       35.6 secs

     total energy              =    -608.39245952 Ry
     Harris-Foulkes estimate   =    -608.39245951 Ry
     estimated scf accuracy    <       0.00000002 Ry

     iteration #  4     ecut=    70.00 Ry     beta=0.70
     Davidson diagonalization with overlap
     ethr =  2.38E-11,  avg # of iterations =  2.2

     total cpu time spent up to now is       37.0 secs

     total energy              =    -608.39245952 Ry
     Harris-Foulkes estimate   =    -608.39245952 Ry
     estimated scf accuracy    <          1.0E-09 Ry

     iteration #  5     ecut=    70.00 Ry     beta=0.70
     Davidson diagonalization with overlap
     ethr =  1.56E-12,  avg # of iterations =  2.0

     total cpu time spent up to now is       38.2 secs

     End of self-consistent calculation

          k = 0.0000 0.0000 0.0000 (  5185 PWs)   bands (ev):

   -64.9667 -64.9577 -64.9576 -64.9569 -31.7603 -31.7603 -31.7581 -31.7247
   -31.7247 -31.7237 -31.7237 -31.7220 -31.7220 -31.6982 -31.6982 -31.6958
    -9.4252  -8.0015  -8.0014  -7.9904   3.6858   3.6858   3.6997   6.2792
     6.2793   6.2827   6.2830   6.3096   6.3096   7.5644   7.5745   7.5746

          k = 0.0000 0.0000 0.2500 (  5190 PWs)   bands (ev):

   -64.9654 -64.9589 -64.9576 -64.9570 -31.7546 -31.7520 -31.7517 -31.7301
   -31.7268 -31.7251 -31.7244 -31.7202 -31.7178 -31.7111 -31.7031 -31.7008
    -9.2208  -8.2126  -7.9726  -7.9647   3.9736   3.9865   4.0193   5.7634
     5.7702   6.0780   6.0987   6.4444   6.4692   6.5633   7.3445   7.3579

          k = 0.0000 0.0000-0.5000 (  5198 PWs)   bands (ev):

   -64.9623 -64.9619 -64.9576 -64.9571 -31.7429 -31.7426 -31.7386 -31.7384
   -31.7324 -31.7324 -31.7260 -31.7259 -31.7116 -31.7113 -31.7095 -31.7093
    -8.7203  -8.7203  -7.9412  -7.9411   4.7634   4.7635   4.7753   4.7753
     5.0389   5.0391   5.8932   5.8935   6.8667   6.8667   6.8866   6.8866

          k = 0.0000 0.2511 0.0000 (  5185 PWs)   bands (ev):

   -64.9654 -64.9588 -64.9577 -64.9571 -31.7544 -31.7544 -31.7484 -31.7294
   -31.7294 -31.7228 -31.7227 -31.7210 -31.7210 -31.7071 -31.7030 -31.7030
    -9.2184  -8.2020  -7.9730  -7.9729   3.9765   3.9765   4.0271   5.7867
     5.7867   6.0712   6.0715   6.4422   6.4423   6.5548   7.3522   7.3522

          k = 0.0000 0.2511 0.2500 (  5199 PWs)   bands (ev):

   -64.9642 -64.9588 -64.9584 -64.9574 -31.7516 -31.7499 -31.7492 -31.7367
   -31.7264 -31.7257 -31.7229 -31.7184 -31.7176 -31.7161 -31.7074 -31.6998
    -9.0322  -8.1483  -8.1404  -7.9770   4.0860   4.0896   4.2537   4.9926
     5.7502   5.9609   5.9814   6.3860   6.3931   6.4982   7.0804   7.4064

          k = 0.0000 0.2511-0.5000 (  5192 PWs)   bands (ev):

   -64.9616 -64.9612 -64.9583 -64.9577 -31.7463 -31.7461 -31.7404 -31.7404
   -31.7379 -31.7377 -31.7169 -31.7166 -31.7148 -31.7147 -31.7056 -31.7054
    -8.5852  -8.5852  -8.0298  -8.0297   4.3421   4.3422   4.6667   4.6669
     5.0137   5.0137   6.4657   6.4659   6.4936   6.4936   6.9957   6.9958

          k = 0.0000-0.5022 0.0000 (  5190 PWs)   bands (ev):

   -64.9623 -64.9618 -64.9577 -64.9571 -31.7426 -31.7426 -31.7424 -31.7424
   -31.7302 -31.7301 -31.7208 -31.7208 -31.7120 -31.7120 -31.7118 -31.7118
    -8.7130  -8.7128  -7.9441  -7.9441   4.7748   4.7748   4.7752   4.7752
     5.0348   5.0350   5.8721   5.8724   6.8690   6.8691   6.8691   6.8692

          k = 0.0000-0.5022 0.2500 (  5188 PWs)   bands (ev):

   -64.9616 -64.9612 -64.9584 -64.9578 -31.7469 -31.7467 -31.7392 -31.7392
   -31.7376 -31.7374 -31.7172 -31.7170 -31.7135 -31.7135 -31.7070 -31.7068
    -8.5804  -8.5802  -8.0325  -8.0324   4.3418   4.3421   4.6635   4.6638
     5.0220   5.0224   6.4531   6.4533   6.4821   6.4823   7.0004   7.0005

          k = 0.0000-0.5022-0.5000 (  5224 PWs)   bands (ev):

   -64.9600 -64.9600 -64.9600 -64.9590 -31.7484 -31.7482 -31.7481 -31.7481
   -31.7283 -31.7282 -31.7281 -31.7279 -31.7072 -31.7070 -31.7069 -31.7069
    -8.2844  -8.2843  -8.2842  -8.2842   4.2116   4.2117   4.2118   4.2120
     5.6849   5.6849   5.6854   5.6854   6.9725   6.9726   6.9726   6.9728

          k = 0.2500 0.0000 0.0000 (  5190 PWs)   bands (ev):

   -64.9654 -64.9589 -64.9576 -64.9570 -31.7546 -31.7520 -31.7517 -31.7301
   -31.7268 -31.7251 -31.7244 -31.7203 -31.7178 -31.7111 -31.7031 -31.7008
    -9.2208  -8.2125  -7.9726  -7.9647   3.9735   3.9865   4.0193   5.7634
     5.7703   6.0779   6.0987   6.4443   6.4692   6.5633   7.3444   7.3579

          k = 0.2500 0.0000 0.2500 (  5193 PWs)   bands (ev):

   -64.9642 -64.9588 -64.9585 -64.9574 -31.7516 -31.7514 -31.7473 -31.7382
   -31.7237 -31.7230 -31.7229 -31.7195 -31.7181 -31.7180 -31.7050 -31.7013
    -9.0344  -8.1485  -8.1484  -7.9717   4.0887   4.0887   4.2633   4.9924
     5.7629   5.9654   5.9657   6.4057   6.4057   6.4841   7.0706   7.4082

          k = 0.2500 0.0000-0.5000 (  5194 PWs)   bands (ev):

   -64.9616 -64.9612 -64.9583 -64.9577 -31.7478 -31.7477 -31.7408 -31.7407
   -31.7354 -31.7352 -31.7159 -31.7159 -31.7141 -31.7139 -31.7077 -31.7075
    -8.5866  -8.5865  -8.0314  -8.0313   4.3481   4.3481   4.6768   4.6771
     5.0209   5.0209   6.4562   6.4564   6.4805   6.4805   7.0033   7.0034

          k = 0.2500 0.2511 0.0000 (  5199 PWs)   bands (ev):

   -64.9642 -64.9588 -64.9584 -64.9574 -31.7516 -31.7499 -31.7492 -31.7367
   -31.7264 -31.7257 -31.7229 -31.7184 -31.7176 -31.7161 -31.7074 -31.6998
    -9.0322  -8.1482  -8.1404  -7.9771   4.0860   4.0896   4.2537   4.9926
     5.7502   5.9609   5.9814   6.3859   6.3930   6.4982   7.0804   7.4064

          k = 0.2500 0.2511 0.2500 (  5189 PWs)   bands (ev):

   -64.9632 -64.9588 -64.9588 -64.9580 -31.7553 -31.7551 -31.7536 -31.7362
   -31.7242 -31.7240 -31.7234 -31.7157 -31.7142 -31.7142 -31.7041 -31.7017
    -8.8660  -8.1154  -8.1153  -8.1098   3.9278   3.9295   3.9295   5.0032
     5.7598   5.7599   5.7665   6.6064   6.6182   6.6184   7.2578   7.2593

          k = 0.2500 0.2511-0.5000 (  5170 PWs)   bands (ev):

   -64.9611 -64.9607 -64.9588 -64.9582 -31.7574 -31.7572 -31.7507 -31.7506
   -31.7228 -31.7225 -31.7121 -31.7121 -31.7099 -31.7098 -31.7076 -31.7074
    -8.4770  -8.4770  -8.0804  -8.0803   3.7522   3.7523   4.1238   4.1240
     5.7467   5.7467   6.6507   6.6510   6.7750   6.7752   6.9247   6.9247

          k = 0.2500-0.5022 0.0000 (  5188 PWs)   bands (ev):

   -64.9616 -64.9612 -64.9584 -64.9578 -31.7469 -31.7467 -31.7392 -31.7392
   -31.7376 -31.7374 -31.7172 -31.7170 -31.7135 -31.7135 -31.7070 -31.7068
    -8.5804  -8.5802  -8.0324  -8.0324   4.3418   4.3421   4.6635   4.6637
     5.0220   5.0224   6.4531   6.4533   6.4822   6.4823   7.0004   7.0005

          k = 0.2500-0.5022 0.2500 (  5174 PWs)   bands (ev):

   -64.9611 -64.9607 -64.9588 -64.9582 -31.7575 -31.7573 -31.7504 -31.7503
   -31.7239 -31.7237 -31.7104 -31.7104 -31.7104 -31.7102 -31.7083 -31.7083
    -8.4731  -8.4729  -8.0818  -8.0817   3.7513   3.7513   4.1170   4.1172
     5.7474   5.7475   6.6472   6.6474   6.7809   6.7812   6.9176   6.9176

          k = 0.2500-0.5022-0.5000 (  5200 PWs)   bands (ev):

   -64.9600 -64.9600 -64.9600 -64.9590 -31.7611 -31.7609 -31.7608 -31.7608
   -31.7153 -31.7151 -31.7151 -31.7149 -31.7063 -31.7062 -31.7060 -31.7060
    -8.2484  -8.2483  -8.2482  -8.2482   3.5688   3.5689   3.5689   3.5690
     6.4334   6.4335   6.4337   6.4337   6.9735   6.9737   6.9737   6.9738

          k =-0.5000 0.0000 0.0000 (  5198 PWs)   bands (ev):

   -64.9623 -64.9619 -64.9576 -64.9571 -31.7429 -31.7427 -31.7386 -31.7384
   -31.7324 -31.7324 -31.7259 -31.7259 -31.7116 -31.7113 -31.7095 -31.7093
    -8.7203  -8.7202  -7.9412  -7.9411   4.7635   4.7635   4.7753   4.7754
     5.0389   5.0391   5.8931   5.8934   6.8667   6.8667   6.8867   6.8867

          k =-0.5000 0.0000 0.2500 (  5194 PWs)   bands (ev):

   -64.9616 -64.9612 -64.9583 -64.9577 -31.7478 -31.7477 -31.7408 -31.7407
   -31.7354 -31.7352 -31.7159 -31.7159 -31.7141 -31.7139 -31.7077 -31.7075
    -8.5865  -8.5865  -8.0314  -8.0313   4.3481   4.3481   4.6768   4.6770
     5.0209   5.0209   6.4561   6.4564   6.4804   6.4804   7.0034   7.0034

          k =-0.5000 0.0000-0.5000 (  5248 PWs)   bands (ev):

   -64.9600 -64.9600 -64.9600 -64.9590 -31.7498 -31.7496 -31.7494 -31.7494
   -31.7261 -31.7259 -31.7259 -31.7256 -31.7091 -31.7089 -31.7088 -31.7088
    -8.2873  -8.2872  -8.2872  -8.2872   4.2276   4.2277   4.2277   4.2279
     5.6832   5.6832   5.6835   5.6835   6.9661   6.9663   6.9663   6.9664

          k =-0.5000 0.2511 0.0000 (  5192 PWs)   bands (ev):

   -64.9616 -64.9612 -64.9583 -64.9577 -31.7463 -31.7461 -31.7404 -31.7404
   -31.7379 -31.7377 -31.7169 -31.7166 -31.7148 -31.7147 -31.7056 -31.7054
    -8.5852  -8.5851  -8.0298  -8.0297   4.3421   4.3422   4.6667   4.6669
     5.0137   5.0137   6.4656   6.4659   6.4936   6.4936   6.9957   6.9958

          k =-0.5000 0.2511 0.2500 (  5170 PWs)   bands (ev):

   -64.9611 -64.9607 -64.9588 -64.9582 -31.7574 -31.7572 -31.7507 -31.7506
   -31.7228 -31.7225 -31.7121 -31.7121 -31.7099 -31.7098 -31.7076 -31.7074
    -8.4770  -8.4769  -8.0804  -8.0803   3.7522   3.7523   4.1238   4.1239
     5.7467   5.7467   6.6507   6.6509   6.7750   6.7752   6.9247   6.9247

          k =-0.5000 0.2511-0.5000 (  5208 PWs)   bands (ev):

   -64.9600 -64.9600 -64.9600 -64.9590 -31.7615 -31.7613 -31.7612 -31.7612
   -31.7132 -31.7130 -31.7130 -31.7128 -31.7085 -31.7083 -31.7081 -31.7081
    -8.2499  -8.2497  -8.2497  -8.2497   3.5741   3.5743   3.5743   3.5743
     6.4385   6.4386   6.4388   6.4388   6.9672   6.9674   6.9674   6.9676

          k =-0.5000-0.5022 0.0000 (  5224 PWs)   bands (ev):

   -64.9600 -64.9600 -64.9600 -64.9590 -31.7484 -31.7482 -31.7481 -31.7481
   -31.7284 -31.7282 -31.7282 -31.7279 -31.7072 -31.7070 -31.7069 -31.7069
    -8.2843  -8.2843  -8.2842  -8.2841   4.2116   4.2116   4.2118   4.2120
     5.6849   5.6849   5.6854   5.6854   6.9725   6.9726   6.9727   6.9728

          k =-0.5000-0.5022 0.2500 (  5200 PWs)   bands (ev):

   -64.9600 -64.9600 -64.9600 -64.9590 -31.7611 -31.7609 -31.7608 -31.7608
   -31.7153 -31.7151 -31.7151 -31.7149 -31.7063 -31.7061 -31.7060 -31.7060
    -8.2484  -8.2483  -8.2482  -8.2482   3.5687   3.5688   3.5689   3.5690
     6.4334   6.4334   6.4337   6.4337   6.9735   6.9737   6.9737   6.9739

          k =-0.5000-0.5022-0.5000 (  5232 PWs)   bands (ev):

   -64.9600 -64.9600 -64.9599 -64.9589 -31.7698 -31.7696 -31.7696 -31.7696
   -31.7084 -31.7082 -31.7081 -31.7081 -31.7062 -31.7060 -31.7060 -31.7058
    -8.2119  -8.2118  -8.2117  -8.2117   3.1517   3.1519   3.1519   3.1519
     6.9682   6.9683   6.9683   6.9685   6.9763   6.9764   6.9765   6.9765

          k = 0.0000 0.2511-0.2500 (  5199 PWs)   bands (ev):

   -64.9642 -64.9588 -64.9584 -64.9574 -31.7516 -31.7499 -31.7492 -31.7367
   -31.7264 -31.7257 -31.7229 -31.7184 -31.7176 -31.7161 -31.7074 -31.6998
    -9.0322  -8.1483  -8.1404  -7.9770   4.0860   4.0896   4.2537   4.9926
     5.7502   5.9609   5.9814   6.3860   6.3931   6.4982   7.0804   7.4064

          k =-0.2500 0.2511-0.2500 (  5189 PWs)   bands (ev):

   -64.9632 -64.9588 -64.9588 -64.9580 -31.7553 -31.7551 -31.7536 -31.7362
   -31.7242 -31.7240 -31.7234 -31.7157 -31.7142 -31.7142 -31.7041 -31.7017
    -8.8660  -8.1154  -8.1153  -8.1098   3.9278   3.9295   3.9295   5.0032
     5.7598   5.7599   5.7665   6.6064   6.6182   6.6184   7.2578   7.2593

          k = 0.5000 0.2511-0.2500 (  5170 PWs)   bands (ev):

   -64.9611 -64.9607 -64.9588 -64.9582 -31.7574 -31.7572 -31.7507 -31.7506
   -31.7228 -31.7225 -31.7121 -31.7121 -31.7099 -31.7098 -31.7076 -31.7074
    -8.4770  -8.4769  -8.0804  -8.0803   3.7522   3.7523   4.1238   4.1239
     5.7467   5.7467   6.6507   6.6509   6.7750   6.7752   6.9247   6.9247

     highest occupied level (ev):     7.5746

!    total energy              =    -608.39245952 Ry
     Harris-Foulkes estimate   =    -608.39245952 Ry
     estimated scf accuracy    <          1.5E-10 Ry

     The total energy is the sum of the following terms:

     one-electron contribution =    -305.21558861 Ry
     hartree contribution      =     168.62128329 Ry
     xc contribution           =     -97.81151753 Ry
     ewald contribution        =    -373.98663668 Ry

     convergence has been achieved in   5 iterations

     Forces acting on atoms (cartesian axes, Ry/au):

     atom    1 type  1   force =     0.00000000    0.00001167   -0.00000029
     atom    2 type  1   force =     0.00000000   -0.00009654    0.00000068
     atom    3 type  1   force =     0.00000000    0.00012044    0.00000067
     atom    4 type  1   force =     0.00000000   -0.00009655   -0.00000081
     atom    5 type  2   force =     0.00000000   -0.00005564   -0.00000002
     atom    6 type  2   force =     0.00000000    0.00007955    0.00000000
     atom    7 type  2   force =     0.00000000   -0.00005561   -0.00000011
     atom    8 type  2   force =     0.00000000    0.00009269   -0.00000013

     Total force =     0.000233     Total SCF correction =     0.000116
     SCF correction compared to forces is large: reduce conv_thr to get better values


     Computing stress (Cartesian axis) and pressure

          total   stress  (Ry/bohr**3)                   (kbar)     P=  -80.03
  -0.00056021   0.00000000   0.00000000        -82.41      0.00      0.00
   0.00000000  -0.00051157   0.00000000          0.00    -75.25      0.00
   0.00000000   0.00000000  -0.00056032          0.00      0.00    -82.43


     number of scf cycles    =   4
     number of bfgs steps    =   3

     energy   old            =    -608.3924483160 Ry
     energy   new            =    -608.3924595243 Ry

     CASE: energy  _new < energy  _old

     new trust radius        =       0.0001384123 bohr
     new conv_thr            =       0.0000000001 Ry


ATOMIC_POSITIONS (alat)
Mg       0.000000000   0.000987150  -0.000004158
Mg       0.000000000   0.498992243   0.500004195
Mg       0.500000000   0.001037194   0.500004228
Mg       0.500000000   0.498992238  -0.000004324
O        0.500000000   0.001073975  -0.000004516
O        0.000000000   0.498922415  -0.000004532
O        0.000000000   0.001074012   0.500004543
O        0.500000000   0.498920774   0.500004565



     Writing output data file diamond.8.07922979850.70.4.save
     NEW-OLD atomic charge density approx. for the potential

     Check: negative/imaginary core charge=   -0.000007    0.000000

     total cpu time spent up to now is       39.0 secs

     per-process dynamical memory:    51.9 Mb

     Self-consistent Calculation

     iteration #  1     ecut=    70.00 Ry     beta=0.70
     Davidson diagonalization with overlap
     ethr =  1.00E-06,  avg # of iterations =  1.2

     Threshold (ethr) on eigenvalues was too large:
     Diagonalizing with lowered threshold

     Davidson diagonalization with overlap
     ethr =  1.48E-11,  avg # of iterations =  3.2

     total cpu time spent up to now is       41.8 secs

     total energy              =    -608.39245957 Ry
     Harris-Foulkes estimate   =    -608.39245957 Ry
     estimated scf accuracy    <          1.8E-09 Ry

     iteration #  2     ecut=    70.00 Ry     beta=0.70
     Davidson diagonalization with overlap
     ethr =  2.83E-12,  avg # of iterations =  3.0

     total cpu time spent up to now is       43.2 secs

     total energy              =    -608.39245957 Ry
     Harris-Foulkes estimate   =    -608.39245957 Ry
     estimated scf accuracy    <          7.4E-10 Ry

     iteration #  3     ecut=    70.00 Ry     beta=0.70
     Davidson diagonalization with overlap
     ethr =  1.15E-12,  avg # of iterations =  3.0

     total cpu time spent up to now is       44.5 secs

     total energy              =    -608.39245957 Ry
     Harris-Foulkes estimate   =    -608.39245957 Ry
     estimated scf accuracy    <          1.5E-10 Ry

     iteration #  4     ecut=    70.00 Ry     beta=0.70
     Davidson diagonalization with overlap
     ethr =  2.31E-13,  avg # of iterations =  2.8

     total cpu time spent up to now is       45.8 secs

     End of self-consistent calculation

          k = 0.0000 0.0000 0.0000 (  5185 PWs)   bands (ev):

   -64.9667 -64.9577 -64.9576 -64.9569 -31.7603 -31.7603 -31.7581 -31.7247
   -31.7247 -31.7237 -31.7237 -31.7220 -31.7220 -31.6982 -31.6982 -31.6958
    -9.4252  -8.0015  -8.0014  -7.9904   3.6858   3.6858   3.6997   6.2791
     6.2793   6.2827   6.2830   6.3096   6.3096   7.5644   7.5745   7.5745

          k = 0.0000 0.0000 0.2500 (  5190 PWs)   bands (ev):

   -64.9654 -64.9589 -64.9576 -64.9570 -31.7546 -31.7520 -31.7517 -31.7301
   -31.7268 -31.7251 -31.7244 -31.7202 -31.7178 -31.7111 -31.7031 -31.7008
    -9.2208  -8.2126  -7.9726  -7.9647   3.9736   3.9865   4.0193   5.7633
     5.7702   6.0780   6.0987   6.4444   6.4692   6.5633   7.3445   7.3579

          k = 0.0000 0.0000-0.5000 (  5198 PWs)   bands (ev):

   -64.9623 -64.9619 -64.9576 -64.9571 -31.7429 -31.7426 -31.7386 -31.7384
   -31.7324 -31.7324 -31.7260 -31.7259 -31.7116 -31.7113 -31.7095 -31.7093
    -8.7204  -8.7203  -7.9412  -7.9411   4.7634   4.7635   4.7753   4.7753
     5.0389   5.0391   5.8932   5.8935   6.8667   6.8667   6.8866   6.8866

          k = 0.0000 0.2511 0.0000 (  5185 PWs)   bands (ev):

   -64.9654 -64.9588 -64.9577 -64.9571 -31.7544 -31.7544 -31.7484 -31.7294
   -31.7294 -31.7228 -31.7227 -31.7210 -31.7210 -31.7071 -31.7030 -31.7030
    -9.2184  -8.2020  -7.9730  -7.9729   3.9764   3.9765   4.0271   5.7867
     5.7867   6.0712   6.0715   6.4422   6.4423   6.5548   7.3522   7.3522

          k = 0.0000 0.2511 0.2500 (  5199 PWs)   bands (ev):

   -64.9642 -64.9588 -64.9584 -64.9574 -31.7516 -31.7499 -31.7492 -31.7367
   -31.7264 -31.7257 -31.7229 -31.7184 -31.7176 -31.7161 -31.7074 -31.6998
    -9.0322  -8.1483  -8.1404  -7.9770   4.0860   4.0896   4.2537   4.9925
     5.7502   5.9609   5.9814   6.3860   6.3930   6.4982   7.0804   7.4064

          k = 0.0000 0.2511-0.5000 (  5192 PWs)   bands (ev):

   -64.9616 -64.9612 -64.9583 -64.9577 -31.7463 -31.7461 -31.7404 -31.7404
   -31.7379 -31.7377 -31.7169 -31.7166 -31.7148 -31.7147 -31.7056 -31.7054
    -8.5852  -8.5852  -8.0298  -8.0297   4.3421   4.3422   4.6667   4.6669
     5.0137   5.0137   6.4657   6.4659   6.4936   6.4936   6.9957   6.9958

          k = 0.0000-0.5022 0.0000 (  5190 PWs)   bands (ev):

   -64.9623 -64.9618 -64.9577 -64.9571 -31.7426 -31.7426 -31.7424 -31.7424
   -31.7302 -31.7301 -31.7208 -31.7208 -31.7120 -31.7120 -31.7118 -31.7118
    -8.7130  -8.7128  -7.9441  -7.9441   4.7747   4.7748   4.7752   4.7752
     5.0348   5.0350   5.8721   5.8724   6.8690   6.8690   6.8691   6.8692

          k = 0.0000-0.5022 0.2500 (  5188 PWs)   bands (ev):

   -64.9616 -64.9611 -64.9584 -64.9578 -31.7469 -31.7467 -31.7392 -31.7392
   -31.7376 -31.7374 -31.7172 -31.7170 -31.7135 -31.7135 -31.7070 -31.7068
    -8.5804  -8.5802  -8.0325  -8.0324   4.3418   4.3421   4.6635   4.6637
     5.0220   5.0225   6.4530   6.4533   6.4821   6.4823   7.0004   7.0005

          k = 0.0000-0.5022-0.5000 (  5224 PWs)   bands (ev):

   -64.9600 -64.9600 -64.9600 -64.9590 -31.7484 -31.7482 -31.7481 -31.7481
   -31.7283 -31.7282 -31.7281 -31.7279 -31.7072 -31.7070 -31.7069 -31.7069
    -8.2844  -8.2843  -8.2842  -8.2841   4.2117   4.2117   4.2118   4.2120
     5.6849   5.6849   5.6854   5.6854   6.9725   6.9726   6.9726   6.9728

          k = 0.2500 0.0000 0.0000 (  5190 PWs)   bands (ev):

   -64.9654 -64.9589 -64.9576 -64.9570 -31.7546 -31.7520 -31.7517 -31.7301
   -31.7268 -31.7251 -31.7244 -31.7202 -31.7178 -31.7111 -31.7031 -31.7008
    -9.2208  -8.2125  -7.9726  -7.9647   3.9735   3.9865   4.0193   5.7634
     5.7703   6.0779   6.0987   6.4443   6.4692   6.5633   7.3444   7.3579

          k = 0.2500 0.0000 0.2500 (  5193 PWs)   bands (ev):

   -64.9642 -64.9588 -64.9585 -64.9574 -31.7516 -31.7514 -31.7473 -31.7382
   -31.7237 -31.7230 -31.7229 -31.7195 -31.7181 -31.7180 -31.7050 -31.7013
    -9.0344  -8.1485  -8.1484  -7.9717   4.0887   4.0887   4.2633   4.9924
     5.7629   5.9654   5.9657   6.4057   6.4057   6.4841   7.0706   7.4082

          k = 0.2500 0.0000-0.5000 (  5194 PWs)   bands (ev):

   -64.9616 -64.9612 -64.9583 -64.9577 -31.7478 -31.7477 -31.7408 -31.7407
   -31.7354 -31.7352 -31.7159 -31.7159 -31.7141 -31.7139 -31.7077 -31.7075
    -8.5866  -8.5865  -8.0314  -8.0313   4.3481   4.3481   4.6768   4.6771
     5.0209   5.0209   6.4562   6.4564   6.4804   6.4805   7.0033   7.0034

          k = 0.2500 0.2511 0.0000 (  5199 PWs)   bands (ev):

   -64.9642 -64.9588 -64.9584 -64.9574 -31.7516 -31.7499 -31.7492 -31.7367
   -31.7264 -31.7257 -31.7229 -31.7184 -31.7176 -31.7161 -31.7074 -31.6998
    -9.0322  -8.1482  -8.1404  -7.9771   4.0860   4.0896   4.2537   4.9926
     5.7501   5.9609   5.9814   6.3859   6.3930   6.4982   7.0804   7.4064

          k = 0.2500 0.2511 0.2500 (  5189 PWs)   bands (ev):

   -64.9632 -64.9588 -64.9588 -64.9580 -31.7553 -31.7551 -31.7536 -31.7362
   -31.7242 -31.7240 -31.7234 -31.7157 -31.7142 -31.7142 -31.7041 -31.7017
    -8.8660  -8.1154  -8.1153  -8.1098   3.9278   3.9295   3.9295   5.0032
     5.7598   5.7599   5.7665   6.6064   6.6182   6.6184   7.2578   7.2593

          k = 0.2500 0.2511-0.5000 (  5170 PWs)   bands (ev):

   -64.9611 -64.9607 -64.9588 -64.9582 -31.7574 -31.7572 -31.7507 -31.7506
   -31.7228 -31.7225 -31.7121 -31.7121 -31.7099 -31.7098 -31.7076 -31.7074
    -8.4770  -8.4770  -8.0804  -8.0803   3.7522   3.7523   4.1238   4.1240
     5.7467   5.7467   6.6507   6.6509   6.7750   6.7752   6.9247   6.9247

          k = 0.2500-0.5022 0.0000 (  5188 PWs)   bands (ev):

   -64.9616 -64.9611 -64.9584 -64.9578 -31.7469 -31.7467 -31.7392 -31.7392
   -31.7376 -31.7374 -31.7172 -31.7170 -31.7135 -31.7135 -31.7070 -31.7068
    -8.5804  -8.5802  -8.0325  -8.0324   4.3418   4.3420   4.6635   4.6637
     5.0220   5.0224   6.4531   6.4533   6.4821   6.4823   7.0004   7.0005

          k = 0.2500-0.5022 0.2500 (  5174 PWs)   bands (ev):

   -64.9611 -64.9607 -64.9588 -64.9582 -31.7575 -31.7573 -31.7504 -31.7503
   -31.7239 -31.7237 -31.7104 -31.7104 -31.7104 -31.7102 -31.7083 -31.7083
    -8.4731  -8.4729  -8.0818  -8.0817   3.7513   3.7513   4.1170   4.1172
     5.7474   5.7475   6.6472   6.6474   6.7809   6.7811   6.9175   6.9176

          k = 0.2500-0.5022-0.5000 (  5200 PWs)   bands (ev):

   -64.9600 -64.9600 -64.9600 -64.9589 -31.7611 -31.7609 -31.7608 -31.7608
   -31.7153 -31.7151 -31.7151 -31.7149 -31.7063 -31.7062 -31.7060 -31.7060
    -8.2484  -8.2483  -8.2482  -8.2482   3.5688   3.5689   3.5689   3.5689
     6.4334   6.4334   6.4337   6.4337   6.9735   6.9736   6.9737   6.9738

          k =-0.5000 0.0000 0.0000 (  5198 PWs)   bands (ev):

   -64.9623 -64.9619 -64.9576 -64.9571 -31.7429 -31.7427 -31.7386 -31.7384
   -31.7324 -31.7324 -31.7259 -31.7259 -31.7116 -31.7113 -31.7095 -31.7093
    -8.7203  -8.7202  -7.9412  -7.9411   4.7634   4.7635   4.7753   4.7754
     5.0388   5.0391   5.8931   5.8934   6.8666   6.8667   6.8866   6.8867

          k =-0.5000 0.0000 0.2500 (  5194 PWs)   bands (ev):

   -64.9616 -64.9612 -64.9583 -64.9577 -31.7478 -31.7477 -31.7408 -31.7407
   -31.7354 -31.7352 -31.7159 -31.7159 -31.7141 -31.7139 -31.7077 -31.7075
    -8.5866  -8.5865  -8.0314  -8.0313   4.3481   4.3481   4.6768   4.6770
     5.0209   5.0209   6.4561   6.4564   6.4804   6.4804   7.0034   7.0034

          k =-0.5000 0.0000-0.5000 (  5248 PWs)   bands (ev):

   -64.9600 -64.9600 -64.9600 -64.9590 -31.7498 -31.7496 -31.7494 -31.7494
   -31.7261 -31.7259 -31.7259 -31.7256 -31.7091 -31.7089 -31.7088 -31.7088
    -8.2873  -8.2872  -8.2872  -8.2872   4.2276   4.2277   4.2277   4.2279
     5.6831   5.6832   5.6835   5.6835   6.9661   6.9663   6.9663   6.9664

          k =-0.5000 0.2511 0.0000 (  5192 PWs)   bands (ev):

   -64.9616 -64.9612 -64.9583 -64.9577 -31.7463 -31.7461 -31.7404 -31.7404
   -31.7379 -31.7377 -31.7169 -31.7166 -31.7148 -31.7147 -31.7056 -31.7054
    -8.5852  -8.5851  -8.0298  -8.0297   4.3421   4.3422   4.6667   4.6669
     5.0137   5.0137   6.4656   6.4659   6.4936   6.4936   6.9957   6.9958

          k =-0.5000 0.2511 0.2500 (  5170 PWs)   bands (ev):

   -64.9611 -64.9607 -64.9588 -64.9582 -31.7574 -31.7572 -31.7507 -31.7506
   -31.7228 -31.7225 -31.7121 -31.7121 -31.7099 -31.7098 -31.7076 -31.7074
    -8.4770  -8.4769  -8.0804  -8.0803   3.7522   3.7523   4.1238   4.1239
     5.7467   5.7467   6.6507   6.6509   6.7750   6.7752   6.9247   6.9247

          k =-0.5000 0.2511-0.5000 (  5208 PWs)   bands (ev):

   -64.9600 -64.9600 -64.9600 -64.9589 -31.7615 -31.7613 -31.7612 -31.7612
   -31.7132 -31.7130 -31.7130 -31.7128 -31.7085 -31.7083 -31.7081 -31.7081
    -8.2499  -8.2497  -8.2497  -8.2497   3.5741   3.5743   3.5743   3.5743
     6.4385   6.4386   6.4388   6.4388   6.9672   6.9674   6.9674   6.9676

          k =-0.5000-0.5022 0.0000 (  5224 PWs)   bands (ev):

   -64.9600 -64.9600 -64.9600 -64.9590 -31.7484 -31.7482 -31.7481 -31.7481
   -31.7284 -31.7282 -31.7282 -31.7279 -31.7072 -31.7070 -31.7069 -31.7069
    -8.2844  -8.2843  -8.2842  -8.2841   4.2116   4.2117   4.2117   4.2119
     5.6849   5.6849   5.6854   5.6854   6.9725   6.9726   6.9726   6.9728

          k =-0.5000-0.5022 0.2500 (  5200 PWs)   bands (ev):

   -64.9600 -64.9600 -64.9600 -64.9589 -31.7611 -31.7609 -31.7608 -31.7608
   -31.7153 -31.7151 -31.7151 -31.7149 -31.7063 -31.7061 -31.7060 -31.7060
    -8.2484  -8.2483  -8.2482  -8.2482   3.5687   3.5689   3.5689   3.5689
     6.4334   6.4334   6.4337   6.4337   6.9735   6.9737   6.9737   6.9739

          k =-0.5000-0.5022-0.5000 (  5232 PWs)   bands (ev):

   -64.9600 -64.9600 -64.9599 -64.9589 -31.7698 -31.7696 -31.7696 -31.7696
   -31.7084 -31.7082 -31.7081 -31.7081 -31.7062 -31.7060 -31.7060 -31.7058
    -8.2119  -8.2117  -8.2117  -8.2117   3.1517   3.1519   3.1519   3.1519
     6.9682   6.9683   6.9683   6.9685   6.9763   6.9764   6.9765   6.9765

          k = 0.0000 0.2511-0.2500 (  5199 PWs)   bands (ev):

   -64.9642 -64.9588 -64.9584 -64.9574 -31.7516 -31.7499 -31.7492 -31.7367
   -31.7264 -31.7257 -31.7229 -31.7184 -31.7176 -31.7161 -31.7074 -31.6998
    -9.0322  -8.1483  -8.1404  -7.9770   4.0860   4.0896   4.2537   4.9925
     5.7502   5.9609   5.9814   6.3860   6.3930   6.4982   7.0804   7.4064

          k =-0.2500 0.2511-0.2500 (  5189 PWs)   bands (ev):

   -64.9632 -64.9588 -64.9588 -64.9580 -31.7553 -31.7551 -31.7536 -31.7362
   -31.7242 -31.7240 -31.7234 -31.7157 -31.7142 -31.7142 -31.7041 -31.7017
    -8.8660  -8.1154  -8.1153  -8.1098   3.9278   3.9295   3.9295   5.0032
     5.7598   5.7599   5.7665   6.6064   6.6182   6.6184   7.2578   7.2593

          k = 0.5000 0.2511-0.2500 (  5170 PWs)   bands (ev):

   -64.9611 -64.9607 -64.9588 -64.9582 -31.7574 -31.7572 -31.7507 -31.7506
   -31.7228 -31.7225 -31.7121 -31.7121 -31.7099 -31.7098 -31.7076 -31.7074
    -8.4770  -8.4769  -8.0804  -8.0803   3.7522   3.7523   4.1238   4.1239
     5.7467   5.7467   6.6507   6.6509   6.7750   6.7752   6.9247   6.9247

     highest occupied level (ev):     7.5745

!    total energy              =    -608.39245957 Ry
     Harris-Foulkes estimate   =    -608.39245957 Ry
     estimated scf accuracy    <          3.8E-12 Ry

     The total energy is the sum of the following terms:

     one-electron contribution =    -305.21559701 Ry
     hartree contribution      =     168.62129936 Ry
     xc contribution           =     -97.81152355 Ry
     ewald contribution        =    -373.98663837 Ry

     convergence has been achieved in   4 iterations

     Forces acting on atoms (cartesian axes, Ry/au):

     atom    1 type  1   force =     0.00000000   -0.00000681   -0.00000014
     atom    2 type  1   force =     0.00000000   -0.00006457    0.00000048
     atom    3 type  1   force =     0.00000000    0.00008453    0.00000047
     atom    4 type  1   force =     0.00000000   -0.00006459   -0.00000058
     atom    5 type  2   force =     0.00000000   -0.00003999   -0.00000001
     atom    6 type  2   force =     0.00000000    0.00005719    0.00000000
     atom    7 type  2   force =     0.00000000   -0.00004003   -0.00000008
     atom    8 type  2   force =     0.00000000    0.00007427   -0.00000014

     Total force =     0.000166     Total SCF correction =     0.000007


     Computing stress (Cartesian axis) and pressure

          total   stress  (Ry/bohr**3)                   (kbar)     P=  -80.03
  -0.00056018   0.00000000   0.00000000        -82.41      0.00      0.00
   0.00000000  -0.00051155   0.00000000          0.00    -75.25      0.00
   0.00000000   0.00000000  -0.00056030          0.00      0.00    -82.42


     bfgs converged in   5 scf cycles and   4 bfgs steps
     (criteria: energy <  1.0E-05 Ry, force <  1.0E-04 Ry/Bohr)

     End of BFGS Geometry Optimization

     Final energy   =    -608.3924595711 Ry
Begin final coordinates

ATOMIC_POSITIONS (alat)
Mg       0.000000000   0.000987150  -0.000004158
Mg       0.000000000   0.498992243   0.500004195
Mg       0.500000000   0.001037194   0.500004228
Mg       0.500000000   0.498992238  -0.000004324
O        0.500000000   0.001073975  -0.000004516
O        0.000000000   0.498922415  -0.000004532
O        0.000000000   0.001074012   0.500004543
O        0.500000000   0.498920774   0.500004565
End final coordinates



     Writing output data file diamond.8.07922979850.70.4.save
 
     init_run     :      0.55s CPU      0.57s WALL (       1 calls)
     electrons    :     40.99s CPU     42.13s WALL (       5 calls)
     update_pot   :      0.43s CPU      0.44s WALL (       4 calls)
     forces       :      0.81s CPU      0.82s WALL (       5 calls)
     stress       :      1.94s CPU      1.96s WALL (       5 calls)

     Called by init_run:
     wfcinit      :      0.43s CPU      0.44s WALL (       1 calls)
     potinit      :      0.05s CPU      0.05s WALL (       1 calls)

     Called by electrons:
     c_bands      :     35.73s CPU     36.72s WALL (      32 calls)
     sum_band     :      5.06s CPU      5.19s WALL (      32 calls)
     v_of_rho     :      0.17s CPU      0.17s WALL (      33 calls)
     mix_rho      :      0.02s CPU      0.02s WALL (      32 calls)

     Called by c_bands:
     init_us_2    :      0.53s CPU      0.57s WALL (    2250 calls)
     cegterg      :     33.30s CPU     34.20s WALL (     960 calls)

     Called by sum_band:

     Called by *egterg:
     h_psi        :     24.52s CPU     25.05s WALL (    3165 calls)
     g_psi        :      0.19s CPU      0.19s WALL (    2175 calls)
     cdiaghg      :      4.69s CPU      4.69s WALL (    2895 calls)

     Called by h_psi:
     h_psi:pot    :     24.43s CPU     24.92s WALL (    3165 calls)
     h_psi:calbec :      1.40s CPU      1.40s WALL (    3165 calls)
     vloc_psi     :     21.86s CPU     22.33s WALL (    3165 calls)
     add_vuspsi   :      1.17s CPU      1.18s WALL (    3165 calls)

     General routines
     calbec       :      1.81s CPU      1.81s WALL (    3915 calls)
     fft          :      0.11s CPU      0.11s WALL (     495 calls)
     fftw         :     24.87s CPU     24.48s WALL (  191608 calls)
     davcio       :      0.00s CPU      0.01s WALL (      30 calls)
 
     Parallel routines
     fft_scatter  :      6.37s CPU      6.32s WALL (  192103 calls)
 
     PWSCF        :    45.12s CPU        46.43s WALL

 
   This run was terminated on:  14:58:10  22Apr2018            

=------------------------------------------------------------------------------=
   JOB DONE.
=------------------------------------------------------------------------------=
