
     Program PWSCF v.6.1 (svn rev. 13369) starts on 22Apr2018 at 15: 0:43 

     This program is part of the open-source Quantum ESPRESSO suite
     for quantum simulation of materials; please cite
         "P. Giannozzi et al., J. Phys.:Condens. Matter 21 395502 (2009);
          URL http://www.quantum-espresso.org", 
     in publications or presentations arising from this work. More details at
     http://www.quantum-espresso.org/quote

     Parallel version (MPI), running on     8 processors
     R & G space division:  proc/nbgrp/npool/nimage =       8
     Waiting for input...
     Reading input from standard input
Warning: card       &CELL ignored
Warning: card       CELL_DYNAMICS = 'BFGS' ignored
Warning: card       PRESS = 0.0D0 ignored
Warning: card       PRESS_CONV_THR = 0.01D0 ignored
Warning: card       / ignored

     Current dimensions of program PWSCF are:
     Max number of different atomic species (ntypx) = 10
     Max number of k-points (npk) =  40000
     Max angular momentum in pseudopotentials (lmaxx) =  3

     Subspace diagonalization in iterative solution of the eigenvalue problem:
     a serial algorithm will be used

 
     Parallelization info
     --------------------
     sticks:   dense  smooth     PW     G-vecs:    dense   smooth      PW
     Min         182     182     52                 5228     5228     824
     Max         183     183     53                 5230     5230     829
     Sum        1457    1457    421                41827    41827    6619
 


     bravais-lattice index     =            8
     lattice parameter (alat)  =       8.1022  a.u.
     unit-cell volume          =     528.1046 (a.u.)^3
     number of atoms/cell      =            8
     number of atomic types    =            2
     number of electrons       =        64.00
     number of Kohn-Sham states=           32
     kinetic-energy cutoff     =      70.0000  Ry
     charge density cutoff     =     280.0000  Ry
     convergence threshold     =      1.0E-08
     mixing beta               =       0.7000
     number of iterations used =            8  plain     mixing
     Exchange-correlation      = PBE ( 1  4  3  4 0 0)
     nstep                     =           50


     celldm(1)=   8.102214  celldm(2)=   0.992857  celldm(3)=   1.000051
     celldm(4)=   0.000000  celldm(5)=   0.000000  celldm(6)=   0.000000

     crystal axes: (cart. coord. in units of alat)
               a(1) = (   1.000000   0.000000   0.000000 )  
               a(2) = (   0.000000   0.992857   0.000000 )  
               a(3) = (   0.000000   0.000000   1.000051 )  

     reciprocal axes: (cart. coord. in units 2 pi/alat)
               b(1) = (  1.000000  0.000000  0.000000 )  
               b(2) = (  0.000000  1.007194  0.000000 )  
               b(3) = (  0.000000  0.000000  0.999949 )  


     PseudoPot. # 1 for Mg read from file:
     ../pseudo/Mg.pbe.UPF
     MD5 check sum: 4c04d8c6e0476e83eaecaf72fa8acc4d
     Pseudo is Norm-conserving, Zval = 10.0
     Generated using ONCVPSP code by D. R. Hamann
     Using radial grid of 1510 points,  4 beta functions with: 
                l(1) =   0
                l(2) =   0
                l(3) =   1
                l(4) =   1

     PseudoPot. # 2 for O  read from file:
     ../pseudo/O.pbe.UPF
     MD5 check sum: 3e3f909f7470e8921608ab6b1f57bbae
     Pseudo is Norm-conserving + core correction, Zval =  6.0
     Generated using ONCVPSP code by D. R. Hamann
     Using radial grid of  936 points,  5 beta functions with: 
                l(1) =   0
                l(2) =   0
                l(3) =   1
                l(4) =   1
                l(5) =   2

     atomic species   valence    mass     pseudopotential
        Mg            10.00    24.30500     Mg( 1.00)
        O              6.00    15.99940     O ( 1.00)

      2 Sym. Ops. (no inversion) found



   Cartesian axes

     site n.     atom                  positions (alat units)
         1           Mg  tau(   1) = (   0.0000000   0.0000000   0.0000000  )
         2           Mg  tau(   2) = (   0.0000000   0.5000000   0.5000000  )
         3           Mg  tau(   3) = (   0.5000000   0.0000000   0.5000000  )
         4           Mg  tau(   4) = (   0.5000000   0.5000000   0.0000000  )
         5           O   tau(   5) = (   0.5000000   0.0000000   0.0000000  )
         6           O   tau(   6) = (   0.0000000   0.5000000   0.0000000  )
         7           O   tau(   7) = (   0.0000000   0.0000000   0.5000000  )
         8           O   tau(   8) = (   0.5000000   0.5000000   0.5000000  )

     number of k points=    30
                       cart. coord. in units 2pi/alat
        k(    1) = (   0.0000000   0.0000000   0.0000000), wk =   0.0312500
        k(    2) = (   0.0000000   0.0000000   0.2499872), wk =   0.0625000
        k(    3) = (   0.0000000   0.0000000  -0.4999745), wk =   0.0312500
        k(    4) = (   0.0000000   0.2517986   0.0000000), wk =   0.0625000
        k(    5) = (   0.0000000   0.2517986   0.2499872), wk =   0.0625000
        k(    6) = (   0.0000000   0.2517986  -0.4999745), wk =   0.0625000
        k(    7) = (   0.0000000  -0.5035972   0.0000000), wk =   0.0312500
        k(    8) = (   0.0000000  -0.5035972   0.2499872), wk =   0.0625000
        k(    9) = (   0.0000000  -0.5035972  -0.4999745), wk =   0.0312500
        k(   10) = (   0.2500000   0.0000000   0.0000000), wk =   0.0625000
        k(   11) = (   0.2500000   0.0000000   0.2499872), wk =   0.1250000
        k(   12) = (   0.2500000   0.0000000  -0.4999745), wk =   0.0625000
        k(   13) = (   0.2500000   0.2517986   0.0000000), wk =   0.1250000
        k(   14) = (   0.2500000   0.2517986   0.2499872), wk =   0.1250000
        k(   15) = (   0.2500000   0.2517986  -0.4999745), wk =   0.1250000
        k(   16) = (   0.2500000  -0.5035972   0.0000000), wk =   0.0625000
        k(   17) = (   0.2500000  -0.5035972   0.2499872), wk =   0.1250000
        k(   18) = (   0.2500000  -0.5035972  -0.4999745), wk =   0.0625000
        k(   19) = (  -0.5000000   0.0000000   0.0000000), wk =   0.0312500
        k(   20) = (  -0.5000000   0.0000000   0.2499872), wk =   0.0625000
        k(   21) = (  -0.5000000   0.0000000  -0.4999745), wk =   0.0312500
        k(   22) = (  -0.5000000   0.2517986   0.0000000), wk =   0.0625000
        k(   23) = (  -0.5000000   0.2517986   0.2499872), wk =   0.0625000
        k(   24) = (  -0.5000000   0.2517986  -0.4999745), wk =   0.0625000
        k(   25) = (  -0.5000000  -0.5035972   0.0000000), wk =   0.0312500
        k(   26) = (  -0.5000000  -0.5035972   0.2499872), wk =   0.0625000
        k(   27) = (  -0.5000000  -0.5035972  -0.4999745), wk =   0.0312500
        k(   28) = (   0.0000000   0.2517986  -0.2499872), wk =   0.0625000
        k(   29) = (  -0.2500000   0.2517986  -0.2499872), wk =   0.1250000
        k(   30) = (   0.5000000   0.2517986  -0.2499872), wk =   0.0625000

     Dense  grid:    41827 G-vectors     FFT dimensions: (  45,  45,  45)

     Estimated max dynamical RAM per process >      15.53MB

     Estimated total allocated dynamical RAM >     124.23MB

     Check: negative/imaginary core charge=   -0.000007    0.000000

     Initial potential from superposition of free atoms

     starting charge   63.99678, renormalised to   64.00000
     Starting wfc are   36 randomized atomic wfcs

     total cpu time spent up to now is        0.7 secs

     per-process dynamical memory:    51.3 Mb

     Self-consistent Calculation

     iteration #  1     ecut=    70.00 Ry     beta=0.70
     Davidson diagonalization with overlap
     ethr =  1.00E-02,  avg # of iterations =  2.0

     total cpu time spent up to now is        1.9 secs

     total energy              =    -607.71294809 Ry
     Harris-Foulkes estimate   =    -608.84307432 Ry
     estimated scf accuracy    <       1.56930710 Ry

     iteration #  2     ecut=    70.00 Ry     beta=0.70
     Davidson diagonalization with overlap
     ethr =  2.45E-03,  avg # of iterations =  2.9

     total cpu time spent up to now is        3.3 secs

     total energy              =    -608.09604376 Ry
     Harris-Foulkes estimate   =    -608.81309745 Ry
     estimated scf accuracy    <       1.49542838 Ry

     iteration #  3     ecut=    70.00 Ry     beta=0.70
     Davidson diagonalization with overlap
     ethr =  2.34E-03,  avg # of iterations =  2.0

     total cpu time spent up to now is        4.6 secs

     total energy              =    -608.39025121 Ry
     Harris-Foulkes estimate   =    -608.39096174 Ry
     estimated scf accuracy    <       0.00692654 Ry

     iteration #  4     ecut=    70.00 Ry     beta=0.70
     Davidson diagonalization with overlap
     ethr =  1.08E-05,  avg # of iterations =  2.0

     total cpu time spent up to now is        5.8 secs

     total energy              =    -608.39180061 Ry
     Harris-Foulkes estimate   =    -608.39184757 Ry
     estimated scf accuracy    <       0.00011612 Ry

     iteration #  5     ecut=    70.00 Ry     beta=0.70
     Davidson diagonalization with overlap
     ethr =  1.81E-07,  avg # of iterations =  1.8

     total cpu time spent up to now is        6.9 secs

     total energy              =    -608.39180860 Ry
     Harris-Foulkes estimate   =    -608.39180700 Ry
     estimated scf accuracy    <       0.00001048 Ry

     iteration #  6     ecut=    70.00 Ry     beta=0.70
     Davidson diagonalization with overlap
     ethr =  1.64E-08,  avg # of iterations =  2.0

     total cpu time spent up to now is        8.3 secs

     total energy              =    -608.39181007 Ry
     Harris-Foulkes estimate   =    -608.39181050 Ry
     estimated scf accuracy    <       0.00000094 Ry

     iteration #  7     ecut=    70.00 Ry     beta=0.70
     Davidson diagonalization with overlap
     ethr =  1.47E-09,  avg # of iterations =  2.0

     total cpu time spent up to now is        9.5 secs

     total energy              =    -608.39181012 Ry
     Harris-Foulkes estimate   =    -608.39181020 Ry
     estimated scf accuracy    <       0.00000022 Ry

     iteration #  8     ecut=    70.00 Ry     beta=0.70
     Davidson diagonalization with overlap
     ethr =  3.45E-10,  avg # of iterations =  2.0

     total cpu time spent up to now is       10.6 secs

     total energy              =    -608.39181011 Ry
     Harris-Foulkes estimate   =    -608.39181014 Ry
     estimated scf accuracy    <       0.00000005 Ry

     iteration #  9     ecut=    70.00 Ry     beta=0.70
     Davidson diagonalization with overlap
     ethr =  8.11E-11,  avg # of iterations =  2.0

     total cpu time spent up to now is       12.1 secs

     End of self-consistent calculation

          k = 0.0000 0.0000 0.0000 (  5217 PWs)   bands (ev):

   -65.0534 -65.0446 -65.0445 -65.0437 -31.8452 -31.8452 -31.8416 -31.8108
   -31.8108 -31.8092 -31.8091 -31.8064 -31.8063 -31.7877 -31.7877 -31.7812
    -9.4657  -8.0598  -8.0597  -8.0413   3.6376   3.6378   3.6614   6.2120
     6.2124   6.2183   6.2187   6.2632   6.2633   7.4919   7.5078   7.5080

          k = 0.0000 0.0000 0.2500 (  5202 PWs)   bands (ev):

   -65.0520 -65.0457 -65.0445 -65.0439 -31.8396 -31.8373 -31.8359 -31.8162
   -31.8113 -31.8110 -31.8100 -31.8058 -31.8027 -31.7973 -31.7900 -31.7856
    -9.2640  -8.2684  -8.0305  -8.0175   3.9238   3.9459   3.9693   5.7006
     5.7122   6.0162   6.0507   6.3800   6.4210   6.5005   7.2742   7.2965

          k = 0.0000 0.0000-0.5000 (  5230 PWs)   bands (ev):

   -65.0491 -65.0486 -65.0445 -65.0439 -31.8289 -31.8286 -31.8236 -31.8234
   -31.8186 -31.8186 -31.8121 -31.8121 -31.7984 -31.7982 -31.7941 -31.7938
    -8.7701  -8.7698  -7.9973  -7.9973   4.7082   4.7086   4.7264   4.7268
     4.9834   4.9837   5.8404   5.8407   6.7997   6.8000   6.8321   6.8323

          k = 0.0000 0.2518 0.0000 (  5205 PWs)   bands (ev):

   -65.0520 -65.0456 -65.0446 -65.0440 -31.8397 -31.8397 -31.8322 -31.8153
   -31.8152 -31.8075 -31.8075 -31.8072 -31.8071 -31.7917 -31.7902 -31.7902
    -9.2601  -8.2506  -8.0312  -8.0311   3.9284   3.9285   3.9822   5.7401
     5.7401   6.0055   6.0059   6.3753   6.3756   6.4855   7.2869   7.2871

          k = 0.0000 0.2518 0.2500 (  5225 PWs)   bands (ev):

   -65.0509 -65.0457 -65.0453 -65.0443 -31.8377 -31.8351 -31.8335 -31.8219
   -31.8132 -31.8122 -31.8085 -31.8048 -31.8027 -31.8010 -31.7939 -31.7856
    -9.0765  -8.2044  -8.1911  -8.0346   4.0358   4.0422   4.2039   4.9406
     5.6858   5.8983   5.9329   6.3197   6.3326   6.4427   7.0194   7.3408

          k = 0.0000 0.2518-0.5000 (  5232 PWs)   bands (ev):

   -65.0484 -65.0480 -65.0452 -65.0446 -31.8316 -31.8315 -31.8260 -31.8259
   -31.8243 -31.8240 -31.8034 -31.8031 -31.8014 -31.8013 -31.7908 -31.7907
    -8.6358  -8.6355  -8.0848  -8.0847   4.2915   4.2917   4.6108   4.6111
     4.9584   4.9588   6.4107   6.4110   6.4398   6.4401   6.9308   6.9309

          k = 0.0000-0.5036 0.0000 (  5206 PWs)   bands (ev):

   -65.0491 -65.0484 -65.0446 -65.0440 -31.8286 -31.8285 -31.8269 -31.8269
   -31.8153 -31.8132 -31.8052 -31.8051 -31.7995 -31.7995 -31.7984 -31.7984
    -8.7766  -8.7384  -8.0023  -8.0023   4.6976   4.6977   4.7581   4.7582
     4.9643   4.9889   5.8054   5.8057   6.7840   6.7842   6.8211   6.8214

          k = 0.0000-0.5036 0.2500 (  5224 PWs)   bands (ev):

   -65.0484 -65.0478 -65.0452 -65.0447 -31.8333 -31.8322 -31.8247 -31.8244
   -31.8237 -31.8226 -31.8047 -31.8032 -31.7991 -31.7982 -31.7932 -31.7930
    -8.6442  -8.6105  -8.0926  -8.0860   4.2792   4.3029   4.5921   4.6192
     4.9438   5.0025   6.3795   6.3986   6.4014   6.4417   6.9328   6.9441

          k = 0.0000-0.5036-0.5000 (  5232 PWs)   bands (ev):

   -65.0469 -65.0468 -65.0467 -65.0458 -31.8337 -31.8335 -31.8328 -31.8327
   -31.8148 -31.8146 -31.8133 -31.8130 -31.7928 -31.7927 -31.7920 -31.7919
    -8.3474  -8.3472  -8.3262  -8.3261   4.1527   4.1528   4.1629   4.1631
     5.6044   5.6048   5.6570   5.6574   6.9036   6.9039   6.9212   6.9214

          k = 0.2500 0.0000 0.0000 (  5202 PWs)   bands (ev):

   -65.0520 -65.0457 -65.0445 -65.0439 -31.8396 -31.8373 -31.8359 -31.8163
   -31.8113 -31.8110 -31.8100 -31.8059 -31.8027 -31.7973 -31.7901 -31.7856
    -9.2640  -8.2683  -8.0306  -8.0175   3.9237   3.9460   3.9694   5.7008
     5.7124   6.0159   6.0506   6.3797   6.4209   6.5004   7.2741   7.2966

          k = 0.2500 0.0000 0.2500 (  5231 PWs)   bands (ev):

   -65.0509 -65.0457 -65.0453 -65.0442 -31.8377 -31.8376 -31.8311 -31.8246
   -31.8097 -31.8081 -31.8081 -31.8060 -31.8049 -31.8048 -31.7898 -31.7882
    -9.0800  -8.2048  -8.2047  -8.0258   4.0403   4.0404   4.2205   4.9395
     5.7073   5.9057   5.9060   6.3538   6.3538   6.4181   7.0027   7.3440

          k = 0.2500 0.0000-0.5000 (  5232 PWs)   bands (ev):

   -65.0484 -65.0480 -65.0452 -65.0446 -31.8339 -31.8337 -31.8266 -31.8265
   -31.8195 -31.8193 -31.8035 -31.8035 -31.7989 -31.7986 -31.7947 -31.7945
    -8.6379  -8.6376  -8.0874  -8.0873   4.3012   4.3013   4.6272   4.6275
     4.9714   4.9718   6.3909   6.3912   6.4214   6.4217   6.9433   6.9434

          k = 0.2500 0.2518 0.0000 (  5225 PWs)   bands (ev):

   -65.0509 -65.0457 -65.0453 -65.0443 -31.8377 -31.8351 -31.8335 -31.8219
   -31.8133 -31.8122 -31.8085 -31.8047 -31.8027 -31.8010 -31.7940 -31.7856
    -9.0765  -8.2044  -8.1911  -8.0347   4.0358   4.0421   4.2038   4.9406
     5.6857   5.8985   5.9328   6.3196   6.3324   6.4429   7.0195   7.3408

          k = 0.2500 0.2518 0.2500 (  5226 PWs)   bands (ev):

   -65.0500 -65.0457 -65.0456 -65.0449 -31.8408 -31.8407 -31.8387 -31.8217
   -31.8103 -31.8101 -31.8094 -31.8028 -31.7994 -31.7994 -31.7916 -31.7874
    -8.9126  -8.1716  -8.1716  -8.1621   3.8796   3.8822   3.8822   4.9463
     5.7027   5.7028   5.7138   6.5402   6.5610   6.5612   7.1933   7.1954

          k = 0.2500 0.2518-0.5000 (  5216 PWs)   bands (ev):

   -65.0479 -65.0475 -65.0456 -65.0450 -31.8427 -31.8426 -31.8360 -31.8358
   -31.8092 -31.8089 -31.7996 -31.7995 -31.7965 -31.7963 -31.7926 -31.7924
    -8.5290  -8.5288  -8.1356  -8.1355   3.7062   3.7063   4.0748   4.0750
     5.6909   5.6910   6.5906   6.5908   6.7132   6.7134   6.8646   6.8648

          k = 0.2500-0.5036 0.0000 (  5224 PWs)   bands (ev):

   -65.0484 -65.0478 -65.0452 -65.0447 -31.8333 -31.8322 -31.8247 -31.8245
   -31.8237 -31.8227 -31.8047 -31.8032 -31.7991 -31.7982 -31.7932 -31.7930
    -8.6442  -8.6105  -8.0926  -8.0860   4.2792   4.3029   4.5920   4.6191
     4.9437   5.0025   6.3796   6.3988   6.4016   6.4419   6.9327   6.9440

          k = 0.2500-0.5036 0.2500 (  5220 PWs)   bands (ev):

   -65.0479 -65.0474 -65.0457 -65.0451 -31.8436 -31.8435 -31.8354 -31.8351
   -31.8117 -31.8115 -31.7974 -31.7964 -31.7958 -31.7957 -31.7938 -31.7933
    -8.5365  -8.5078  -8.1381  -8.1380   3.7045   3.7046   4.0497   4.0777
     5.6919   5.6919   6.5857   6.5859   6.7169   6.7290   6.8392   6.8661

          k = 0.2500-0.5036-0.5000 (  5220 PWs)   bands (ev):

   -65.0469 -65.0468 -65.0467 -65.0458 -31.8458 -31.8456 -31.8456 -31.8455
   -31.8020 -31.8017 -31.8013 -31.8011 -31.7920 -31.7918 -31.7914 -31.7913
    -8.3094  -8.3092  -8.2942  -8.2941   3.5146   3.5147   3.5288   3.5289
     6.3582   6.3585   6.3888   6.3890   6.9073   6.9075   6.9197   6.9198

          k =-0.5000 0.0000 0.0000 (  5230 PWs)   bands (ev):

   -65.0491 -65.0486 -65.0445 -65.0439 -31.8289 -31.8287 -31.8236 -31.8234
   -31.8185 -31.8185 -31.8121 -31.8121 -31.7984 -31.7982 -31.7941 -31.7938
    -8.7699  -8.7698  -7.9974  -7.9973   4.7085   4.7085   4.7267   4.7267
     4.9833   4.9836   5.8401   5.8404   6.7996   6.7997   6.8322   6.8322

          k =-0.5000 0.0000 0.2500 (  5232 PWs)   bands (ev):

   -65.0484 -65.0480 -65.0452 -65.0446 -31.8339 -31.8337 -31.8266 -31.8265
   -31.8195 -31.8193 -31.8035 -31.8034 -31.7989 -31.7986 -31.7947 -31.7945
    -8.6377  -8.6377  -8.0874  -8.0874   4.3012   4.3013   4.6273   4.6275
     4.9717   4.9717   6.3908   6.3910   6.4214   6.4214   6.9434   6.9434

          k =-0.5000 0.0000-0.5000 (  5248 PWs)   bands (ev):

   -65.0468 -65.0468 -65.0468 -65.0458 -31.8347 -31.8344 -31.8344 -31.8344
   -31.8103 -31.8101 -31.8101 -31.8098 -31.7956 -31.7954 -31.7953 -31.7953
    -8.3417  -8.3416  -8.3415  -8.3415   4.1842   4.1843   4.1843   4.1845
     5.6280   5.6280   5.6285   5.6285   6.9018   6.9020   6.9021   6.9022

          k =-0.5000 0.2518 0.0000 (  5232 PWs)   bands (ev):

   -65.0484 -65.0480 -65.0452 -65.0446 -31.8316 -31.8315 -31.8260 -31.8259
   -31.8243 -31.8241 -31.8034 -31.8031 -31.8014 -31.8013 -31.7908 -31.7907
    -8.6356  -8.6356  -8.0847  -8.0847   4.2915   4.2915   4.6107   4.6109
     4.9586   4.9586   6.4107   6.4109   6.4400   6.4400   6.9308   6.9309

          k =-0.5000 0.2518 0.2500 (  5216 PWs)   bands (ev):

   -65.0479 -65.0475 -65.0456 -65.0450 -31.8427 -31.8426 -31.8360 -31.8358
   -31.8092 -31.8089 -31.7996 -31.7995 -31.7965 -31.7964 -31.7926 -31.7924
    -8.5289  -8.5288  -8.1356  -8.1356   3.7062   3.7063   4.0748   4.0749
     5.6910   5.6910   6.5906   6.5908   6.7133   6.7134   6.8646   6.8647

          k =-0.5000 0.2518-0.5000 (  5224 PWs)   bands (ev):

   -65.0468 -65.0468 -65.0468 -65.0458 -31.8462 -31.8459 -31.8459 -31.8459
   -31.7982 -31.7980 -31.7980 -31.7978 -31.7952 -31.7950 -31.7949 -31.7949
    -8.3043  -8.3042  -8.3041  -8.3041   3.5305   3.5306   3.5306   3.5307
     6.3818   6.3819   6.3821   6.3822   6.9030   6.9032   6.9032   6.9034

          k =-0.5000-0.5036 0.0000 (  5232 PWs)   bands (ev):

   -65.0469 -65.0468 -65.0467 -65.0458 -31.8337 -31.8335 -31.8328 -31.8327
   -31.8149 -31.8146 -31.8133 -31.8131 -31.7928 -31.7927 -31.7920 -31.7919
    -8.3473  -8.3473  -8.3261  -8.3261   4.1525   4.1526   4.1627   4.1629
     5.6047   5.6047   5.6572   5.6572   6.9037   6.9039   6.9213   6.9215

          k =-0.5000-0.5036 0.2500 (  5220 PWs)   bands (ev):

   -65.0469 -65.0468 -65.0467 -65.0458 -31.8458 -31.8456 -31.8456 -31.8455
   -31.8020 -31.8017 -31.8013 -31.8011 -31.7920 -31.7918 -31.7914 -31.7912
    -8.3093  -8.3093  -8.2942  -8.2941   3.5146   3.5147   3.5288   3.5288
     6.3583   6.3583   6.3888   6.3889   6.9074   6.9076   6.9197   6.9199

          k =-0.5000-0.5036-0.5000 (  5232 PWs)   bands (ev):

   -65.0468 -65.0468 -65.0468 -65.0458 -31.8539 -31.8537 -31.8537 -31.8536
   -31.7949 -31.7946 -31.7946 -31.7946 -31.7912 -31.7910 -31.7910 -31.7908
    -8.2663  -8.2662  -8.2662  -8.2662   3.1086   3.1088   3.1088   3.1088
     6.9042   6.9044   6.9044   6.9045   6.9177   6.9178   6.9179   6.9179

          k = 0.0000 0.2518-0.2500 (  5225 PWs)   bands (ev):

   -65.0509 -65.0457 -65.0453 -65.0443 -31.8377 -31.8351 -31.8335 -31.8219
   -31.8132 -31.8122 -31.8085 -31.8048 -31.8027 -31.8010 -31.7939 -31.7856
    -9.0765  -8.2044  -8.1911  -8.0346   4.0358   4.0422   4.2039   4.9406
     5.6858   5.8983   5.9329   6.3197   6.3326   6.4427   7.0194   7.3408

          k =-0.2500 0.2518-0.2500 (  5226 PWs)   bands (ev):

   -65.0500 -65.0457 -65.0456 -65.0449 -31.8408 -31.8407 -31.8387 -31.8217
   -31.8103 -31.8101 -31.8094 -31.8028 -31.7994 -31.7994 -31.7916 -31.7874
    -8.9126  -8.1716  -8.1716  -8.1621   3.8796   3.8822   3.8822   4.9463
     5.7027   5.7028   5.7138   6.5402   6.5610   6.5612   7.1933   7.1954

          k = 0.5000 0.2518-0.2500 (  5216 PWs)   bands (ev):

   -65.0479 -65.0475 -65.0456 -65.0450 -31.8428 -31.8426 -31.8360 -31.8358
   -31.8092 -31.8089 -31.7996 -31.7995 -31.7965 -31.7964 -31.7926 -31.7924
    -8.5289  -8.5288  -8.1356  -8.1356   3.7062   3.7063   4.0748   4.0749
     5.6910   5.6910   6.5906   6.5908   6.7133   6.7134   6.8646   6.8647

     highest occupied level (ev):     7.5080

!    total energy              =    -608.39181012 Ry
     Harris-Foulkes estimate   =    -608.39181012 Ry
     estimated scf accuracy    <          2.8E-09 Ry

     The total energy is the sum of the following terms:

     one-electron contribution =    -306.36271142 Ry
     hartree contribution      =     169.01320032 Ry
     xc contribution           =     -97.78912141 Ry
     ewald contribution        =    -373.25317760 Ry

     convergence has been achieved in   9 iterations

     Forces acting on atoms (cartesian axes, Ry/au):

     atom    1 type  1   force =     0.00000000    0.00390091   -0.00002555
     atom    2 type  1   force =     0.00000000   -0.00383623    0.00002432
     atom    3 type  1   force =     0.00000000    0.00390365    0.00002515
     atom    4 type  1   force =     0.00000000   -0.00383695   -0.00002594
     atom    5 type  2   force =     0.00000000    0.00445361   -0.00002921
     atom    6 type  2   force =     0.00000000   -0.00450956   -0.00002912
     atom    7 type  2   force =     0.00000000    0.00445190    0.00003015
     atom    8 type  2   force =     0.00000000   -0.00452733    0.00003020

     Total force =     0.011849     Total SCF correction =     0.000062


     Computing stress (Cartesian axis) and pressure

          total   stress  (Ry/bohr**3)                   (kbar)     P=  -87.16
  -0.00061926   0.00000000   0.00000000        -91.10      0.00      0.00
   0.00000000  -0.00053820   0.00000000          0.00    -79.17      0.00
   0.00000000   0.00000000  -0.00062010          0.00      0.00    -91.22


     BFGS Geometry Optimization

     number of scf cycles    =   1
     number of bfgs steps    =   0

     energy   new            =    -608.3918101220 Ry

     new trust radius        =       0.0045274349 bohr
     new conv_thr            =       0.0000000100 Ry


ATOMIC_POSITIONS (alat)
Mg       0.000000000   0.000481462  -0.000003154
Mg       0.000000000   0.499526520   0.500003002
Mg       0.500000000   0.000481801   0.500003104
Mg       0.500000000   0.499526432  -0.000003202
O        0.500000000   0.000549678  -0.000003605
O        0.000000000   0.499443416  -0.000003594
O        0.000000000   0.000549468   0.500003722
O        0.500000000   0.499441223   0.500003728



     Writing output data file diamond.8.10221364925.70.4.save
     NEW-OLD atomic charge density approx. for the potential

     Check: negative/imaginary core charge=   -0.000007    0.000000

     total cpu time spent up to now is       12.8 secs

     per-process dynamical memory:    56.1 Mb

     Self-consistent Calculation

     iteration #  1     ecut=    70.00 Ry     beta=0.70
     Davidson diagonalization with overlap
     ethr =  1.00E-06,  avg # of iterations =  3.0

     Threshold (ethr) on eigenvalues was too large:
     Diagonalizing with lowered threshold

     Davidson diagonalization with overlap
     ethr =  3.93E-08,  avg # of iterations =  1.2

     total cpu time spent up to now is       15.7 secs

     total energy              =    -608.39192076 Ry
     Harris-Foulkes estimate   =    -608.39193930 Ry
     estimated scf accuracy    <       0.00002533 Ry

     iteration #  2     ecut=    70.00 Ry     beta=0.70
     Davidson diagonalization with overlap
     ethr =  3.96E-08,  avg # of iterations =  2.2

     total cpu time spent up to now is       16.9 secs

     total energy              =    -608.39192840 Ry
     Harris-Foulkes estimate   =    -608.39193096 Ry
     estimated scf accuracy    <       0.00000425 Ry

     iteration #  3     ecut=    70.00 Ry     beta=0.70
     Davidson diagonalization with overlap
     ethr =  6.64E-09,  avg # of iterations =  2.0

     total cpu time spent up to now is       18.1 secs

     total energy              =    -608.39192933 Ry
     Harris-Foulkes estimate   =    -608.39192932 Ry
     estimated scf accuracy    <       0.00000003 Ry

     iteration #  4     ecut=    70.00 Ry     beta=0.70
     Davidson diagonalization with overlap
     ethr =  4.91E-11,  avg # of iterations =  2.7

     total cpu time spent up to now is       19.6 secs

     End of self-consistent calculation

          k = 0.0000 0.0000 0.0000 (  5217 PWs)   bands (ev):

   -65.0537 -65.0450 -65.0449 -65.0441 -31.8455 -31.8455 -31.8419 -31.8111
   -31.8111 -31.8095 -31.8095 -31.8067 -31.8066 -31.7881 -31.7880 -31.7816
    -9.4656  -8.0598  -8.0596  -8.0414   3.6378   3.6380   3.6612   6.2122
     6.2125   6.2183   6.2187   6.2631   6.2632   7.4922   7.5078   7.5079

          k = 0.0000 0.0000 0.2500 (  5202 PWs)   bands (ev):

   -65.0524 -65.0461 -65.0449 -65.0443 -31.8399 -31.8376 -31.8362 -31.8166
   -31.8116 -31.8113 -31.8103 -31.8062 -31.8031 -31.7976 -31.7904 -31.7859
    -9.2639  -8.2684  -8.0305  -8.0175   3.9240   3.9457   3.9695   5.7008
     5.7120   6.0165   6.0510   6.3796   6.4208   6.5005   7.2742   7.2964

          k = 0.0000 0.0000-0.5000 (  5230 PWs)   bands (ev):

   -65.0495 -65.0490 -65.0449 -65.0443 -31.8292 -31.8290 -31.8239 -31.8236
   -31.8190 -31.8190 -31.8124 -31.8124 -31.7988 -31.7985 -31.7944 -31.7942
    -8.7699  -8.7697  -7.9973  -7.9972   4.7085   4.7088   4.7264   4.7267
     4.9833   4.9836   5.8406   5.8410   6.7995   6.7997   6.8320   6.8322

          k = 0.0000 0.2518 0.0000 (  5205 PWs)   bands (ev):

   -65.0524 -65.0459 -65.0450 -65.0444 -31.8401 -31.8400 -31.8324 -31.8156
   -31.8156 -31.8079 -31.8078 -31.8075 -31.8074 -31.7920 -31.7906 -31.7905
    -9.2599  -8.2507  -8.0312  -8.0311   3.9287   3.9288   3.9821   5.7398
     5.7399   6.0055   6.0058   6.3755   6.3758   6.4856   7.2868   7.2869

          k = 0.0000 0.2518 0.2500 (  5225 PWs)   bands (ev):

   -65.0513 -65.0460 -65.0457 -65.0447 -31.8380 -31.8354 -31.8338 -31.8222
   -31.8136 -31.8125 -31.8087 -31.8051 -31.8030 -31.8013 -31.7943 -31.7859
    -9.0763  -8.2044  -8.1912  -8.0346   4.0360   4.0420   4.2042   4.9405
     5.6860   5.8985   5.9327   6.3201   6.3326   6.4422   7.0193   7.3409

          k = 0.0000 0.2518-0.5000 (  5232 PWs)   bands (ev):

   -65.0488 -65.0484 -65.0455 -65.0450 -31.8319 -31.8318 -31.8263 -31.8263
   -31.8246 -31.8244 -31.8037 -31.8034 -31.8017 -31.8017 -31.7912 -31.7910
    -8.6356  -8.6354  -8.0848  -8.0847   4.2914   4.2916   4.6108   4.6111
     4.9587   4.9590   6.4108   6.4111   6.4397   6.4399   6.9307   6.9308

          k = 0.0000-0.5036 0.0000 (  5206 PWs)   bands (ev):

   -65.0494 -65.0489 -65.0450 -65.0444 -31.8287 -31.8287 -31.8275 -31.8275
   -31.8153 -31.8138 -31.8055 -31.8054 -31.7997 -31.7997 -31.7989 -31.7989
    -8.7708  -8.7441  -8.0022  -8.0022   4.7066   4.7068   4.7491   4.7492
     4.9680   4.9851   5.8053   5.8056   6.7896   6.7899   6.8155   6.8158

          k = 0.0000-0.5036 0.2500 (  5224 PWs)   bands (ev):

   -65.0488 -65.0483 -65.0456 -65.0450 -31.8335 -31.8326 -31.8249 -31.8245
   -31.8242 -31.8232 -31.8048 -31.8038 -31.7993 -31.7986 -31.7935 -31.7934
    -8.6391  -8.6155  -8.0915  -8.0869   4.2828   4.2995   4.5963   4.6150
     4.9526   4.9938   6.3828   6.3981   6.4051   6.4353   6.9345   6.9425

          k = 0.0000-0.5036-0.5000 (  5232 PWs)   bands (ev):

   -65.0473 -65.0472 -65.0471 -65.0462 -31.8339 -31.8337 -31.8332 -31.8331
   -31.8150 -31.8147 -31.8138 -31.8136 -31.7931 -31.7929 -31.7924 -31.7923
    -8.3442  -8.3440  -8.3293  -8.3292   4.1543   4.1545   4.1612   4.1614
     5.6124   5.6127   5.6493   5.6495   6.9063   6.9065   6.9185   6.9187

          k = 0.2500 0.0000 0.0000 (  5202 PWs)   bands (ev):

   -65.0524 -65.0461 -65.0449 -65.0443 -31.8399 -31.8376 -31.8362 -31.8166
   -31.8116 -31.8113 -31.8103 -31.8062 -31.8031 -31.7976 -31.7904 -31.7859
    -9.2638  -8.2682  -8.0306  -8.0175   3.9239   3.9458   3.9696   5.7010
     5.7123   6.0161   6.0509   6.3793   6.4208   6.5004   7.2741   7.2965

          k = 0.2500 0.0000 0.2500 (  5231 PWs)   bands (ev):

   -65.0513 -65.0461 -65.0457 -65.0446 -31.8380 -31.8379 -31.8314 -31.8249
   -31.8100 -31.8084 -31.8084 -31.8063 -31.8052 -31.8051 -31.7901 -31.7886
    -9.0798  -8.2047  -8.2046  -8.0258   4.0405   4.0405   4.2203   4.9397
     5.7072   5.9057   5.9060   6.3536   6.3537   6.4182   7.0026   7.3440

          k = 0.2500 0.0000-0.5000 (  5232 PWs)   bands (ev):

   -65.0488 -65.0484 -65.0455 -65.0450 -31.8342 -31.8340 -31.8268 -31.8267
   -31.8199 -31.8196 -31.8038 -31.8038 -31.7992 -31.7990 -31.7950 -31.7949
    -8.6378  -8.6376  -8.0874  -8.0873   4.3014   4.3015   4.6275   4.6278
     4.9710   4.9713   6.3930   6.3933   6.4193   6.4195   6.9433   6.9434

          k = 0.2500 0.2518 0.0000 (  5225 PWs)   bands (ev):

   -65.0513 -65.0460 -65.0457 -65.0447 -31.8380 -31.8354 -31.8338 -31.8222
   -31.8136 -31.8125 -31.8087 -31.8051 -31.8030 -31.8013 -31.7943 -31.7859
    -9.0763  -8.2043  -8.1912  -8.0347   4.0360   4.0420   4.2041   4.9405
     5.6858   5.8987   5.9326   6.3200   6.3323   6.4424   7.0194   7.3409

          k = 0.2500 0.2518 0.2500 (  5226 PWs)   bands (ev):

   -65.0504 -65.0461 -65.0460 -65.0452 -31.8411 -31.8410 -31.8390 -31.8220
   -31.8106 -31.8105 -31.8097 -31.8031 -31.7997 -31.7997 -31.7919 -31.7878
    -8.9125  -8.1716  -8.1715  -8.1622   3.8795   3.8823   3.8823   4.9464
     5.7027   5.7028   5.7138   6.5404   6.5608   6.5610   7.1933   7.1954

          k = 0.2500 0.2518-0.5000 (  5216 PWs)   bands (ev):

   -65.0483 -65.0479 -65.0460 -65.0454 -31.8431 -31.8429 -31.8363 -31.8362
   -31.8095 -31.8093 -31.7999 -31.7998 -31.7969 -31.7967 -31.7929 -31.7928
    -8.5289  -8.5287  -8.1356  -8.1355   3.7063   3.7063   4.0748   4.0750
     5.6910   5.6910   6.5908   6.5911   6.7131   6.7133   6.8645   6.8646

          k = 0.2500-0.5036 0.0000 (  5224 PWs)   bands (ev):

   -65.0488 -65.0483 -65.0456 -65.0450 -31.8335 -31.8326 -31.8249 -31.8245
   -31.8242 -31.8232 -31.8048 -31.8038 -31.7993 -31.7986 -31.7935 -31.7934
    -8.6391  -8.6155  -8.0915  -8.0869   4.2827   4.2994   4.5962   4.6149
     4.9525   4.9937   6.3829   6.3982   6.4053   6.4354   6.9344   6.9424

          k = 0.2500-0.5036 0.2500 (  5220 PWs)   bands (ev):

   -65.0483 -65.0478 -65.0461 -65.0455 -31.8439 -31.8438 -31.8357 -31.8355
   -31.8120 -31.8118 -31.7976 -31.7969 -31.7961 -31.7961 -31.7941 -31.7937
    -8.5321  -8.5121  -8.1380  -8.1380   3.7046   3.7046   4.0540   4.0734
     5.6920   5.6920   6.5856   6.5858   6.7187   6.7273   6.8433   6.8621

          k = 0.2500-0.5036-0.5000 (  5220 PWs)   bands (ev):

   -65.0472 -65.0472 -65.0471 -65.0462 -31.8461 -31.8459 -31.8459 -31.8458
   -31.8022 -31.8020 -31.8017 -31.8015 -31.7923 -31.7921 -31.7918 -31.7917
    -8.3070  -8.3069  -8.2964  -8.2963   3.5168   3.5169   3.5266   3.5267
     6.3629   6.3631   6.3843   6.3845   6.9092   6.9094   6.9178   6.9180

          k =-0.5000 0.0000 0.0000 (  5230 PWs)   bands (ev):

   -65.0495 -65.0490 -65.0449 -65.0443 -31.8292 -31.8290 -31.8238 -31.8236
   -31.8190 -31.8189 -31.8124 -31.8124 -31.7988 -31.7985 -31.7944 -31.7942
    -8.7697  -8.7697  -7.9973  -7.9973   4.7086   4.7087   4.7267   4.7267
     4.9833   4.9835   5.8404   5.8407   6.7994   6.7994   6.8321   6.8322

          k =-0.5000 0.0000 0.2500 (  5232 PWs)   bands (ev):

   -65.0488 -65.0484 -65.0455 -65.0450 -31.8342 -31.8340 -31.8268 -31.8267
   -31.8199 -31.8196 -31.8038 -31.8038 -31.7992 -31.7990 -31.7950 -31.7949
    -8.6376  -8.6376  -8.0874  -8.0874   4.3014   4.3015   4.6275   4.6277
     4.9713   4.9713   6.3929   6.3931   6.4192   6.4193   6.9433   6.9434

          k =-0.5000 0.0000-0.5000 (  5248 PWs)   bands (ev):

   -65.0472 -65.0472 -65.0472 -65.0462 -31.8350 -31.8347 -31.8347 -31.8347
   -31.8106 -31.8105 -31.8104 -31.8102 -31.7960 -31.7957 -31.7957 -31.7957
    -8.3416  -8.3416  -8.3414  -8.3414   4.1843   4.1844   4.1845   4.1846
     5.6278   5.6278   5.6281   5.6282   6.9019   6.9021   6.9021   6.9023

          k =-0.5000 0.2518 0.0000 (  5232 PWs)   bands (ev):

   -65.0488 -65.0484 -65.0455 -65.0450 -31.8319 -31.8318 -31.8263 -31.8263
   -31.8246 -31.8244 -31.8037 -31.8035 -31.8017 -31.8016 -31.7912 -31.7910
    -8.6354  -8.6354  -8.0848  -8.0847   4.2914   4.2915   4.6107   4.6109
     4.9588   4.9589   6.4108   6.4110   6.4398   6.4398   6.9306   6.9307

          k =-0.5000 0.2518 0.2500 (  5216 PWs)   bands (ev):

   -65.0483 -65.0479 -65.0460 -65.0454 -31.8430 -31.8429 -31.8363 -31.8362
   -31.8095 -31.8093 -31.7999 -31.7998 -31.7969 -31.7967 -31.7929 -31.7928
    -8.5287  -8.5287  -8.1356  -8.1356   3.7063   3.7063   4.0748   4.0749
     5.6910   5.6910   6.5908   6.5910   6.7132   6.7133   6.8644   6.8645

          k =-0.5000 0.2518-0.5000 (  5224 PWs)   bands (ev):

   -65.0472 -65.0472 -65.0472 -65.0462 -31.8465 -31.8462 -31.8462 -31.8462
   -31.7986 -31.7984 -31.7984 -31.7982 -31.7955 -31.7953 -31.7953 -31.7953
    -8.3042  -8.3042  -8.3041  -8.3040   3.5305   3.5306   3.5306   3.5307
     6.3817   6.3818   6.3820   6.3821   6.9031   6.9033   6.9033   6.9034

          k =-0.5000-0.5036 0.0000 (  5232 PWs)   bands (ev):

   -65.0473 -65.0472 -65.0471 -65.0462 -31.8339 -31.8337 -31.8332 -31.8331
   -31.8150 -31.8147 -31.8139 -31.8136 -31.7930 -31.7929 -31.7924 -31.7923
    -8.3441  -8.3440  -8.3292  -8.3292   4.1541   4.1543   4.1611   4.1612
     5.6125   5.6126   5.6494   5.6494   6.9064   6.9066   6.9186   6.9188

          k =-0.5000-0.5036 0.2500 (  5220 PWs)   bands (ev):

   -65.0472 -65.0472 -65.0471 -65.0462 -31.8461 -31.8459 -31.8459 -31.8458
   -31.8022 -31.8020 -31.8017 -31.8015 -31.7922 -31.7921 -31.7918 -31.7916
    -8.3070  -8.3069  -8.2964  -8.2963   3.5167   3.5169   3.5265   3.5266
     6.3629   6.3630   6.3843   6.3844   6.9093   6.9095   6.9179   6.9180

          k =-0.5000-0.5036-0.5000 (  5232 PWs)   bands (ev):

   -65.0472 -65.0472 -65.0471 -65.0462 -31.8542 -31.8540 -31.8540 -31.8539
   -31.7952 -31.7950 -31.7949 -31.7949 -31.7915 -31.7913 -31.7913 -31.7911
    -8.2662  -8.2662  -8.2661  -8.2661   3.1086   3.1087   3.1087   3.1088
     6.9042   6.9044   6.9044   6.9046   6.9177   6.9178   6.9179   6.9179

          k = 0.0000 0.2518-0.2500 (  5225 PWs)   bands (ev):

   -65.0513 -65.0460 -65.0457 -65.0447 -31.8380 -31.8354 -31.8338 -31.8222
   -31.8136 -31.8125 -31.8087 -31.8051 -31.8030 -31.8013 -31.7943 -31.7859
    -9.0763  -8.2044  -8.1912  -8.0346   4.0360   4.0420   4.2042   4.9405
     5.6860   5.8985   5.9327   6.3201   6.3326   6.4422   7.0193   7.3409

          k =-0.2500 0.2518-0.2500 (  5226 PWs)   bands (ev):

   -65.0504 -65.0461 -65.0460 -65.0452 -31.8411 -31.8410 -31.8390 -31.8220
   -31.8106 -31.8105 -31.8097 -31.8031 -31.7997 -31.7997 -31.7919 -31.7878
    -8.9125  -8.1716  -8.1715  -8.1622   3.8795   3.8823   3.8823   4.9464
     5.7027   5.7028   5.7138   6.5404   6.5608   6.5610   7.1933   7.1954

          k = 0.5000 0.2518-0.2500 (  5216 PWs)   bands (ev):

   -65.0483 -65.0479 -65.0460 -65.0454 -31.8430 -31.8429 -31.8363 -31.8362
   -31.8095 -31.8093 -31.7999 -31.7998 -31.7969 -31.7967 -31.7929 -31.7928
    -8.5287  -8.5287  -8.1356  -8.1356   3.7063   3.7063   4.0748   4.0749
     5.6910   5.6910   6.5908   6.5910   6.7132   6.7133   6.8644   6.8645

     highest occupied level (ev):     7.5079

!    total energy              =    -608.39192933 Ry
     Harris-Foulkes estimate   =    -608.39192934 Ry
     estimated scf accuracy    <          6.5E-09 Ry

     The total energy is the sum of the following terms:

     one-electron contribution =    -306.34186686 Ry
     hartree contribution      =     169.00293066 Ry
     xc contribution           =     -97.78901875 Ry
     ewald contribution        =    -373.26397439 Ry

     convergence has been achieved in   4 iterations

     Forces acting on atoms (cartesian axes, Ry/au):

     atom    1 type  1   force =     0.00000000    0.00276891   -0.00001857
     atom    2 type  1   force =     0.00000000   -0.00278270    0.00001838
     atom    3 type  1   force =     0.00000000    0.00284987    0.00001865
     atom    4 type  1   force =     0.00000000   -0.00278268   -0.00001902
     atom    5 type  2   force =     0.00000000    0.00304948   -0.00002063
     atom    6 type  2   force =     0.00000000   -0.00306882   -0.00002066
     atom    7 type  2   force =     0.00000000    0.00304827    0.00002086
     atom    8 type  2   force =     0.00000000   -0.00308233    0.00002099

     Total force =     0.008294     Total SCF correction =     0.000423


     Computing stress (Cartesian axis) and pressure

          total   stress  (Ry/bohr**3)                   (kbar)     P=  -87.14
  -0.00061840   0.00000000   0.00000000        -90.97      0.00      0.00
   0.00000000  -0.00053953   0.00000000          0.00    -79.37      0.00
   0.00000000   0.00000000  -0.00061924          0.00      0.00    -91.09


     number of scf cycles    =   2
     number of bfgs steps    =   1

     energy   old            =    -608.3918101220 Ry
     energy   new            =    -608.3919293330 Ry

     CASE: energy  _new < energy  _old

     new trust radius        =       0.0049801784 bohr
     new conv_thr            =       0.0000000012 Ry


ATOMIC_POSITIONS (alat)
Mg       0.000000000   0.001033571  -0.000006856
Mg       0.000000000   0.498971686   0.500006666
Mg       0.500000000   0.001050021   0.500006823
Mg       0.500000000   0.498971601  -0.000006994
O        0.500000000   0.001157776  -0.000007719
O        0.000000000   0.498831455  -0.000007714
O        0.000000000   0.001157322   0.500007881
O        0.500000000   0.498826568   0.500007914



     Writing output data file diamond.8.10221364925.70.4.save
     NEW-OLD atomic charge density approx. for the potential

     Check: negative/imaginary core charge=   -0.000007    0.000000

     total cpu time spent up to now is       20.3 secs

     per-process dynamical memory:    56.1 Mb

     Self-consistent Calculation

     iteration #  1     ecut=    70.00 Ry     beta=0.70
     Davidson diagonalization with overlap
     ethr =  1.00E-06,  avg # of iterations =  3.0

     Threshold (ethr) on eigenvalues was too large:
     Diagonalizing with lowered threshold

     Davidson diagonalization with overlap
     ethr =  4.86E-08,  avg # of iterations =  1.2

     total cpu time spent up to now is       23.2 secs

     total energy              =    -608.39200313 Ry
     Harris-Foulkes estimate   =    -608.39202605 Ry
     estimated scf accuracy    <       0.00003134 Ry

     iteration #  2     ecut=    70.00 Ry     beta=0.70
     Davidson diagonalization with overlap
     ethr =  4.90E-08,  avg # of iterations =  2.2

     total cpu time spent up to now is       24.5 secs

     total energy              =    -608.39201259 Ry
     Harris-Foulkes estimate   =    -608.39201577 Ry
     estimated scf accuracy    <       0.00000529 Ry

     iteration #  3     ecut=    70.00 Ry     beta=0.70
     Davidson diagonalization with overlap
     ethr =  8.26E-09,  avg # of iterations =  2.0

     total cpu time spent up to now is       25.7 secs

     total energy              =    -608.39201374 Ry
     Harris-Foulkes estimate   =    -608.39201372 Ry
     estimated scf accuracy    <       0.00000004 Ry

     iteration #  4     ecut=    70.00 Ry     beta=0.70
     Davidson diagonalization with overlap
     ethr =  6.45E-11,  avg # of iterations =  2.9

     total cpu time spent up to now is       27.2 secs

     total energy              =    -608.39201375 Ry
     Harris-Foulkes estimate   =    -608.39201375 Ry
     estimated scf accuracy    <       0.00000001 Ry

     iteration #  5     ecut=    70.00 Ry     beta=0.70
     Davidson diagonalization with overlap
     ethr =  1.75E-11,  avg # of iterations =  2.1

     total cpu time spent up to now is       28.4 secs

     End of self-consistent calculation

          k = 0.0000 0.0000 0.0000 (  5217 PWs)   bands (ev):

   -65.0539 -65.0451 -65.0450 -65.0443 -31.8456 -31.8456 -31.8420 -31.8113
   -31.8112 -31.8096 -31.8096 -31.8068 -31.8068 -31.7882 -31.7882 -31.7817
    -9.4653  -8.0595  -8.0593  -8.0411   3.6381   3.6383   3.6612   6.2125
     6.2128   6.2184   6.2189   6.2632   6.2633   7.4926   7.5080   7.5081

          k = 0.0000 0.0000 0.2500 (  5202 PWs)   bands (ev):

   -65.0526 -65.0463 -65.0450 -65.0444 -31.8400 -31.8378 -31.8363 -31.8167
   -31.8117 -31.8114 -31.8104 -31.8063 -31.8032 -31.7978 -31.7905 -31.7860
    -9.2636  -8.2681  -8.0302  -8.0173   3.9243   3.9457   3.9697   5.7011
     5.7121   6.0168   6.0514   6.3796   6.4210   6.5007   7.2744   7.2966

          k = 0.0000 0.0000-0.5000 (  5230 PWs)   bands (ev):

   -65.0496 -65.0492 -65.0450 -65.0445 -31.8293 -31.8291 -31.8239 -31.8237
   -31.8192 -31.8192 -31.8126 -31.8125 -31.7989 -31.7987 -31.7945 -31.7943
    -8.7696  -8.7694  -7.9971  -7.9970   4.7088   4.7090   4.7266   4.7268
     4.9834   4.9837   5.8410   5.8414   6.7996   6.7997   6.8322   6.8323

          k = 0.0000 0.2518 0.0000 (  5205 PWs)   bands (ev):

   -65.0525 -65.0461 -65.0451 -65.0445 -31.8402 -31.8402 -31.8325 -31.8158
   -31.8157 -31.8080 -31.8080 -31.8076 -31.8075 -31.7921 -31.7907 -31.7907
    -9.2596  -8.2505  -8.0309  -8.0307   3.9290   3.9292   3.9821   5.7399
     5.7400   6.0056   6.0060   6.3759   6.3761   6.4858   7.2869   7.2871

          k = 0.0000 0.2518 0.2500 (  5225 PWs)   bands (ev):

   -65.0514 -65.0462 -65.0458 -65.0449 -31.8381 -31.8355 -31.8339 -31.8223
   -31.8137 -31.8126 -31.8088 -31.8053 -31.8032 -31.8015 -31.7944 -31.7861
    -9.0760  -8.2040  -8.1910  -8.0343   4.0363   4.0421   4.2046   4.9406
     5.6862   5.8989   5.9327   6.3206   6.3328   6.4420   7.0194   7.3411

          k = 0.0000 0.2518-0.5000 (  5232 PWs)   bands (ev):

   -65.0489 -65.0485 -65.0457 -65.0451 -31.8320 -31.8319 -31.8264 -31.8264
   -31.8247 -31.8245 -31.8038 -31.8036 -31.8019 -31.8018 -31.7913 -31.7911
    -8.6352  -8.6351  -8.0845  -8.0845   4.2916   4.2917   4.6110   4.6113
     4.9591   4.9593   6.4112   6.4114   6.4398   6.4399   6.9308   6.9309

          k = 0.0000-0.5036 0.0000 (  5206 PWs)   bands (ev):

   -65.0495 -65.0490 -65.0451 -65.0446 -31.8286 -31.8285 -31.8279 -31.8278
   -31.8151 -31.8143 -31.8056 -31.8055 -31.7997 -31.7997 -31.7992 -31.7992
    -8.7642  -8.7503  -8.0020  -8.0019   4.7169   4.7170   4.7392   4.7393
     4.9724   4.9810   5.8054   5.8058   6.7961   6.7964   6.8095   6.8098

          k = 0.0000-0.5036 0.2500 (  5224 PWs)   bands (ev):

   -65.0489 -65.0484 -65.0458 -65.0452 -31.8334 -31.8329 -31.8248 -31.8244
   -31.8244 -31.8236 -31.8047 -31.8041 -31.7993 -31.7989 -31.7936 -31.7935
    -8.6332  -8.6209  -8.0901  -8.0877   4.2868   4.2958   4.6010   4.6105
     4.9626   4.9842   6.3866   6.3945   6.4126   6.4283   6.9366   6.9409

          k = 0.0000-0.5036-0.5000 (  5232 PWs)   bands (ev):

   -65.0474 -65.0473 -65.0473 -65.0463 -31.8339 -31.8337 -31.8334 -31.8334
   -31.8149 -31.8146 -31.8142 -31.8139 -31.7931 -31.7929 -31.7926 -31.7926
    -8.3403  -8.3402  -8.3326  -8.3325   4.1562   4.1564   4.1596   4.1597
     5.6215   5.6216   5.6407   5.6409   6.9095   6.9097   6.9158   6.9159

          k = 0.2500 0.0000 0.0000 (  5202 PWs)   bands (ev):

   -65.0526 -65.0463 -65.0450 -65.0444 -31.8401 -31.8378 -31.8363 -31.8167
   -31.8117 -31.8114 -31.8104 -31.8064 -31.8032 -31.7978 -31.7906 -31.7860
    -9.2635  -8.2679  -8.0303  -8.0173   3.9242   3.9458   3.9698   5.7013
     5.7124   6.0165   6.0513   6.3792   6.4209   6.5006   7.2744   7.2967

          k = 0.2500 0.0000 0.2500 (  5231 PWs)   bands (ev):

   -65.0514 -65.0462 -65.0459 -65.0448 -31.8382 -31.8380 -31.8315 -31.8250
   -31.8102 -31.8085 -31.8085 -31.8064 -31.8054 -31.8053 -31.7902 -31.7887
    -9.0795  -8.2045  -8.2043  -8.0256   4.0407   4.0408   4.2203   4.9400
     5.7074   5.9058   5.9062   6.3537   6.3538   6.4186   7.0028   7.3442

          k = 0.2500 0.0000-0.5000 (  5232 PWs)   bands (ev):

   -65.0489 -65.0485 -65.0457 -65.0451 -31.8343 -31.8342 -31.8269 -31.8268
   -31.8200 -31.8198 -31.8040 -31.8039 -31.7994 -31.7991 -31.7952 -31.7950
    -8.6374  -8.6373  -8.0871  -8.0870   4.3017   4.3018   4.6279   4.6281
     4.9710   4.9711   6.3949   6.3952   6.4178   6.4180   6.9435   6.9436

          k = 0.2500 0.2518 0.0000 (  5225 PWs)   bands (ev):

   -65.0514 -65.0462 -65.0458 -65.0449 -31.8381 -31.8355 -31.8339 -31.8223
   -31.8137 -31.8127 -31.8088 -31.8053 -31.8031 -31.8015 -31.7945 -31.7860
    -9.0760  -8.2040  -8.1910  -8.0344   4.0363   4.0421   4.2045   4.9406
     5.6861   5.8991   5.9327   6.3204   6.3325   6.4422   7.0195   7.3411

          k = 0.2500 0.2518 0.2500 (  5226 PWs)   bands (ev):

   -65.0505 -65.0462 -65.0462 -65.0454 -31.8412 -31.8411 -31.8391 -31.8221
   -31.8107 -31.8106 -31.8099 -31.8032 -31.7999 -31.7999 -31.7921 -31.7879
    -8.9121  -8.1713  -8.1712  -8.1620   3.8797   3.8825   3.8825   4.9466
     5.7029   5.7031   5.7139   6.5408   6.5609   6.5612   7.1935   7.1957

          k = 0.2500 0.2518-0.5000 (  5216 PWs)   bands (ev):

   -65.0485 -65.0481 -65.0462 -65.0456 -31.8432 -31.8430 -31.8364 -31.8363
   -31.8096 -31.8094 -31.8000 -31.7999 -31.7970 -31.7968 -31.7931 -31.7929
    -8.5285  -8.5284  -8.1354  -8.1353   3.7064   3.7065   4.0750   4.0751
     5.6912   5.6912   6.5912   6.5915   6.7132   6.7134   6.8646   6.8647

          k = 0.2500-0.5036 0.0000 (  5224 PWs)   bands (ev):

   -65.0489 -65.0484 -65.0458 -65.0452 -31.8334 -31.8329 -31.8248 -31.8244
   -31.8244 -31.8236 -31.8048 -31.8041 -31.7993 -31.7989 -31.7936 -31.7935
    -8.6332  -8.6209  -8.0901  -8.0877   4.2868   4.2957   4.6009   4.6104
     4.9625   4.9841   6.3867   6.3947   6.4128   6.4284   6.9365   6.9408

          k = 0.2500-0.5036 0.2500 (  5220 PWs)   bands (ev):

   -65.0484 -65.0480 -65.0462 -65.0456 -31.8441 -31.8439 -31.8358 -31.8356
   -31.8122 -31.8120 -31.7976 -31.7972 -31.7962 -31.7962 -31.7942 -31.7939
    -8.5271  -8.5166  -8.1378  -8.1376   3.7047   3.7048   4.0589   4.0687
     5.6923   5.6923   6.5856   6.5859   6.7209   6.7255   6.8481   6.8578

          k = 0.2500-0.5036-0.5000 (  5220 PWs)   bands (ev):

   -65.0473 -65.0473 -65.0473 -65.0463 -31.8462 -31.8460 -31.8460 -31.8459
   -31.8023 -31.8020 -31.8019 -31.8018 -31.7923 -31.7922 -31.7920 -31.7919
    -8.3042  -8.3041  -8.2987  -8.2986   3.5193   3.5195   3.5243   3.5244
     6.3683   6.3684   6.3794   6.3795   6.9115   6.9117   6.9159   6.9161

          k =-0.5000 0.0000 0.0000 (  5230 PWs)   bands (ev):

   -65.0496 -65.0492 -65.0450 -65.0445 -31.8294 -31.8291 -31.8239 -31.8237
   -31.8192 -31.8191 -31.8125 -31.8125 -31.7989 -31.7987 -31.7945 -31.7943
    -8.7695  -8.7693  -7.9972  -7.9970   4.7089   4.7090   4.7268   4.7269
     4.9833   4.9837   5.8407   5.8411   6.7994   6.7995   6.8322   6.8323

          k =-0.5000 0.0000 0.2500 (  5232 PWs)   bands (ev):

   -65.0489 -65.0485 -65.0457 -65.0451 -31.8343 -31.8342 -31.8269 -31.8268
   -31.8200 -31.8198 -31.8040 -31.8039 -31.7994 -31.7991 -31.7952 -31.7950
    -8.6374  -8.6372  -8.0872  -8.0870   4.3017   4.3017   4.6278   4.6281
     4.9711   4.9712   6.3948   6.3950   6.4177   6.4178   6.9436   6.9436

          k =-0.5000 0.0000-0.5000 (  5248 PWs)   bands (ev):

   -65.0473 -65.0473 -65.0473 -65.0463 -31.8351 -31.8348 -31.8348 -31.8348
   -31.8108 -31.8106 -31.8106 -31.8103 -31.7961 -31.7959 -31.7958 -31.7958
    -8.3414  -8.3412  -8.3412  -8.3411   4.1846   4.1847   4.1847   4.1849
     5.6278   5.6279   5.6281   5.6282   6.9022   6.9023   6.9023   6.9026

          k =-0.5000 0.2518 0.0000 (  5232 PWs)   bands (ev):

   -65.0489 -65.0485 -65.0457 -65.0451 -31.8320 -31.8319 -31.8264 -31.8264
   -31.8248 -31.8245 -31.8039 -31.8036 -31.8019 -31.8018 -31.7913 -31.7911
    -8.6352  -8.6350  -8.0846  -8.0844   4.2915   4.2916   4.6109   4.6111
     4.9592   4.9592   6.4111   6.4114   6.4398   6.4399   6.9308   6.9308

          k =-0.5000 0.2518 0.2500 (  5216 PWs)   bands (ev):

   -65.0485 -65.0481 -65.0462 -65.0456 -31.8432 -31.8430 -31.8364 -31.8363
   -31.8096 -31.8094 -31.8000 -31.7999 -31.7970 -31.7968 -31.7931 -31.7929
    -8.5285  -8.5283  -8.1354  -8.1353   3.7064   3.7065   4.0749   4.0751
     5.6911   5.6912   6.5912   6.5914   6.7133   6.7135   6.8645   6.8646

          k =-0.5000 0.2518-0.5000 (  5224 PWs)   bands (ev):

   -65.0473 -65.0473 -65.0473 -65.0463 -31.8466 -31.8463 -31.8463 -31.8463
   -31.7987 -31.7985 -31.7985 -31.7983 -31.7957 -31.7955 -31.7954 -31.7954
    -8.3040  -8.3038  -8.3038  -8.3037   3.5307   3.5308   3.5308   3.5308
     6.3819   6.3819   6.3822   6.3822   6.9034   6.9035   6.9035   6.9038

          k =-0.5000-0.5036 0.0000 (  5232 PWs)   bands (ev):

   -65.0474 -65.0473 -65.0473 -65.0463 -31.8339 -31.8337 -31.8334 -31.8334
   -31.8149 -31.8146 -31.8142 -31.8140 -31.7931 -31.7929 -31.7926 -31.7925
    -8.3403  -8.3402  -8.3326  -8.3324   4.1561   4.1562   4.1594   4.1595
     5.6215   5.6216   5.6408   5.6409   6.9096   6.9098   6.9159   6.9160

          k =-0.5000-0.5036 0.2500 (  5220 PWs)   bands (ev):

   -65.0473 -65.0473 -65.0473 -65.0463 -31.8462 -31.8460 -31.8460 -31.8459
   -31.8023 -31.8021 -31.8019 -31.8018 -31.7923 -31.7921 -31.7920 -31.7918
    -8.3042  -8.3041  -8.2987  -8.2985   3.5193   3.5194   3.5243   3.5243
     6.3683   6.3683   6.3794   6.3795   6.9116   6.9118   6.9160   6.9161

          k =-0.5000-0.5036-0.5000 (  5232 PWs)   bands (ev):

   -65.0473 -65.0473 -65.0473 -65.0463 -31.8544 -31.8541 -31.8541 -31.8541
   -31.7954 -31.7951 -31.7951 -31.7951 -31.7917 -31.7914 -31.7914 -31.7913
    -8.2660  -8.2659  -8.2658  -8.2658   3.1087   3.1088   3.1088   3.1088
     6.9046   6.9047   6.9047   6.9049   6.9179   6.9180   6.9181   6.9182

          k = 0.0000 0.2518-0.2500 (  5225 PWs)   bands (ev):

   -65.0514 -65.0462 -65.0458 -65.0449 -31.8381 -31.8355 -31.8339 -31.8223
   -31.8137 -31.8126 -31.8088 -31.8053 -31.8032 -31.8015 -31.7944 -31.7861
    -9.0760  -8.2040  -8.1910  -8.0343   4.0363   4.0421   4.2046   4.9406
     5.6862   5.8989   5.9327   6.3206   6.3328   6.4420   7.0194   7.3411

          k =-0.2500 0.2518-0.2500 (  5226 PWs)   bands (ev):

   -65.0505 -65.0462 -65.0462 -65.0454 -31.8412 -31.8411 -31.8391 -31.8221
   -31.8107 -31.8106 -31.8099 -31.8032 -31.7999 -31.7999 -31.7921 -31.7879
    -8.9121  -8.1713  -8.1712  -8.1620   3.8797   3.8825   3.8825   4.9466
     5.7029   5.7031   5.7139   6.5408   6.5609   6.5612   7.1935   7.1957

          k = 0.5000 0.2518-0.2500 (  5216 PWs)   bands (ev):

   -65.0485 -65.0481 -65.0462 -65.0456 -31.8432 -31.8430 -31.8364 -31.8363
   -31.8096 -31.8094 -31.8000 -31.7999 -31.7970 -31.7968 -31.7931 -31.7929
    -8.5285  -8.5283  -8.1354  -8.1353   3.7064   3.7065   4.0749   4.0751
     5.6911   5.6912   6.5912   6.5914   6.7133   6.7135   6.8645   6.8646

     highest occupied level (ev):     7.5081

!    total energy              =    -608.39201375 Ry
     Harris-Foulkes estimate   =    -608.39201375 Ry
     estimated scf accuracy    <          8.5E-10 Ry

     The total energy is the sum of the following terms:

     one-electron contribution =    -306.32606679 Ry
     hartree contribution      =     168.99463681 Ry
     xc contribution           =     -97.78869598 Ry
     ewald contribution        =    -373.27188779 Ry

     convergence has been achieved in   5 iterations

     Forces acting on atoms (cartesian axes, Ry/au):

     atom    1 type  1   force =     0.00000000    0.00146666   -0.00001064
     atom    2 type  1   force =     0.00000000   -0.00155426    0.00001116
     atom    3 type  1   force =     0.00000000    0.00161297    0.00001122
     atom    4 type  1   force =     0.00000000   -0.00155387   -0.00001156
     atom    5 type  2   force =     0.00000000    0.00151343   -0.00001110
     atom    6 type  2   force =     0.00000000   -0.00150006   -0.00001117
     atom    7 type  2   force =     0.00000000    0.00151390    0.00001107
     atom    8 type  2   force =     0.00000000   -0.00149876    0.00001102

     Total force =     0.004320     Total SCF correction =     0.000212


     Computing stress (Cartesian axis) and pressure

          total   stress  (Ry/bohr**3)                   (kbar)     P=  -87.32
  -0.00061908   0.00000000   0.00000000        -91.07      0.00      0.00
   0.00000000  -0.00054178   0.00000000          0.00    -79.70      0.00
   0.00000000   0.00000000  -0.00061992          0.00      0.00    -91.19


     number of scf cycles    =   3
     number of bfgs steps    =   2

     energy   old            =    -608.3919293330 Ry
     energy   new            =    -608.3920137481 Ry

     CASE: energy  _new < energy  _old

     new trust radius        =       0.0052710388 bohr
     new conv_thr            =       0.0000000008 Ry


ATOMIC_POSITIONS (alat)
Mg       0.000000000   0.001639886  -0.000011129
Mg       0.000000000   0.498341769   0.500011055
Mg       0.500000000   0.001700574   0.500011251
Mg       0.500000000   0.498341785  -0.000011540
O        0.500000000   0.001799457  -0.000012281
O        0.000000000   0.498191589  -0.000012296
O        0.000000000   0.001799022   0.500012454
O        0.500000000   0.498185919   0.500012485



     Writing output data file diamond.8.10221364925.70.4.save
     NEW-OLD atomic charge density approx. for the potential

     Check: negative/imaginary core charge=   -0.000007    0.000000

     total cpu time spent up to now is       29.1 secs

     per-process dynamical memory:    56.1 Mb

     Self-consistent Calculation

     iteration #  1     ecut=    70.00 Ry     beta=0.70
     Davidson diagonalization with overlap
     ethr =  1.00E-06,  avg # of iterations =  3.0

     Threshold (ethr) on eigenvalues was too large:
     Diagonalizing with lowered threshold

     Davidson diagonalization with overlap
     ethr =  5.52E-08,  avg # of iterations =  1.2

     total cpu time spent up to now is       32.0 secs

     total energy              =    -608.39203324 Ry
     Harris-Foulkes estimate   =    -608.39205922 Ry
     estimated scf accuracy    <       0.00003555 Ry

     iteration #  2     ecut=    70.00 Ry     beta=0.70
     Davidson diagonalization with overlap
     ethr =  5.55E-08,  avg # of iterations =  2.2

     total cpu time spent up to now is       33.3 secs

     total energy              =    -608.39204399 Ry
     Harris-Foulkes estimate   =    -608.39204758 Ry
     estimated scf accuracy    <       0.00000598 Ry

     iteration #  3     ecut=    70.00 Ry     beta=0.70
     Davidson diagonalization with overlap
     ethr =  9.35E-09,  avg # of iterations =  2.0

     total cpu time spent up to now is       34.5 secs

     total energy              =    -608.39204529 Ry
     Harris-Foulkes estimate   =    -608.39204527 Ry
     estimated scf accuracy    <       0.00000004 Ry

     iteration #  4     ecut=    70.00 Ry     beta=0.70
     Davidson diagonalization with overlap
     ethr =  6.81E-11,  avg # of iterations =  2.4

     total cpu time spent up to now is       35.9 secs

     total energy              =    -608.39204530 Ry
     Harris-Foulkes estimate   =    -608.39204530 Ry
     estimated scf accuracy    <          5.3E-09 Ry

     iteration #  5     ecut=    70.00 Ry     beta=0.70
     Davidson diagonalization with overlap
     ethr =  8.25E-12,  avg # of iterations =  2.7

     total cpu time spent up to now is       37.2 secs

     End of self-consistent calculation

          k = 0.0000 0.0000 0.0000 (  5217 PWs)   bands (ev):

   -65.0539 -65.0452 -65.0450 -65.0443 -31.8457 -31.8456 -31.8420 -31.8113
   -31.8113 -31.8097 -31.8096 -31.8068 -31.8068 -31.7882 -31.7882 -31.7817
    -9.4652  -8.0594  -8.0593  -8.0411   3.6382   3.6383   3.6611   6.2126
     6.2129   6.2184   6.2189   6.2632   6.2633   7.4926   7.5080   7.5081

          k = 0.0000 0.0000 0.2500 (  5202 PWs)   bands (ev):

   -65.0526 -65.0463 -65.0451 -65.0445 -31.8401 -31.8378 -31.8363 -31.8167
   -31.8117 -31.8114 -31.8105 -31.8064 -31.8032 -31.7978 -31.7906 -31.7860
    -9.2635  -8.2680  -8.0302  -8.0173   3.9244   3.9457   3.9698   5.7012
     5.7121   6.0169   6.0515   6.3795   6.4210   6.5007   7.2745   7.2966

          k = 0.0000 0.0000-0.5000 (  5230 PWs)   bands (ev):

   -65.0496 -65.0492 -65.0450 -65.0445 -31.8294 -31.8291 -31.8239 -31.8236
   -31.8192 -31.8192 -31.8126 -31.8125 -31.7989 -31.7987 -31.7945 -31.7943
    -8.7695  -8.7694  -7.9971  -7.9970   4.7090   4.7090   4.7266   4.7267
     4.9834   4.9837   5.8411   5.8415   6.7996   6.7996   6.8322   6.8323

          k = 0.0000 0.2518 0.0000 (  5205 PWs)   bands (ev):

   -65.0526 -65.0461 -65.0452 -65.0446 -31.8402 -31.8402 -31.8325 -31.8158
   -31.8158 -31.8080 -31.8080 -31.8076 -31.8075 -31.7921 -31.7907 -31.7907
    -9.2595  -8.2505  -8.0308  -8.0307   3.9291   3.9292   3.9821   5.7398
     5.7399   6.0056   6.0060   6.3759   6.3762   6.4858   7.2869   7.2870

          k = 0.0000 0.2518 0.2500 (  5225 PWs)   bands (ev):

   -65.0515 -65.0462 -65.0458 -65.0449 -31.8381 -31.8355 -31.8339 -31.8223
   -31.8137 -31.8127 -31.8088 -31.8054 -31.8032 -31.8015 -31.7945 -31.7861
    -9.0759  -8.2040  -8.1910  -8.0343   4.0363   4.0421   4.2046   4.9406
     5.6863   5.8990   5.9327   6.3207   6.3328   6.4419   7.0194   7.3412

          k = 0.0000 0.2518-0.5000 (  5232 PWs)   bands (ev):

   -65.0490 -65.0486 -65.0457 -65.0452 -31.8320 -31.8319 -31.8265 -31.8264
   -31.8248 -31.8245 -31.8039 -31.8036 -31.8019 -31.8018 -31.7913 -31.7912
    -8.6352  -8.6351  -8.0845  -8.0844   4.2916   4.2916   4.6111   4.6113
     4.9592   4.9593   6.4112   6.4115   6.4398   6.4398   6.9307   6.9308

          k = 0.0000-0.5036 0.0000 (  5206 PWs)   bands (ev):

   -65.0495 -65.0491 -65.0452 -65.0446 -31.8284 -31.8283 -31.8281 -31.8281
   -31.8148 -31.8146 -31.8056 -31.8055 -31.7996 -31.7996 -31.7994 -31.7994
    -8.7573  -8.7570  -8.0019  -8.0019   4.7278   4.7279   4.7284   4.7285
     4.9766   4.9768   5.8055   5.8057   6.8028   6.8029   6.8030   6.8032

          k = 0.0000-0.5036 0.2500 (  5224 PWs)   bands (ev):

   -65.0489 -65.0485 -65.0458 -65.0452 -31.8333 -31.8331 -31.8247 -31.8246
   -31.8241 -31.8239 -31.8046 -31.8043 -31.7991 -31.7991 -31.7937 -31.7936
    -8.6271  -8.6269  -8.0889  -8.0889   4.2911   4.2916   4.6056   4.6059
     4.9731   4.9737   6.3905   6.3907   6.4203   6.4206   6.9387   6.9389

          k = 0.0000-0.5036-0.5000 (  5232 PWs)   bands (ev):

   -65.0473 -65.0473 -65.0473 -65.0464 -31.8338 -31.8336 -31.8335 -31.8335
   -31.8146 -31.8145 -31.8144 -31.8142 -31.7930 -31.7929 -31.7927 -31.7927
    -8.3365  -8.3364  -8.3364  -8.3362   4.1577   4.1578   4.1581   4.1583
     5.6309   5.6309   5.6314   5.6315   6.9126   6.9128   6.9128   6.9129

          k = 0.2500 0.0000 0.0000 (  5202 PWs)   bands (ev):

   -65.0526 -65.0463 -65.0451 -65.0445 -31.8401 -31.8378 -31.8363 -31.8167
   -31.8117 -31.8114 -31.8104 -31.8064 -31.8032 -31.7978 -31.7906 -31.7860
    -9.2635  -8.2679  -8.0303  -8.0173   3.9242   3.9457   3.9699   5.7014
     5.7124   6.0166   6.0514   6.3792   6.4209   6.5006   7.2744   7.2967

          k = 0.2500 0.0000 0.2500 (  5231 PWs)   bands (ev):

   -65.0515 -65.0463 -65.0459 -65.0448 -31.8382 -31.8381 -31.8315 -31.8251
   -31.8102 -31.8085 -31.8085 -31.8064 -31.8055 -31.8053 -31.7902 -31.7887
    -9.0795  -8.2044  -8.2043  -8.0256   4.0408   4.0408   4.2203   4.9401
     5.7074   5.9058   5.9062   6.3537   6.3538   6.4186   7.0028   7.3442

          k = 0.2500 0.0000-0.5000 (  5232 PWs)   bands (ev):

   -65.0490 -65.0486 -65.0457 -65.0452 -31.8343 -31.8342 -31.8269 -31.8268
   -31.8201 -31.8198 -31.8040 -31.8039 -31.7994 -31.7991 -31.7952 -31.7950
    -8.6374  -8.6373  -8.0871  -8.0870   4.3017   4.3018   4.6280   4.6282
     4.9709   4.9710   6.3956   6.3958   6.4172   6.4173   6.9435   6.9436

          k = 0.2500 0.2518 0.0000 (  5225 PWs)   bands (ev):

   -65.0515 -65.0462 -65.0458 -65.0449 -31.8381 -31.8356 -31.8339 -31.8223
   -31.8137 -31.8127 -31.8088 -31.8053 -31.8032 -31.8015 -31.7945 -31.7861
    -9.0759  -8.2039  -8.1910  -8.0344   4.0363   4.0420   4.2045   4.9406
     5.6861   5.8992   5.9326   6.3205   6.3325   6.4421   7.0195   7.3411

          k = 0.2500 0.2518 0.2500 (  5226 PWs)   bands (ev):

   -65.0505 -65.0462 -65.0462 -65.0455 -31.8412 -31.8411 -31.8391 -31.8221
   -31.8108 -31.8106 -31.8099 -31.8032 -31.7999 -31.7999 -31.7921 -31.7879
    -8.9121  -8.1713  -8.1712  -8.1620   3.8797   3.8826   3.8826   4.9466
     5.7030   5.7031   5.7139   6.5408   6.5609   6.5611   7.1935   7.1957

          k = 0.2500 0.2518-0.5000 (  5216 PWs)   bands (ev):

   -65.0485 -65.0481 -65.0462 -65.0456 -31.8432 -31.8430 -31.8364 -31.8363
   -31.8096 -31.8094 -31.8000 -31.8000 -31.7970 -31.7969 -31.7931 -31.7929
    -8.5285  -8.5284  -8.1354  -8.1353   3.7065   3.7065   4.0750   4.0751
     5.6912   5.6912   6.5913   6.5915   6.7132   6.7134   6.8646   6.8646

          k = 0.2500-0.5036 0.0000 (  5224 PWs)   bands (ev):

   -65.0489 -65.0485 -65.0458 -65.0452 -31.8333 -31.8331 -31.8247 -31.8246
   -31.8242 -31.8239 -31.8046 -31.8044 -31.7991 -31.7991 -31.7936 -31.7935
    -8.6271  -8.6269  -8.0889  -8.0888   4.2910   4.2915   4.6055   4.6058
     4.9730   4.9737   6.3906   6.3908   6.4205   6.4208   6.9386   6.9388

          k = 0.2500-0.5036 0.2500 (  5220 PWs)   bands (ev):

   -65.0484 -65.0480 -65.0462 -65.0457 -31.8441 -31.8440 -31.8357 -31.8357
   -31.8122 -31.8120 -31.7975 -31.7973 -31.7962 -31.7962 -31.7941 -31.7941
    -8.5219  -8.5217  -8.1377  -8.1376   3.7048   3.7048   4.0637   4.0640
     5.6923   5.6923   6.5856   6.5858   6.7231   6.7234   6.8530   6.8530

          k = 0.2500-0.5036-0.5000 (  5220 PWs)   bands (ev):

   -65.0473 -65.0473 -65.0473 -65.0464 -31.8463 -31.8460 -31.8460 -31.8460
   -31.8022 -31.8020 -31.8020 -31.8019 -31.7923 -31.7921 -31.7920 -31.7919
    -8.3014  -8.3014  -8.3014  -8.3012   3.5217   3.5218   3.5219   3.5220
     6.3737   6.3738   6.3741   6.3741   6.9136   6.9138   6.9138   6.9140

          k =-0.5000 0.0000 0.0000 (  5230 PWs)   bands (ev):

   -65.0496 -65.0492 -65.0450 -65.0445 -31.8294 -31.8291 -31.8239 -31.8236
   -31.8192 -31.8192 -31.8126 -31.8125 -31.7990 -31.7987 -31.7945 -31.7943
    -8.7694  -8.7694  -7.9971  -7.9970   4.7090   4.7090   4.7268   4.7268
     4.9834   4.9836   5.8409   5.8412   6.7993   6.7994   6.8323   6.8323

          k =-0.5000 0.0000 0.2500 (  5232 PWs)   bands (ev):

   -65.0490 -65.0486 -65.0457 -65.0452 -31.8343 -31.8342 -31.8269 -31.8268
   -31.8201 -31.8198 -31.8040 -31.8039 -31.7994 -31.7991 -31.7952 -31.7950
    -8.6373  -8.6373  -8.0871  -8.0871   4.3017   4.3018   4.6279   4.6281
     4.9711   4.9711   6.3954   6.3957   6.4171   6.4171   6.9436   6.9437

          k =-0.5000 0.0000-0.5000 (  5248 PWs)   bands (ev):

   -65.0473 -65.0473 -65.0473 -65.0464 -31.8351 -31.8349 -31.8348 -31.8348
   -31.8108 -31.8106 -31.8106 -31.8103 -31.7961 -31.7959 -31.7958 -31.7958
    -8.3412  -8.3412  -8.3411  -8.3411   4.1846   4.1848   4.1848   4.1849
     5.6278   5.6278   5.6281   5.6281   6.9022   6.9024   6.9024   6.9026

          k =-0.5000 0.2518 0.0000 (  5232 PWs)   bands (ev):

   -65.0490 -65.0486 -65.0457 -65.0452 -31.8320 -31.8319 -31.8265 -31.8264
   -31.8248 -31.8245 -31.8039 -31.8037 -31.8019 -31.8018 -31.7913 -31.7911
    -8.6351  -8.6350  -8.0845  -8.0845   4.2915   4.2916   4.6109   4.6111
     4.9593   4.9593   6.4112   6.4114   6.4398   6.4399   6.9307   6.9308

          k =-0.5000 0.2518 0.2500 (  5216 PWs)   bands (ev):

   -65.0485 -65.0481 -65.0462 -65.0456 -31.8432 -31.8430 -31.8364 -31.8363
   -31.8097 -31.8094 -31.8000 -31.8000 -31.7970 -31.7969 -31.7931 -31.7929
    -8.5284  -8.5284  -8.1353  -8.1353   3.7064   3.7065   4.0749   4.0751
     5.6912   5.6912   6.5913   6.5915   6.7133   6.7135   6.8645   6.8645

          k =-0.5000 0.2518-0.5000 (  5224 PWs)   bands (ev):

   -65.0473 -65.0473 -65.0473 -65.0464 -31.8466 -31.8463 -31.8463 -31.8463
   -31.7987 -31.7985 -31.7985 -31.7983 -31.7957 -31.7955 -31.7954 -31.7954
    -8.3039  -8.3038  -8.3038  -8.3037   3.5307   3.5308   3.5308   3.5308
     6.3819   6.3820   6.3821   6.3822   6.9034   6.9036   6.9036   6.9038

          k =-0.5000-0.5036 0.0000 (  5232 PWs)   bands (ev):

   -65.0473 -65.0473 -65.0473 -65.0464 -31.8338 -31.8336 -31.8335 -31.8335
   -31.8147 -31.8145 -31.8145 -31.8142 -31.7930 -31.7929 -31.7927 -31.7927
    -8.3364  -8.3364  -8.3363  -8.3362   4.1576   4.1576   4.1579   4.1581
     5.6309   5.6310   5.6315   5.6315   6.9127   6.9128   6.9128   6.9130

          k =-0.5000-0.5036 0.2500 (  5220 PWs)   bands (ev):

   -65.0473 -65.0473 -65.0473 -65.0464 -31.8463 -31.8460 -31.8460 -31.8460
   -31.8022 -31.8020 -31.8020 -31.8019 -31.7923 -31.7921 -31.7920 -31.7919
    -8.3014  -8.3014  -8.3013  -8.3013   3.5217   3.5218   3.5218   3.5220
     6.3736   6.3738   6.3741   6.3741   6.9137   6.9139   6.9139   6.9141

          k =-0.5000-0.5036-0.5000 (  5232 PWs)   bands (ev):

   -65.0473 -65.0473 -65.0473 -65.0464 -31.8544 -31.8541 -31.8541 -31.8541
   -31.7954 -31.7952 -31.7951 -31.7951 -31.7917 -31.7915 -31.7915 -31.7913
    -8.2659  -8.2658  -8.2658  -8.2658   3.1087   3.1088   3.1089   3.1089
     6.9046   6.9047   6.9047   6.9049   6.9179   6.9180   6.9181   6.9182

          k = 0.0000 0.2518-0.2500 (  5225 PWs)   bands (ev):

   -65.0515 -65.0462 -65.0458 -65.0449 -31.8381 -31.8355 -31.8339 -31.8223
   -31.8137 -31.8127 -31.8088 -31.8054 -31.8032 -31.8015 -31.7945 -31.7861
    -9.0759  -8.2040  -8.1910  -8.0343   4.0363   4.0421   4.2046   4.9406
     5.6863   5.8990   5.9327   6.3207   6.3328   6.4419   7.0194   7.3412

          k =-0.2500 0.2518-0.2500 (  5226 PWs)   bands (ev):

   -65.0505 -65.0462 -65.0462 -65.0455 -31.8412 -31.8411 -31.8391 -31.8221
   -31.8108 -31.8106 -31.8099 -31.8032 -31.7999 -31.7999 -31.7921 -31.7879
    -8.9121  -8.1713  -8.1712  -8.1620   3.8797   3.8826   3.8826   4.9466
     5.7030   5.7031   5.7139   6.5408   6.5609   6.5611   7.1935   7.1957

          k = 0.5000 0.2518-0.2500 (  5216 PWs)   bands (ev):

   -65.0485 -65.0481 -65.0462 -65.0456 -31.8432 -31.8430 -31.8364 -31.8363
   -31.8097 -31.8094 -31.8000 -31.8000 -31.7970 -31.7969 -31.7931 -31.7929
    -8.5284  -8.5284  -8.1353  -8.1353   3.7064   3.7065   4.0749   4.0751
     5.6912   5.6912   6.5913   6.5915   6.7133   6.7135   6.8645   6.8645

     highest occupied level (ev):     7.5081

!    total energy              =    -608.39204530 Ry
     Harris-Foulkes estimate   =    -608.39204530 Ry
     estimated scf accuracy    <          7.3E-10 Ry

     The total energy is the sum of the following terms:

     one-electron contribution =    -306.31957268 Ry
     hartree contribution      =     168.99137352 Ry
     xc contribution           =     -97.78863281 Ry
     ewald contribution        =    -373.27521332 Ry

     convergence has been achieved in   5 iterations

     Forces acting on atoms (cartesian axes, Ry/au):

     atom    1 type  1   force =     0.00000000    0.00002334   -0.00000136
     atom    2 type  1   force =     0.00000000   -0.00015999    0.00000239
     atom    3 type  1   force =     0.00000000    0.00019932    0.00000230
     atom    4 type  1   force =     0.00000000   -0.00015957   -0.00000257
     atom    5 type  2   force =     0.00000000   -0.00009435   -0.00000054
     atom    6 type  2   force =     0.00000000    0.00012996   -0.00000053
     atom    7 type  2   force =     0.00000000   -0.00009279    0.00000021
     atom    8 type  2   force =     0.00000000    0.00015408    0.00000010

     Total force =     0.000387     Total SCF correction =     0.000260
     SCF correction compared to forces is large: reduce conv_thr to get better values


     Computing stress (Cartesian axis) and pressure

          total   stress  (Ry/bohr**3)                   (kbar)     P=  -87.35
  -0.00061907   0.00000000   0.00000000        -91.07      0.00      0.00
   0.00000000  -0.00054244   0.00000000          0.00    -79.80      0.00
   0.00000000   0.00000000  -0.00061992          0.00      0.00    -91.19


     number of scf cycles    =   4
     number of bfgs steps    =   3

     energy   old            =    -608.3920137481 Ry
     energy   new            =    -608.3920452974 Ry

     CASE: energy  _new < energy  _old

     new trust radius        =       0.0002294948 bohr
     new conv_thr            =       0.0000000002 Ry


ATOMIC_POSITIONS (alat)
Mg       0.000000000   0.001646204  -0.000011321
Mg       0.000000000   0.498318424   0.500011376
Mg       0.500000000   0.001728897   0.500011560
Mg       0.500000000   0.498318493  -0.000011883
O        0.500000000   0.001791466  -0.000012374
O        0.000000000   0.498203988  -0.000012387
O        0.000000000   0.001791226   0.500012506
O        0.500000000   0.498201302   0.500012523



     Writing output data file diamond.8.10221364925.70.4.save
     NEW-OLD atomic charge density approx. for the potential

     Check: negative/imaginary core charge=   -0.000007    0.000000

     total cpu time spent up to now is       37.9 secs

     per-process dynamical memory:    56.1 Mb

     Self-consistent Calculation

     iteration #  1     ecut=    70.00 Ry     beta=0.70
     Davidson diagonalization with overlap
     ethr =  1.00E-06,  avg # of iterations =  2.0

     Threshold (ethr) on eigenvalues was too large:
     Diagonalizing with lowered threshold

     Davidson diagonalization with overlap
     ethr =  7.50E-12,  avg # of iterations =  3.8

     total cpu time spent up to now is       41.1 secs

     total energy              =    -608.39204542 Ry
     Harris-Foulkes estimate   =    -608.39204543 Ry
     estimated scf accuracy    <          6.1E-09 Ry

     iteration #  2     ecut=    70.00 Ry     beta=0.70
     Davidson diagonalization with overlap
     ethr =  9.55E-12,  avg # of iterations =  3.0

     total cpu time spent up to now is       42.5 secs

     total energy              =    -608.39204543 Ry
     Harris-Foulkes estimate   =    -608.39204543 Ry
     estimated scf accuracy    <          4.2E-09 Ry

     iteration #  3     ecut=    70.00 Ry     beta=0.70
     Davidson diagonalization with overlap
     ethr =  6.60E-12,  avg # of iterations =  2.9

     total cpu time spent up to now is       43.8 secs

     total energy              =    -608.39204543 Ry
     Harris-Foulkes estimate   =    -608.39204543 Ry
     estimated scf accuracy    <          5.1E-10 Ry

     iteration #  4     ecut=    70.00 Ry     beta=0.70
     Davidson diagonalization with overlap
     ethr =  7.92E-13,  avg # of iterations =  2.7

     total cpu time spent up to now is       45.1 secs

     End of self-consistent calculation

          k = 0.0000 0.0000 0.0000 (  5217 PWs)   bands (ev):

   -65.0539 -65.0452 -65.0450 -65.0443 -31.8457 -31.8456 -31.8420 -31.8113
   -31.8113 -31.8097 -31.8096 -31.8068 -31.8068 -31.7882 -31.7882 -31.7817
    -9.4652  -8.0594  -8.0593  -8.0411   3.6382   3.6383   3.6611   6.2126
     6.2129   6.2184   6.2189   6.2632   6.2633   7.4926   7.5080   7.5081

          k = 0.0000 0.0000 0.2500 (  5202 PWs)   bands (ev):

   -65.0526 -65.0463 -65.0451 -65.0445 -31.8401 -31.8378 -31.8363 -31.8167
   -31.8117 -31.8114 -31.8105 -31.8064 -31.8032 -31.7978 -31.7906 -31.7860
    -9.2635  -8.2680  -8.0302  -8.0173   3.9244   3.9457   3.9698   5.7012
     5.7121   6.0169   6.0515   6.3795   6.4210   6.5007   7.2745   7.2966

          k = 0.0000 0.0000-0.5000 (  5230 PWs)   bands (ev):

   -65.0496 -65.0492 -65.0450 -65.0445 -31.8294 -31.8291 -31.8239 -31.8236
   -31.8192 -31.8192 -31.8126 -31.8125 -31.7989 -31.7987 -31.7945 -31.7943
    -8.7695  -8.7694  -7.9971  -7.9970   4.7090   4.7090   4.7266   4.7267
     4.9834   4.9837   5.8411   5.8415   6.7996   6.7996   6.8322   6.8323

          k = 0.0000 0.2518 0.0000 (  5205 PWs)   bands (ev):

   -65.0526 -65.0461 -65.0452 -65.0446 -31.8402 -31.8402 -31.8325 -31.8158
   -31.8158 -31.8080 -31.8080 -31.8076 -31.8075 -31.7921 -31.7907 -31.7907
    -9.2595  -8.2505  -8.0308  -8.0307   3.9291   3.9292   3.9821   5.7398
     5.7399   6.0056   6.0060   6.3759   6.3762   6.4858   7.2869   7.2870

          k = 0.0000 0.2518 0.2500 (  5225 PWs)   bands (ev):

   -65.0515 -65.0462 -65.0458 -65.0449 -31.8381 -31.8355 -31.8339 -31.8223
   -31.8137 -31.8127 -31.8088 -31.8054 -31.8032 -31.8015 -31.7945 -31.7861
    -9.0759  -8.2040  -8.1911  -8.0343   4.0363   4.0421   4.2046   4.9406
     5.6862   5.8990   5.9327   6.3207   6.3328   6.4419   7.0194   7.3412

          k = 0.0000 0.2518-0.5000 (  5232 PWs)   bands (ev):

   -65.0490 -65.0486 -65.0457 -65.0452 -31.8320 -31.8319 -31.8265 -31.8264
   -31.8247 -31.8245 -31.8039 -31.8036 -31.8019 -31.8018 -31.7913 -31.7912
    -8.6352  -8.6351  -8.0845  -8.0845   4.2916   4.2916   4.6111   4.6113
     4.9592   4.9593   6.4112   6.4114   6.4398   6.4398   6.9307   6.9308

          k = 0.0000-0.5036 0.0000 (  5206 PWs)   bands (ev):

   -65.0495 -65.0491 -65.0452 -65.0446 -31.8283 -31.8283 -31.8281 -31.8281
   -31.8147 -31.8146 -31.8056 -31.8055 -31.7996 -31.7996 -31.7994 -31.7994
    -8.7574  -8.7570  -8.0019  -8.0019   4.7277   4.7278   4.7285   4.7286
     4.9766   4.9768   5.8054   5.8057   6.8027   6.8030   6.8030   6.8032

          k = 0.0000-0.5036 0.2500 (  5224 PWs)   bands (ev):

   -65.0489 -65.0485 -65.0458 -65.0452 -31.8333 -31.8331 -31.8247 -31.8246
   -31.8241 -31.8239 -31.8046 -31.8043 -31.7991 -31.7991 -31.7937 -31.7936
    -8.6272  -8.6269  -8.0889  -8.0888   4.2911   4.2915   4.6056   4.6059
     4.9731   4.9738   6.3904   6.3907   6.4203   6.4206   6.9387   6.9389

          k = 0.0000-0.5036-0.5000 (  5232 PWs)   bands (ev):

   -65.0473 -65.0473 -65.0473 -65.0464 -31.8338 -31.8336 -31.8335 -31.8335
   -31.8146 -31.8145 -31.8144 -31.8142 -31.7930 -31.7929 -31.7927 -31.7927
    -8.3365  -8.3364  -8.3363  -8.3362   4.1578   4.1578   4.1580   4.1582
     5.6308   5.6309   5.6315   5.6316   6.9126   6.9127   6.9128   6.9129

          k = 0.2500 0.0000 0.0000 (  5202 PWs)   bands (ev):

   -65.0526 -65.0463 -65.0451 -65.0445 -31.8401 -31.8378 -31.8363 -31.8167
   -31.8117 -31.8114 -31.8104 -31.8064 -31.8032 -31.7978 -31.7906 -31.7860
    -9.2635  -8.2679  -8.0303  -8.0173   3.9242   3.9457   3.9699   5.7014
     5.7124   6.0166   6.0514   6.3791   6.4209   6.5006   7.2744   7.2966

          k = 0.2500 0.0000 0.2500 (  5231 PWs)   bands (ev):

   -65.0515 -65.0463 -65.0459 -65.0448 -31.8382 -31.8381 -31.8315 -31.8250
   -31.8102 -31.8085 -31.8085 -31.8064 -31.8055 -31.8053 -31.7902 -31.7887
    -9.0795  -8.2044  -8.2043  -8.0256   4.0408   4.0408   4.2203   4.9401
     5.7074   5.9058   5.9062   6.3537   6.3538   6.4186   7.0028   7.3442

          k = 0.2500 0.0000-0.5000 (  5232 PWs)   bands (ev):

   -65.0490 -65.0486 -65.0457 -65.0452 -31.8343 -31.8342 -31.8269 -31.8268
   -31.8201 -31.8198 -31.8040 -31.8039 -31.7994 -31.7991 -31.7952 -31.7950
    -8.6374  -8.6373  -8.0871  -8.0870   4.3017   4.3018   4.6279   4.6282
     4.9709   4.9710   6.3956   6.3958   6.4172   6.4173   6.9435   6.9436

          k = 0.2500 0.2518 0.0000 (  5225 PWs)   bands (ev):

   -65.0515 -65.0462 -65.0458 -65.0449 -31.8381 -31.8356 -31.8339 -31.8223
   -31.8137 -31.8127 -31.8088 -31.8053 -31.8032 -31.8015 -31.7945 -31.7861
    -9.0759  -8.2039  -8.1911  -8.0344   4.0363   4.0420   4.2045   4.9406
     5.6861   5.8992   5.9326   6.3205   6.3325   6.4421   7.0195   7.3411

          k = 0.2500 0.2518 0.2500 (  5226 PWs)   bands (ev):

   -65.0505 -65.0462 -65.0462 -65.0454 -31.8412 -31.8411 -31.8391 -31.8221
   -31.8108 -31.8106 -31.8099 -31.8032 -31.7999 -31.7999 -31.7921 -31.7879
    -8.9121  -8.1713  -8.1712  -8.1620   3.8797   3.8826   3.8826   4.9466
     5.7029   5.7031   5.7139   6.5408   6.5609   6.5611   7.1934   7.1957

          k = 0.2500 0.2518-0.5000 (  5216 PWs)   bands (ev):

   -65.0485 -65.0481 -65.0462 -65.0456 -31.8432 -31.8430 -31.8364 -31.8363
   -31.8096 -31.8094 -31.8000 -31.8000 -31.7970 -31.7969 -31.7931 -31.7929
    -8.5285  -8.5284  -8.1354  -8.1353   3.7065   3.7065   4.0750   4.0751
     5.6912   5.6912   6.5913   6.5915   6.7132   6.7134   6.8646   6.8646

          k = 0.2500-0.5036 0.0000 (  5224 PWs)   bands (ev):

   -65.0489 -65.0485 -65.0458 -65.0452 -31.8333 -31.8331 -31.8247 -31.8246
   -31.8242 -31.8239 -31.8046 -31.8044 -31.7991 -31.7991 -31.7936 -31.7935
    -8.6272  -8.6268  -8.0889  -8.0888   4.2910   4.2915   4.6055   4.6057
     4.9730   4.9737   6.3905   6.3908   6.4204   6.4208   6.9386   6.9388

          k = 0.2500-0.5036 0.2500 (  5220 PWs)   bands (ev):

   -65.0484 -65.0480 -65.0462 -65.0457 -31.8441 -31.8439 -31.8357 -31.8357
   -31.8122 -31.8120 -31.7975 -31.7973 -31.7962 -31.7962 -31.7941 -31.7941
    -8.5220  -8.5217  -8.1377  -8.1376   3.7048   3.7048   4.0637   4.0639
     5.6923   5.6923   6.5856   6.5858   6.7231   6.7234   6.8529   6.8531

          k = 0.2500-0.5036-0.5000 (  5220 PWs)   bands (ev):

   -65.0473 -65.0473 -65.0473 -65.0464 -31.8463 -31.8460 -31.8460 -31.8460
   -31.8022 -31.8020 -31.8020 -31.8019 -31.7923 -31.7921 -31.7920 -31.7919
    -8.3015  -8.3014  -8.3013  -8.3012   3.5218   3.5219   3.5219   3.5220
     6.3737   6.3738   6.3741   6.3741   6.9137   6.9138   6.9138   6.9140

          k =-0.5000 0.0000 0.0000 (  5230 PWs)   bands (ev):

   -65.0496 -65.0492 -65.0450 -65.0445 -31.8294 -31.8291 -31.8239 -31.8236
   -31.8192 -31.8192 -31.8126 -31.8125 -31.7990 -31.7987 -31.7945 -31.7943
    -8.7694  -8.7693  -7.9971  -7.9970   4.7090   4.7090   4.7268   4.7268
     4.9833   4.9836   5.8409   5.8412   6.7994   6.7994   6.8323   6.8323

          k =-0.5000 0.0000 0.2500 (  5232 PWs)   bands (ev):

   -65.0490 -65.0486 -65.0457 -65.0452 -31.8343 -31.8342 -31.8269 -31.8268
   -31.8201 -31.8198 -31.8040 -31.8039 -31.7994 -31.7991 -31.7952 -31.7950
    -8.6373  -8.6372  -8.0871  -8.0871   4.3017   4.3018   4.6279   4.6281
     4.9710   4.9711   6.3954   6.3957   6.4171   6.4171   6.9436   6.9436

          k =-0.5000 0.0000-0.5000 (  5248 PWs)   bands (ev):

   -65.0473 -65.0473 -65.0473 -65.0464 -31.8351 -31.8349 -31.8348 -31.8348
   -31.8108 -31.8106 -31.8106 -31.8103 -31.7961 -31.7959 -31.7958 -31.7958
    -8.3413  -8.3411  -8.3411  -8.3411   4.1846   4.1847   4.1847   4.1849
     5.6278   5.6278   5.6281   5.6281   6.9022   6.9024   6.9024   6.9026

          k =-0.5000 0.2518 0.0000 (  5232 PWs)   bands (ev):

   -65.0490 -65.0486 -65.0457 -65.0452 -31.8320 -31.8319 -31.8265 -31.8264
   -31.8248 -31.8245 -31.8039 -31.8037 -31.8019 -31.8018 -31.7913 -31.7911
[...]
   -31.8107 -31.8106 -31.8099 -31.8032 -31.7999 -31.7999 -31.7921 -31.7879
    -8.9121  -8.1713  -8.1712  -8.1620   3.8797   3.8826   3.8826   4.9466
     5.7029   5.7031   5.7139   6.5408   6.5609   6.5611   7.1934   7.1957

          k = 0.5000 0.2518-0.2500 (  5216 PWs)   bands (ev):

   -65.0485 -65.0481 -65.0462 -65.0456 -31.8432 -31.8430 -31.8364 -31.8363
   -31.8097 -31.8094 -31.8000 -31.8000 -31.7970 -31.7969 -31.7931 -31.7929
    -8.5284  -8.5283  -8.1354  -8.1353   3.7064   3.7065   4.0749   4.0751
     5.6912   5.6912   6.5912   6.5915   6.7133   6.7134   6.8645   6.8645

     highest occupied level (ev):     7.5081

!    total energy              =    -608.39204543 Ry
     Harris-Foulkes estimate   =    -608.39204543 Ry
     estimated scf accuracy    <          8.4E-12 Ry

     The total energy is the sum of the following terms:

     one-electron contribution =    -306.31957497 Ry
     hartree contribution      =     168.99138569 Ry
     xc contribution           =     -97.78863819 Ry
     ewald contribution        =    -373.27521796 Ry

     convergence has been achieved in   4 iterations

     Forces acting on atoms (cartesian axes, Ry/au):

     atom    1 type  1   force =     0.00000000   -0.00000753   -0.00000082
     atom    2 type  1   force =     0.00000000   -0.00010672    0.00000173
     atom    3 type  1   force =     0.00000000    0.00014018    0.00000165
     atom    4 type  1   force =     0.00000000   -0.00010645   -0.00000186
     atom    5 type  2   force =     0.00000000   -0.00006850   -0.00000036
     atom    6 type  2   force =     0.00000000    0.00009411   -0.00000038
     atom    7 type  2   force =     0.00000000   -0.00006818    0.00000009
     atom    8 type  2   force =     0.00000000    0.00012308   -0.00000005

     Total force =     0.000275     Total SCF correction =     0.000011


     Computing stress (Cartesian axis) and pressure

          total   stress  (Ry/bohr**3)                   (kbar)     P=  -87.35
  -0.00061905   0.00000000   0.00000000        -91.07      0.00      0.00
   0.00000000  -0.00054242   0.00000000          0.00    -79.79      0.00
   0.00000000   0.00000000  -0.00061989          0.00      0.00    -91.19


     number of scf cycles    =   5
     number of bfgs steps    =   4

     energy   old            =    -608.3920452974 Ry
     energy   new            =    -608.3920454264 Ry

     CASE: energy  _new < energy  _old

     new trust radius        =       0.0002524443 bohr
     new conv_thr            =            1.0E-10 Ry


ATOMIC_POSITIONS (alat)
Mg       0.000000000   0.001645769  -0.000011506
Mg       0.000000000   0.498294437   0.500011755
Mg       0.500000000   0.001760052   0.500011921
Mg       0.500000000   0.498294564  -0.000012290
O        0.500000000   0.001777765  -0.000012458
O        0.000000000   0.498223194  -0.000012476
O        0.000000000   0.001777601   0.500012533
O        0.500000000   0.498226618   0.500012521



     Writing output data file diamond.8.10221364925.70.4.save
     NEW-OLD atomic charge density approx. for the potential

     Check: negative/imaginary core charge=   -0.000007    0.000000

     total cpu time spent up to now is       45.9 secs

     per-process dynamical memory:    56.1 Mb

     Self-consistent Calculation

     iteration #  1     ecut=    70.00 Ry     beta=0.70
     Davidson diagonalization with overlap
     ethr =  1.00E-06,  avg # of iterations =  2.0

     Threshold (ethr) on eigenvalues was too large:
     Diagonalizing with lowered threshold

     Davidson diagonalization with overlap
     ethr =  2.06E-11,  avg # of iterations =  3.7

     total cpu time spent up to now is       48.9 secs

     total energy              =    -608.39204552 Ry
     Harris-Foulkes estimate   =    -608.39204553 Ry
     estimated scf accuracy    <       0.00000001 Ry

     iteration #  2     ecut=    70.00 Ry     beta=0.70
     Davidson diagonalization with overlap
     ethr =  1.90E-11,  avg # of iterations =  2.0

     total cpu time spent up to now is       50.1 secs

     total energy              =    -608.39204552 Ry
     Harris-Foulkes estimate   =    -608.39204552 Ry
     estimated scf accuracy    <          1.8E-09 Ry

     iteration #  3     ecut=    70.00 Ry     beta=0.70
     Davidson diagonalization with overlap
     ethr =  2.79E-12,  avg # of iterations =  2.0

     total cpu time spent up to now is       51.3 secs

     End of self-consistent calculation

          k = 0.0000 0.0000 0.0000 (  5217 PWs)   bands (ev):

   -65.0539 -65.0452 -65.0450 -65.0443 -31.8457 -31.8456 -31.8420 -31.8113
   -31.8113 -31.8097 -31.8096 -31.8068 -31.8068 -31.7882 -31.7882 -31.7817
    -9.4652  -8.0594  -8.0593  -8.0411   3.6382   3.6383   3.6611   6.2126
     6.2129   6.2184   6.2189   6.2632   6.2633   7.4926   7.5080   7.5081

          k = 0.0000 0.0000 0.2500 (  5202 PWs)   bands (ev):

   -65.0526 -65.0463 -65.0451 -65.0445 -31.8401 -31.8378 -31.8363 -31.8167
   -31.8117 -31.8114 -31.8105 -31.8064 -31.8032 -31.7978 -31.7906 -31.7860
    -9.2635  -8.2680  -8.0302  -8.0173   3.9244   3.9457   3.9698   5.7012
     5.7121   6.0169   6.0515   6.3795   6.4210   6.5007   7.2745   7.2966

          k = 0.0000 0.0000-0.5000 (  5230 PWs)   bands (ev):

   -65.0496 -65.0492 -65.0450 -65.0445 -31.8294 -31.8291 -31.8239 -31.8236
   -31.8192 -31.8192 -31.8126 -31.8125 -31.7989 -31.7987 -31.7945 -31.7943
    -8.7695  -8.7694  -7.9971  -7.9970   4.7090   4.7090   4.7267   4.7267
     4.9834   4.9837   5.8411   5.8415   6.7996   6.7996   6.8322   6.8323

          k = 0.0000 0.2518 0.0000 (  5205 PWs)   bands (ev):

   -65.0526 -65.0461 -65.0452 -65.0446 -31.8402 -31.8402 -31.8325 -31.8158
   -31.8158 -31.8080 -31.8080 -31.8076 -31.8075 -31.7921 -31.7907 -31.7907
    -9.2595  -8.2505  -8.0308  -8.0307   3.9291   3.9292   3.9821   5.7398
     5.7399   6.0056   6.0060   6.3759   6.3762   6.4858   7.2869   7.2870

          k = 0.0000 0.2518 0.2500 (  5225 PWs)   bands (ev):

   -65.0515 -65.0462 -65.0458 -65.0449 -31.8381 -31.8355 -31.8339 -31.8223
   -31.8137 -31.8127 -31.8088 -31.8054 -31.8032 -31.8015 -31.7945 -31.7861
    -9.0759  -8.2040  -8.1911  -8.0343   4.0363   4.0421   4.2046   4.9406
     5.6862   5.8990   5.9327   6.3207   6.3328   6.4419   7.0194   7.3412

          k = 0.0000 0.2518-0.5000 (  5232 PWs)   bands (ev):

   -65.0490 -65.0486 -65.0457 -65.0452 -31.8320 -31.8319 -31.8265 -31.8264
   -31.8247 -31.8245 -31.8039 -31.8036 -31.8019 -31.8018 -31.7913 -31.7912
    -8.6352  -8.6351  -8.0845  -8.0845   4.2916   4.2916   4.6111   4.6113
     4.9592   4.9593   6.4112   6.4114   6.4398   6.4398   6.9307   6.9308

          k = 0.0000-0.5036 0.0000 (  5206 PWs)   bands (ev):

   -65.0495 -65.0491 -65.0452 -65.0446 -31.8283 -31.8283 -31.8281 -31.8281
   -31.8147 -31.8146 -31.8056 -31.8055 -31.7996 -31.7996 -31.7994 -31.7994
    -8.7575  -8.7569  -8.0019  -8.0018   4.7276   4.7277   4.7286   4.7287
     4.9765   4.9769   5.8054   5.8057   6.8026   6.8029   6.8031   6.8033

          k = 0.0000-0.5036 0.2500 (  5224 PWs)   bands (ev):

   -65.0489 -65.0485 -65.0458 -65.0452 -31.8333 -31.8331 -31.8247 -31.8246
   -31.8241 -31.8239 -31.8045 -31.8044 -31.7991 -31.7991 -31.7937 -31.7936
    -8.6273  -8.6268  -8.0890  -8.0888   4.2911   4.2916   4.6056   4.6059
     4.9729   4.9739   6.3904   6.3907   6.4202   6.4208   6.9387   6.9389

          k = 0.0000-0.5036-0.5000 (  5232 PWs)   bands (ev):

   -65.0473 -65.0473 -65.0473 -65.0464 -31.8338 -31.8336 -31.8335 -31.8335
   -31.8146 -31.8145 -31.8144 -31.8142 -31.7930 -31.7929 -31.7927 -31.7927
    -8.3366  -8.3365  -8.3363  -8.3362   4.1579   4.1579   4.1580   4.1582
     5.6307   5.6308   5.6316   5.6317   6.9126   6.9127   6.9128   6.9130

          k = 0.2500 0.0000 0.0000 (  5202 PWs)   bands (ev):

   -65.0526 -65.0463 -65.0451 -65.0445 -31.8401 -31.8378 -31.8363 -31.8167
   -31.8117 -31.8114 -31.8104 -31.8064 -31.8032 -31.7978 -31.7906 -31.7860
    -9.2635  -8.2679  -8.0303  -8.0173   3.9242   3.9457   3.9699   5.7014
     5.7124   6.0166   6.0514   6.3792   6.4209   6.5006   7.2744   7.2967

          k = 0.2500 0.0000 0.2500 (  5231 PWs)   bands (ev):

   -65.0515 -65.0463 -65.0459 -65.0448 -31.8382 -31.8381 -31.8315 -31.8250
   -31.8102 -31.8085 -31.8085 -31.8064 -31.8055 -31.8053 -31.7902 -31.7887
    -9.0795  -8.2044  -8.2043  -8.0256   4.0408   4.0408   4.2203   4.9401
     5.7074   5.9058   5.9062   6.3537   6.3538   6.4186   7.0028   7.3442

          k = 0.2500 0.0000-0.5000 (  5232 PWs)   bands (ev):

   -65.0490 -65.0486 -65.0457 -65.0452 -31.8343 -31.8342 -31.8269 -31.8268
   -31.8201 -31.8198 -31.8040 -31.8039 -31.7994 -31.7991 -31.7952 -31.7950
    -8.6374  -8.6373  -8.0871  -8.0870   4.3017   4.3018   4.6280   4.6282
     4.9709   4.9710   6.3956   6.3958   6.4172   6.4173   6.9435   6.9436

          k = 0.2500 0.2518 0.0000 (  5225 PWs)   bands (ev):

   -65.0515 -65.0462 -65.0458 -65.0449 -31.8381 -31.8356 -31.8339 -31.8223
   -31.8137 -31.8127 -31.8088 -31.8053 -31.8032 -31.8015 -31.7945 -31.7861
    -9.0759  -8.2039  -8.1910  -8.0344   4.0363   4.0420   4.2045   4.9406
     5.6861   5.8992   5.9326   6.3205   6.3325   6.4421   7.0195   7.3411

          k = 0.2500 0.2518 0.2500 (  5226 PWs)   bands (ev):

   -65.0505 -65.0462 -65.0462 -65.0454 -31.8412 -31.8411 -31.8391 -31.8221
   -31.8108 -31.8106 -31.8099 -31.8032 -31.7999 -31.7999 -31.7921 -31.7879
    -8.9121  -8.1713  -8.1712  -8.1620   3.8797   3.8826   3.8826   4.9466
     5.7029   5.7031   5.7139   6.5408   6.5609   6.5611   7.1935   7.1957

          k = 0.2500 0.2518-0.5000 (  5216 PWs)   bands (ev):

   -65.0485 -65.0481 -65.0462 -65.0456 -31.8432 -31.8430 -31.8364 -31.8363
   -31.8096 -31.8094 -31.8000 -31.8000 -31.7970 -31.7969 -31.7931 -31.7929
    -8.5285  -8.5284  -8.1354  -8.1353   3.7065   3.7065   4.0750   4.0751
     5.6912   5.6912   6.5913   6.5915   6.7132   6.7134   6.8646   6.8646

          k = 0.2500-0.5036 0.0000 (  5224 PWs)   bands (ev):

   -65.0489 -65.0485 -65.0458 -65.0452 -31.8333 -31.8331 -31.8247 -31.8246
   -31.8241 -31.8239 -31.8046 -31.8044 -31.7991 -31.7991 -31.7936 -31.7935
    -8.6272  -8.6268  -8.0889  -8.0888   4.2910   4.2915   4.6055   4.6058
     4.9729   4.9738   6.3905   6.3909   6.4203   6.4209   6.9386   6.9388

          k = 0.2500-0.5036 0.2500 (  5220 PWs)   bands (ev):

   -65.0484 -65.0480 -65.0462 -65.0457 -31.8441 -31.8439 -31.8357 -31.8357
   -31.8122 -31.8120 -31.7975 -31.7973 -31.7962 -31.7962 -31.7941 -31.7941
    -8.5220  -8.5216  -8.1377  -8.1376   3.7048   3.7048   4.0637   4.0639
     5.6923   5.6923   6.5856   6.5858   6.7231   6.7234   6.8528   6.8532

          k = 0.2500-0.5036-0.5000 (  5220 PWs)   bands (ev):

   -65.0473 -65.0473 -65.0473 -65.0464 -31.8463 -31.8460 -31.8460 -31.8460
   -31.8022 -31.8020 -31.8020 -31.8019 -31.7923 -31.7921 -31.7920 -31.7919
    -8.3015  -8.3014  -8.3013  -8.3012   3.5217   3.5219   3.5219   3.5219
     6.3736   6.3737   6.3742   6.3742   6.9136   6.9138   6.9138   6.9140

          k =-0.5000 0.0000 0.0000 (  5230 PWs)   bands (ev):

   -65.0496 -65.0492 -65.0450 -65.0445 -31.8294 -31.8291 -31.8239 -31.8236
   -31.8192 -31.8192 -31.8126 -31.8125 -31.7990 -31.7987 -31.7945 -31.7943
    -8.7694  -8.7693  -7.9971  -7.9970   4.7090   4.7090   4.7268   4.7268
     4.9833   4.9836   5.8408   5.8412   6.7994   6.7994   6.8323   6.8323

          k =-0.5000 0.0000 0.2500 (  5232 PWs)   bands (ev):

   -65.0490 -65.0486 -65.0457 -65.0452 -31.8343 -31.8342 -31.8269 -31.8268
   -31.8201 -31.8198 -31.8040 -31.8039 -31.7994 -31.7991 -31.7952 -31.7950
    -8.6373  -8.6372  -8.0871  -8.0870   4.3017   4.3018   4.6279   4.6281
     4.9710   4.9711   6.3954   6.3957   6.4171   6.4171   6.9436   6.9436

          k =-0.5000 0.0000-0.5000 (  5248 PWs)   bands (ev):

   -65.0473 -65.0473 -65.0473 -65.0464 -31.8351 -31.8349 -31.8348 -31.8348
   -31.8108 -31.8106 -31.8106 -31.8103 -31.7961 -31.7959 -31.7958 -31.7958
    -8.3413  -8.3411  -8.3411  -8.3411   4.1846   4.1847   4.1847   4.1849
     5.6278   5.6278   5.6281   5.6281   6.9022   6.9024   6.9024   6.9026

          k =-0.5000 0.2518 0.0000 (  5232 PWs)   bands (ev):

   -65.0490 -65.0486 -65.0457 -65.0452 -31.8320 -31.8319 -31.8265 -31.8264
   -31.8248 -31.8245 -31.8039 -31.8037 -31.8019 -31.8018 -31.7913 -31.7911
    -8.6351  -8.6350  -8.0846  -8.0845   4.2915   4.2916   4.6109   4.6111
     4.9593   4.9593   6.4112   6.4114   6.4398   6.4399   6.9307   6.9308

          k =-0.5000 0.2518 0.2500 (  5216 PWs)   bands (ev):

   -65.0485 -65.0481 -65.0462 -65.0456 -31.8432 -31.8430 -31.8364 -31.8363
   -31.8097 -31.8094 -31.8000 -31.8000 -31.7970 -31.7969 -31.7931 -31.7929
    -8.5284  -8.5283  -8.1354  -8.1353   3.7064   3.7065   4.0749   4.0751
     5.6912   5.6912   6.5912   6.5915   6.7133   6.7134   6.8645   6.8645

          k =-0.5000 0.2518-0.5000 (  5224 PWs)   bands (ev):

   -65.0473 -65.0473 -65.0473 -65.0464 -31.8466 -31.8463 -31.8463 -31.8463
   -31.7987 -31.7985 -31.7985 -31.7983 -31.7957 -31.7955 -31.7954 -31.7954
    -8.3039  -8.3038  -8.3038  -8.3038   3.5307   3.5308   3.5308   3.5308
     6.3819   6.3820   6.3822   6.3822   6.9034   6.9036   6.9036   6.9038

          k =-0.5000-0.5036 0.0000 (  5232 PWs)   bands (ev):

   -65.0473 -65.0473 -65.0473 -65.0464 -31.8338 -31.8336 -31.8335 -31.8335
   -31.8147 -31.8145 -31.8145 -31.8142 -31.7930 -31.7929 -31.7927 -31.7927
    -8.3365  -8.3365  -8.3362  -8.3361   4.1577   4.1577   4.1578   4.1580
     5.6308   5.6308   5.6316   5.6317   6.9127   6.9128   6.9129   6.9130

          k =-0.5000-0.5036 0.2500 (  5220 PWs)   bands (ev):

   -65.0473 -65.0473 -65.0473 -65.0464 -31.8463 -31.8460 -31.8460 -31.8460
   -31.8022 -31.8020 -31.8020 -31.8019 -31.7923 -31.7921 -31.7920 -31.7919
    -8.3015  -8.3014  -8.3013  -8.3012   3.5217   3.5218   3.5219   3.5219
     6.3736   6.3737   6.3741   6.3742   6.9137   6.9139   6.9139   6.9141

          k =-0.5000-0.5036-0.5000 (  5232 PWs)   bands (ev):

   -65.0473 -65.0473 -65.0473 -65.0464 -31.8544 -31.8541 -31.8541 -31.8541
   -31.7954 -31.7952 -31.7951 -31.7951 -31.7917 -31.7915 -31.7915 -31.7913
    -8.2660  -8.2658  -8.2658  -8.2658   3.1087   3.1088   3.1088   3.1088
     6.9046   6.9047   6.9047   6.9049   6.9179   6.9180   6.9181   6.9182

          k = 0.0000 0.2518-0.2500 (  5225 PWs)   bands (ev):

   -65.0515 -65.0462 -65.0458 -65.0449 -31.8381 -31.8355 -31.8339 -31.8223
   -31.8137 -31.8127 -31.8088 -31.8054 -31.8032 -31.8015 -31.7945 -31.7861
    -9.0759  -8.2040  -8.1911  -8.0343   4.0363   4.0421   4.2046   4.9406
     5.6862   5.8990   5.9327   6.3207   6.3328   6.4419   7.0194   7.3412

          k =-0.2500 0.2518-0.2500 (  5226 PWs)   bands (ev):

   -65.0505 -65.0462 -65.0462 -65.0454 -31.8412 -31.8411 -31.8391 -31.8221
   -31.8108 -31.8106 -31.8099 -31.8032 -31.7999 -31.7999 -31.7921 -31.7879
    -8.9121  -8.1713  -8.1712  -8.1620   3.8797   3.8826   3.8826   4.9466
     5.7029   5.7031   5.7139   6.5408   6.5609   6.5611   7.1935   7.1957

          k = 0.5000 0.2518-0.2500 (  5216 PWs)   bands (ev):

   -65.0485 -65.0481 -65.0462 -65.0456 -31.8432 -31.8430 -31.8364 -31.8363
   -31.8097 -31.8094 -31.8000 -31.8000 -31.7970 -31.7969 -31.7931 -31.7929
    -8.5284  -8.5283  -8.1354  -8.1353   3.7064   3.7065   4.0749   4.0751
     5.6912   5.6912   6.5912   6.5915   6.7133   6.7134   6.8645   6.8645

     highest occupied level (ev):     7.5081

!    total energy              =    -608.39204552 Ry
     Harris-Foulkes estimate   =    -608.39204552 Ry
     estimated scf accuracy    <          2.4E-11 Ry

     The total energy is the sum of the following terms:

     one-electron contribution =    -306.31957041 Ry
     hartree contribution      =     168.99138129 Ry
     xc contribution           =     -97.78863698 Ry
     ewald contribution        =    -373.27521942 Ry

     convergence has been achieved in   3 iterations

     Forces acting on atoms (cartesian axes, Ry/au):

     atom    1 type  1   force =     0.00000000   -0.00002231   -0.00000017
     atom    2 type  1   force =     0.00000000   -0.00005825    0.00000088
     atom    3 type  1   force =     0.00000000    0.00008353    0.00000081
     atom    4 type  1   force =     0.00000000   -0.00005833   -0.00000096
     atom    5 type  2   force =     0.00000000   -0.00002476   -0.00000029
     atom    6 type  2   force =     0.00000000    0.00003655   -0.00000031
     atom    7 type  2   force =     0.00000000   -0.00002525    0.00000011
     atom    8 type  2   force =     0.00000000    0.00006882   -0.00000006

     Total force =     0.000147     Total SCF correction =     0.000008


     Computing stress (Cartesian axis) and pressure

          total   stress  (Ry/bohr**3)                   (kbar)     P=  -87.35
  -0.00061905   0.00000000   0.00000000        -91.07      0.00      0.00
   0.00000000  -0.00054242   0.00000000          0.00    -79.79      0.00
   0.00000000   0.00000000  -0.00061990          0.00      0.00    -91.19


     bfgs converged in   6 scf cycles and   5 bfgs steps
     (criteria: energy <  1.0E-05 Ry, force <  1.0E-04 Ry/Bohr)

     End of BFGS Geometry Optimization

     Final energy   =    -608.3920455236 Ry
Begin final coordinates

ATOMIC_POSITIONS (alat)
Mg       0.000000000   0.001645769  -0.000011506
Mg       0.000000000   0.498294437   0.500011755
Mg       0.500000000   0.001760052   0.500011921
Mg       0.500000000   0.498294564  -0.000012290
O        0.500000000   0.001777765  -0.000012458
O        0.000000000   0.498223194  -0.000012476
O        0.000000000   0.001777601   0.500012533
O        0.500000000   0.498226618   0.500012521
End final coordinates



     Writing output data file diamond.8.10221364925.70.4.save
 
     init_run     :      0.55s CPU      0.57s WALL (       1 calls)
     electrons    :     46.27s CPU     46.96s WALL (       6 calls)
     update_pot   :      0.55s CPU      0.56s WALL (       5 calls)
     forces       :      0.99s CPU      0.99s WALL (       6 calls)
     stress       :      2.28s CPU      2.29s WALL (       6 calls)

     Called by init_run:
     wfcinit      :      0.42s CPU      0.44s WALL (       1 calls)
     potinit      :      0.05s CPU      0.05s WALL (       1 calls)

     Called by electrons:
     c_bands      :     40.49s CPU     41.06s WALL (      35 calls)
     sum_band     :      5.56s CPU      5.67s WALL (      35 calls)
     v_of_rho     :      0.19s CPU      0.19s WALL (      36 calls)
     mix_rho      :      0.02s CPU      0.03s WALL (      35 calls)

     Called by c_bands:
     init_us_2    :      0.62s CPU      0.63s WALL (    2490 calls)
     cegterg      :     37.64s CPU     38.18s WALL (    1050 calls)

     Called by sum_band:

     Called by *egterg:
     h_psi        :     27.56s CPU     28.09s WALL (    3506 calls)
     g_psi        :      0.21s CPU      0.21s WALL (    2426 calls)
     cdiaghg      :      5.36s CPU      5.36s WALL (    3176 calls)

     Called by h_psi:
     h_psi:pot    :     27.44s CPU     27.94s WALL (    3506 calls)
     h_psi:calbec :      1.56s CPU      1.56s WALL (    3506 calls)
     vloc_psi     :     24.58s CPU     25.07s WALL (    3506 calls)
     add_vuspsi   :      1.29s CPU      1.30s WALL (    3506 calls)

     General routines
     calbec       :      2.06s CPU      2.06s WALL (    4406 calls)
     fft          :      0.14s CPU      0.14s WALL (     555 calls)
     fftw         :     27.37s CPU     27.45s WALL (  212568 calls)
     davcio       :      0.00s CPU      0.01s WALL (      30 calls)
 
     Parallel routines
     fft_scatter  :      7.60s CPU      7.35s WALL (  213123 calls)
 
     PWSCF        :    51.10s CPU        51.98s WALL

 
   This run was terminated on:  15: 1:35  22Apr2018            

=------------------------------------------------------------------------------=
   JOB DONE.
=------------------------------------------------------------------------------=
