
     Program PWSCF v.6.1 (svn rev. 13369) starts on 22Apr2018 at 15: 2:30 

     This program is part of the open-source Quantum ESPRESSO suite
     for quantum simulation of materials; please cite
         "P. Giannozzi et al., J. Phys.:Condens. Matter 21 395502 (2009);
          URL http://www.quantum-espresso.org", 
     in publications or presentations arising from this work. More details at
     http://www.quantum-espresso.org/quote

     Parallel version (MPI), running on     8 processors
     R & G space division:  proc/nbgrp/npool/nimage =       8
     Waiting for input...
     Reading input from standard input
Warning: card       &CELL ignored
Warning: card       CELL_DYNAMICS = 'BFGS' ignored
Warning: card       PRESS = 0.0D0 ignored
Warning: card       PRESS_CONV_THR = 0.01D0 ignored
Warning: card       / ignored

     Current dimensions of program PWSCF are:
     Max number of different atomic species (ntypx) = 10
     Max number of k-points (npk) =  40000
     Max angular momentum in pseudopotentials (lmaxx) =  3

     Subspace diagonalization in iterative solution of the eigenvalue problem:
     a serial algorithm will be used

 
     Parallelization info
     --------------------
     sticks:   dense  smooth     PW     G-vecs:    dense   smooth      PW
     Min         182     182     52                 5246     5246     826
     Max         183     183     53                 5249     5249     831
     Sum        1461    1461    421                41979    41979    6627
 


     bravais-lattice index     =            8
     lattice parameter (alat)  =       8.1137  a.u.
     unit-cell volume          =     529.6032 (a.u.)^3
     number of atoms/cell      =            8
     number of atomic types    =            2
     number of electrons       =        64.00
     number of Kohn-Sham states=           32
     kinetic-energy cutoff     =      70.0000  Ry
     charge density cutoff     =     280.0000  Ry
     convergence threshold     =      1.0E-08
     mixing beta               =       0.7000
     number of iterations used =            8  plain     mixing
     Exchange-correlation      = PBE ( 1  4  3  4 0 0)
     nstep                     =           50


     celldm(1)=   8.113702  celldm(2)=   0.991429  celldm(3)=   1.000073
     celldm(4)=   0.000000  celldm(5)=   0.000000  celldm(6)=   0.000000

     crystal axes: (cart. coord. in units of alat)
               a(1) = (   1.000000   0.000000   0.000000 )  
               a(2) = (   0.000000   0.991429   0.000000 )  
               a(3) = (   0.000000   0.000000   1.000073 )  

     reciprocal axes: (cart. coord. in units 2 pi/alat)
               b(1) = (  1.000000  0.000000  0.000000 )  
               b(2) = (  0.000000  1.008645  0.000000 )  
               b(3) = (  0.000000  0.000000  0.999927 )  


     PseudoPot. # 1 for Mg read from file:
     ../pseudo/Mg.pbe.UPF
     MD5 check sum: 4c04d8c6e0476e83eaecaf72fa8acc4d
     Pseudo is Norm-conserving, Zval = 10.0
     Generated using ONCVPSP code by D. R. Hamann
     Using radial grid of 1510 points,  4 beta functions with: 
                l(1) =   0
                l(2) =   0
                l(3) =   1
                l(4) =   1

     PseudoPot. # 2 for O  read from file:
     ../pseudo/O.pbe.UPF
     MD5 check sum: 3e3f909f7470e8921608ab6b1f57bbae
     Pseudo is Norm-conserving + core correction, Zval =  6.0
     Generated using ONCVPSP code by D. R. Hamann
     Using radial grid of  936 points,  5 beta functions with: 
                l(1) =   0
                l(2) =   0
                l(3) =   1
                l(4) =   1
                l(5) =   2

     atomic species   valence    mass     pseudopotential
        Mg            10.00    24.30500     Mg( 1.00)
        O              6.00    15.99940     O ( 1.00)

      2 Sym. Ops. (no inversion) found



   Cartesian axes

     site n.     atom                  positions (alat units)
         1           Mg  tau(   1) = (   0.0000000   0.0000000   0.0000000  )
         2           Mg  tau(   2) = (   0.0000000   0.5000000   0.5000000  )
         3           Mg  tau(   3) = (   0.5000000   0.0000000   0.5000000  )
         4           Mg  tau(   4) = (   0.5000000   0.5000000   0.0000000  )
         5           O   tau(   5) = (   0.5000000   0.0000000   0.0000000  )
         6           O   tau(   6) = (   0.0000000   0.5000000   0.0000000  )
         7           O   tau(   7) = (   0.0000000   0.0000000   0.5000000  )
         8           O   tau(   8) = (   0.5000000   0.5000000   0.5000000  )

     number of k points=    30
                       cart. coord. in units 2pi/alat
        k(    1) = (   0.0000000   0.0000000   0.0000000), wk =   0.0312500
        k(    2) = (   0.0000000   0.0000000   0.2499816), wk =   0.0625000
        k(    3) = (   0.0000000   0.0000000  -0.4999633), wk =   0.0312500
        k(    4) = (   0.0000000   0.2521613   0.0000000), wk =   0.0625000
        k(    5) = (   0.0000000   0.2521613   0.2499816), wk =   0.0625000
        k(    6) = (   0.0000000   0.2521613  -0.4999633), wk =   0.0625000
        k(    7) = (   0.0000000  -0.5043225   0.0000000), wk =   0.0312500
        k(    8) = (   0.0000000  -0.5043225   0.2499816), wk =   0.0625000
        k(    9) = (   0.0000000  -0.5043225  -0.4999633), wk =   0.0312500
        k(   10) = (   0.2500000   0.0000000   0.0000000), wk =   0.0625000
        k(   11) = (   0.2500000   0.0000000   0.2499816), wk =   0.1250000
        k(   12) = (   0.2500000   0.0000000  -0.4999633), wk =   0.0625000
        k(   13) = (   0.2500000   0.2521613   0.0000000), wk =   0.1250000
        k(   14) = (   0.2500000   0.2521613   0.2499816), wk =   0.1250000
        k(   15) = (   0.2500000   0.2521613  -0.4999633), wk =   0.1250000
        k(   16) = (   0.2500000  -0.5043225   0.0000000), wk =   0.0625000
        k(   17) = (   0.2500000  -0.5043225   0.2499816), wk =   0.1250000
        k(   18) = (   0.2500000  -0.5043225  -0.4999633), wk =   0.0625000
        k(   19) = (  -0.5000000   0.0000000   0.0000000), wk =   0.0312500
        k(   20) = (  -0.5000000   0.0000000   0.2499816), wk =   0.0625000
        k(   21) = (  -0.5000000   0.0000000  -0.4999633), wk =   0.0312500
        k(   22) = (  -0.5000000   0.2521613   0.0000000), wk =   0.0625000
        k(   23) = (  -0.5000000   0.2521613   0.2499816), wk =   0.0625000
        k(   24) = (  -0.5000000   0.2521613  -0.4999633), wk =   0.0625000
        k(   25) = (  -0.5000000  -0.5043225   0.0000000), wk =   0.0312500
        k(   26) = (  -0.5000000  -0.5043225   0.2499816), wk =   0.0625000
        k(   27) = (  -0.5000000  -0.5043225  -0.4999633), wk =   0.0312500
        k(   28) = (   0.0000000   0.2521613  -0.2499816), wk =   0.0625000
        k(   29) = (  -0.2500000   0.2521613  -0.2499816), wk =   0.1250000
        k(   30) = (   0.5000000   0.2521613  -0.2499816), wk =   0.0625000

     Dense  grid:    41979 G-vectors     FFT dimensions: (  45,  45,  45)

     Estimated max dynamical RAM per process >      15.57MB

     Estimated total allocated dynamical RAM >     124.58MB

     Check: negative/imaginary core charge=   -0.000007    0.000000

     Initial potential from superposition of free atoms

     starting charge   63.99678, renormalised to   64.00000
     Starting wfc are   36 randomized atomic wfcs

     total cpu time spent up to now is        0.7 secs

     per-process dynamical memory:    51.4 Mb

     Self-consistent Calculation

     iteration #  1     ecut=    70.00 Ry     beta=0.70
     Davidson diagonalization with overlap
     ethr =  1.00E-02,  avg # of iterations =  2.0

     total cpu time spent up to now is        1.9 secs

     total energy              =    -607.71027522 Ry
     Harris-Foulkes estimate   =    -608.84276908 Ry
     estimated scf accuracy    <       1.57223001 Ry

     iteration #  2     ecut=    70.00 Ry     beta=0.70
     Davidson diagonalization with overlap
     ethr =  2.46E-03,  avg # of iterations =  2.9

     total cpu time spent up to now is        3.3 secs

     total energy              =    -608.09357333 Ry
     Harris-Foulkes estimate   =    -608.81573149 Ry
     estimated scf accuracy    <       1.50770580 Ry

     iteration #  3     ecut=    70.00 Ry     beta=0.70
     Davidson diagonalization with overlap
     ethr =  2.36E-03,  avg # of iterations =  2.0

     total cpu time spent up to now is        4.6 secs

     total energy              =    -608.38988181 Ry
     Harris-Foulkes estimate   =    -608.39059708 Ry
     estimated scf accuracy    <       0.00696888 Ry

     iteration #  4     ecut=    70.00 Ry     beta=0.70
     Davidson diagonalization with overlap
     ethr =  1.09E-05,  avg # of iterations =  2.0

     total cpu time spent up to now is        5.8 secs

     total energy              =    -608.39143174 Ry
     Harris-Foulkes estimate   =    -608.39148126 Ry
     estimated scf accuracy    <       0.00012062 Ry

     iteration #  5     ecut=    70.00 Ry     beta=0.70
     Davidson diagonalization with overlap
     ethr =  1.88E-07,  avg # of iterations =  1.9

     total cpu time spent up to now is        6.9 secs

     total energy              =    -608.39143985 Ry
     Harris-Foulkes estimate   =    -608.39143834 Ry
     estimated scf accuracy    <       0.00001047 Ry

     iteration #  6     ecut=    70.00 Ry     beta=0.70
     Davidson diagonalization with overlap
     ethr =  1.64E-08,  avg # of iterations =  2.0

     total cpu time spent up to now is        8.3 secs

     total energy              =    -608.39144128 Ry
     Harris-Foulkes estimate   =    -608.39144168 Ry
     estimated scf accuracy    <       0.00000087 Ry

     iteration #  7     ecut=    70.00 Ry     beta=0.70
     Davidson diagonalization with overlap
     ethr =  1.36E-09,  avg # of iterations =  2.0

     total cpu time spent up to now is        9.5 secs

     total energy              =    -608.39144133 Ry
     Harris-Foulkes estimate   =    -608.39144139 Ry
     estimated scf accuracy    <       0.00000019 Ry

     iteration #  8     ecut=    70.00 Ry     beta=0.70
     Davidson diagonalization with overlap
     ethr =  2.94E-10,  avg # of iterations =  2.0

     total cpu time spent up to now is       10.7 secs

     total energy              =    -608.39144132 Ry
     Harris-Foulkes estimate   =    -608.39144134 Ry
     estimated scf accuracy    <       0.00000005 Ry

     iteration #  9     ecut=    70.00 Ry     beta=0.70
     Davidson diagonalization with overlap
     ethr =  7.66E-11,  avg # of iterations =  2.0

     total cpu time spent up to now is       12.1 secs

     End of self-consistent calculation

          k = 0.0000 0.0000 0.0000 (  5233 PWs)   bands (ev):

   -65.0966 -65.0880 -65.0878 -65.0871 -31.8875 -31.8875 -31.8832 -31.8537
   -31.8537 -31.8517 -31.8517 -31.8484 -31.8484 -31.8321 -31.8320 -31.8246
    -9.4858  -8.0888  -8.0886  -8.0666   3.6138   3.6140   3.6424   6.1788
     6.1792   6.1863   6.1869   6.2403   6.2404   7.4553   7.4750   7.4752

          k = 0.0000 0.0000 0.2500 (  5216 PWs)   bands (ev):

   -65.0953 -65.0891 -65.0878 -65.0872 -31.8827 -31.8805 -31.8776 -31.8591
   -31.8546 -31.8531 -31.8530 -31.8490 -31.8448 -31.8403 -31.8330 -31.8278
    -9.2854  -8.2962  -8.0593  -8.0437   3.8985   3.9258   3.9446   5.6696
     5.6833   5.9857   6.0269   6.3480   6.3966   6.4694   7.2393   7.2663

          k = 0.0000 0.0000-0.5000 (  5262 PWs)   bands (ev):

   -65.0924 -65.0919 -65.0878 -65.0873 -31.8716 -31.8713 -31.8662 -31.8660
   -31.8621 -31.8621 -31.8551 -31.8551 -31.8424 -31.8421 -31.8367 -31.8365
    -8.7948  -8.7944  -8.0252  -8.0251   4.6808   4.6814   4.7025   4.7031
     4.9555   4.9559   5.8142   5.8145   6.7663   6.7667   6.8047   6.8050

          k = 0.0000 0.2522 0.0000 (  5229 PWs)   bands (ev):

   -65.0952 -65.0888 -65.0879 -65.0873 -31.8828 -31.8828 -31.8739 -31.8579
   -31.8579 -31.8514 -31.8514 -31.8493 -31.8492 -31.8352 -31.8334 -31.8334
    -9.2808  -8.2747  -8.0602  -8.0600   3.9039   3.9042   3.9600   5.7171
     5.7172   5.9728   5.9733   6.3413   6.3417   6.4505   7.2547   7.2550

          k = 0.0000 0.2522 0.2500 (  5233 PWs)   bands (ev):

   -65.0941 -65.0890 -65.0886 -65.0877 -31.8803 -31.8776 -31.8754 -31.8644
   -31.8562 -31.8551 -31.8511 -31.8478 -31.8451 -31.8432 -31.8372 -31.8283
    -9.0985  -8.2323  -8.2163  -8.0632   4.0112   4.0187   4.1792   4.9148
     5.6539   5.8673   5.9088   6.2870   6.3026   6.4151   6.9892   7.3083

          k = 0.0000 0.2522-0.5000 (  5240 PWs)   bands (ev):

   -65.0917 -65.0913 -65.0885 -65.0879 -31.8739 -31.8738 -31.8685 -31.8684
   -31.8672 -31.8669 -31.8466 -31.8463 -31.8440 -31.8439 -31.8332 -31.8330
    -8.6609  -8.6605  -8.1120  -8.1119   4.2665   4.2667   4.5831   4.5835
     4.9308   4.9314   6.3836   6.3840   6.4128   6.4133   6.8986   6.8987

          k = 0.0000-0.5043 0.0000 (  5222 PWs)   bands (ev):

   -65.0924 -65.0916 -65.0879 -65.0874 -31.8712 -31.8712 -31.8693 -31.8692
   -31.8576 -31.8551 -31.8472 -31.8471 -31.8435 -31.8435 -31.8421 -31.8420
    -8.8025  -8.7568  -8.0312  -8.0311   4.6682   4.6684   4.7408   4.7410
     4.9328   4.9625   5.7722   5.7725   6.7469   6.7472   6.7916   6.7920

          k = 0.0000-0.5043 0.2500 (  5244 PWs)   bands (ev):

   -65.0917 -65.0911 -65.0886 -65.0880 -31.8764 -31.8751 -31.8672 -31.8670
   -31.8658 -31.8651 -31.8480 -31.8463 -31.8419 -31.8410 -31.8365 -31.8363
    -8.6709  -8.6306  -8.1214  -8.1136   4.2516   4.2799   4.5606   4.5932
     4.9137   4.9842   6.3459   6.3635   6.3722   6.4152   6.9006   6.9143

          k = 0.0000-0.5043-0.5000 (  5244 PWs)   bands (ev):

   -65.0902 -65.0901 -65.0899 -65.0891 -31.8763 -31.8761 -31.8753 -31.8752
   -31.8578 -31.8575 -31.8559 -31.8557 -31.8357 -31.8356 -31.8347 -31.8346
    -8.3756  -8.3754  -8.3502  -8.3500   4.1249   4.1250   4.1372   4.1374
     5.5722   5.5727   5.6353   5.6359   6.8720   6.8722   6.8930   6.8932

          k = 0.2500 0.0000 0.0000 (  5216 PWs)   bands (ev):

   -65.0953 -65.0891 -65.0878 -65.0872 -31.8827 -31.8805 -31.8776 -31.8591
   -31.8546 -31.8531 -31.8530 -31.8490 -31.8448 -31.8402 -31.8331 -31.8278
    -9.2854  -8.2960  -8.0595  -8.0437   3.8984   3.9258   3.9447   5.6699
     5.6837   5.9852   6.0268   6.3476   6.3966   6.4692   7.2392   7.2664

          k = 0.2500 0.0000 0.2500 (  5253 PWs)   bands (ev):

   -65.0942 -65.0890 -65.0886 -65.0875 -31.8812 -31.8811 -31.8729 -31.8672
   -31.8527 -31.8503 -31.8502 -31.8490 -31.8486 -31.8486 -31.8320 -31.8313
    -9.1026  -8.2328  -8.2326  -8.0527   4.0161   4.0162   4.1992   4.9135
     5.6797   5.8760   5.8765   6.3276   6.3278   6.3854   6.9690   7.3123

          k = 0.2500 0.0000-0.5000 (  5248 PWs)   bands (ev):

   -65.0917 -65.0913 -65.0885 -65.0879 -31.8769 -31.8767 -31.8693 -31.8692
   -31.8617 -31.8615 -31.8469 -31.8468 -31.8411 -31.8409 -31.8377 -31.8375
    -8.6634  -8.6630  -8.1152  -8.1151   4.2777   4.2779   4.6027   4.6030
     4.9468   4.9474   6.3590   6.3593   6.3917   6.3921   6.9136   6.9138

          k = 0.2500 0.2522 0.0000 (  5233 PWs)   bands (ev):

   -65.0941 -65.0890 -65.0886 -65.0877 -31.8802 -31.8777 -31.8754 -31.8644
   -31.8562 -31.8551 -31.8511 -31.8478 -31.8451 -31.8432 -31.8373 -31.8282
    -9.0985  -8.2322  -8.2163  -8.0633   4.0112   4.0186   4.1791   4.9148
     5.6537   5.8675   5.9088   6.2868   6.3023   6.4154   6.9894   7.3083

          k = 0.2500 0.2522 0.2500 (  5241 PWs)   bands (ev):

   -65.0932 -65.0890 -65.0889 -65.0882 -31.8833 -31.8831 -31.8811 -31.8649
   -31.8532 -31.8531 -31.8518 -31.8462 -31.8418 -31.8417 -31.8350 -31.8302
    -8.9358  -8.1996  -8.1994  -8.1881   3.8557   3.8589   3.8589   4.9180
     5.6744   5.6745   5.6878   6.5075   6.5326   6.5328   7.1614   7.1637

          k = 0.2500 0.2522-0.5000 (  5236 PWs)   bands (ev):

   -65.0912 -65.0908 -65.0889 -65.0883 -31.8851 -31.8850 -31.8788 -31.8786
   -31.8517 -31.8515 -31.8426 -31.8425 -31.8403 -31.8401 -31.8351 -31.8349
    -8.5548  -8.5545  -8.1630  -8.1629   3.6835   3.6836   4.0504   4.0507
     5.6634   5.6634   6.5610   6.5613   6.6822   6.6824   6.8347   6.8350

          k = 0.2500-0.5043 0.0000 (  5244 PWs)   bands (ev):

   -65.0917 -65.0911 -65.0886 -65.0880 -31.8764 -31.8750 -31.8672 -31.8670
   -31.8658 -31.8651 -31.8481 -31.8463 -31.8419 -31.8410 -31.8365 -31.8362
    -8.6708  -8.6306  -8.1214  -8.1135   4.2514   4.2798   4.5605   4.5931
     4.9136   4.9841   6.3461   6.3637   6.3724   6.4154   6.9005   6.9142

          k = 0.2500-0.5043 0.2500 (  5232 PWs)   bands (ev):

   -65.0912 -65.0907 -65.0890 -65.0884 -31.8857 -31.8857 -31.8779 -31.8776
   -31.8545 -31.8543 -31.8411 -31.8400 -31.8380 -31.8380 -31.8368 -31.8361
    -8.5637  -8.5294  -8.1660  -8.1659   3.6815   3.6816   4.0204   4.0540
     5.6647   5.6647   6.5553   6.5555   6.6866   6.7013   6.8042   6.8365

          k = 0.2500-0.5043-0.5000 (  5236 PWs)   bands (ev):

   -65.0902 -65.0901 -65.0900 -65.0891 -31.8884 -31.8882 -31.8881 -31.8880
   -31.8451 -31.8448 -31.8443 -31.8442 -31.8346 -31.8345 -31.8339 -31.8338
    -8.3374  -8.3373  -8.3193  -8.3191   3.4897   3.4899   3.5067   3.5069
     6.3253   6.3257   6.3621   6.3624   6.8762   6.8765   6.8910   6.8912

          k =-0.5000 0.0000 0.0000 (  5262 PWs)   bands (ev):

   -65.0924 -65.0919 -65.0878 -65.0873 -31.8716 -31.8713 -31.8662 -31.8660
   -31.8621 -31.8621 -31.8551 -31.8551 -31.8425 -31.8422 -31.8367 -31.8365
    -8.7945  -8.7944  -8.0253  -8.0252   4.6812   4.6812   4.7030   4.7030
     4.9555   4.9558   5.8138   5.8142   6.7662   6.7662   6.8049   6.8049

          k =-0.5000 0.0000 0.2500 (  5248 PWs)   bands (ev):

   -65.0917 -65.0913 -65.0885 -65.0879 -31.8770 -31.8768 -31.8693 -31.8692
   -31.8617 -31.8614 -31.8468 -31.8467 -31.8411 -31.8409 -31.8377 -31.8375
    -8.6631  -8.6631  -8.1153  -8.1152   4.2778   4.2778   4.6027   4.6029
     4.9472   4.9473   6.3588   6.3590   6.3917   6.3918   6.9138   6.9138

          k =-0.5000 0.0000-0.5000 (  5280 PWs)   bands (ev):

   -65.0901 -65.0901 -65.0901 -65.0891 -31.8781 -31.8778 -31.8778 -31.8778
   -31.8523 -31.8521 -31.8521 -31.8518 -31.8394 -31.8391 -31.8391 -31.8391
    -8.3687  -8.3686  -8.3685  -8.3684   4.1625   4.1626   4.1627   4.1628
     5.6005   5.6005   5.6011   5.6011   6.8698   6.8699   6.8700   6.8702

          k =-0.5000 0.2522 0.0000 (  5240 PWs)   bands (ev):

   -65.0917 -65.0913 -65.0885 -65.0879 -31.8739 -31.8738 -31.8684 -31.8684
   -31.8672 -31.8670 -31.8466 -31.8463 -31.8440 -31.8439 -31.8332 -31.8330
    -8.6606  -8.6605  -8.1120  -8.1119   4.2665   4.2665   4.5830   4.5832
     4.9311   4.9312   6.3836   6.3839   6.4131   6.4131   6.8986   6.8987

          k =-0.5000 0.2522 0.2500 (  5236 PWs)   bands (ev):

   -65.0912 -65.0908 -65.0889 -65.0883 -31.8851 -31.8850 -31.8788 -31.8786
   -31.8517 -31.8515 -31.8425 -31.8424 -31.8403 -31.8401 -31.8351 -31.8349
    -8.5546  -8.5546  -8.1630  -8.1630   3.6835   3.6835   4.0504   4.0505
     5.6634   5.6634   6.5610   6.5612   6.6823   6.6825   6.8348   6.8348

          k =-0.5000 0.2522-0.5000 (  5232 PWs)   bands (ev):

   -65.0901 -65.0901 -65.0901 -65.0891 -31.8885 -31.8882 -31.8882 -31.8882
   -31.8405 -31.8404 -31.8404 -31.8401 -31.8384 -31.8382 -31.8382 -31.8381
    -8.3313  -8.3312  -8.3311  -8.3311   3.5088   3.5089   3.5090   3.5091
     6.3537   6.3537   6.3541   6.3541   6.8712   6.8713   6.8714   6.8716

          k =-0.5000-0.5043 0.0000 (  5244 PWs)   bands (ev):

   -65.0902 -65.0901 -65.0899 -65.0891 -31.8762 -31.8761 -31.8753 -31.8752
   -31.8578 -31.8575 -31.8560 -31.8557 -31.8357 -31.8356 -31.8347 -31.8346
    -8.3755  -8.3754  -8.3501  -8.3501   4.1246   4.1248   4.1369   4.1371
     5.5725   5.5725   5.6356   5.6356   6.8721   6.8723   6.8931   6.8933

          k =-0.5000-0.5043 0.2500 (  5236 PWs)   bands (ev):

   -65.0902 -65.0901 -65.0900 -65.0891 -31.8884 -31.8882 -31.8881 -31.8880
   -31.8451 -31.8449 -31.8444 -31.8442 -31.8346 -31.8345 -31.8339 -31.8338
    -8.3374  -8.3373  -8.3192  -8.3191   3.4897   3.4898   3.5067   3.5068
     6.3254   6.3254   6.3621   6.3622   6.8764   6.8765   6.8911   6.8913

          k =-0.5000-0.5043-0.5000 (  5232 PWs)   bands (ev):

   -65.0901 -65.0901 -65.0901 -65.0891 -31.8959 -31.8956 -31.8956 -31.8955
   -31.8380 -31.8377 -31.8377 -31.8377 -31.8335 -31.8333 -31.8333 -31.8331
    -8.2933  -8.2932  -8.2932  -8.2932   3.0872   3.0874   3.0874   3.0874
     6.8725   6.8726   6.8726   6.8728   6.8886   6.8887   6.8888   6.8888

          k = 0.0000 0.2522-0.2500 (  5233 PWs)   bands (ev):

   -65.0941 -65.0890 -65.0886 -65.0877 -31.8803 -31.8776 -31.8754 -31.8644
   -31.8562 -31.8551 -31.8511 -31.8478 -31.8451 -31.8432 -31.8372 -31.8283
    -9.0985  -8.2323  -8.2163  -8.0632   4.0112   4.0187   4.1792   4.9148
     5.6539   5.8673   5.9088   6.2870   6.3026   6.4151   6.9892   7.3083

          k =-0.2500 0.2522-0.2500 (  5241 PWs)   bands (ev):

   -65.0932 -65.0890 -65.0889 -65.0882 -31.8833 -31.8831 -31.8811 -31.8649
   -31.8532 -31.8531 -31.8518 -31.8462 -31.8418 -31.8417 -31.8350 -31.8302
    -8.9358  -8.1996  -8.1994  -8.1881   3.8557   3.8589   3.8589   4.9180
     5.6744   5.6745   5.6878   6.5075   6.5326   6.5328   7.1614   7.1637

          k = 0.5000 0.2522-0.2500 (  5236 PWs)   bands (ev):

   -65.0912 -65.0908 -65.0889 -65.0883 -31.8851 -31.8850 -31.8787 -31.8786
   -31.8517 -31.8515 -31.8425 -31.8424 -31.8403 -31.8401 -31.8351 -31.8349
    -8.5546  -8.5546  -8.1630  -8.1630   3.6835   3.6835   4.0504   4.0505
     5.6634   5.6634   6.5610   6.5612   6.6823   6.6825   6.8348   6.8348

     highest occupied level (ev):     7.4752

!    total energy              =    -608.39144133 Ry
     Harris-Foulkes estimate   =    -608.39144133 Ry
     estimated scf accuracy    <          3.1E-09 Ry

     The total energy is the sum of the following terms:

     one-electron contribution =    -306.93327119 Ry
     hartree contribution      =     169.20824358 Ry
     xc contribution           =     -97.77800992 Ry
     ewald contribution        =    -372.88840379 Ry

     convergence has been achieved in   9 iterations

     Forces acting on atoms (cartesian axes, Ry/au):

     atom    1 type  1   force =     0.00000000    0.00468340   -0.00003499
     atom    2 type  1   force =     0.00000000   -0.00461111    0.00003356
     atom    3 type  1   force =     0.00000000    0.00468699    0.00003499
     atom    4 type  1   force =     0.00000000   -0.00461100   -0.00003583
     atom    5 type  2   force =     0.00000000    0.00534689   -0.00004132
     atom    6 type  2   force =     0.00000000   -0.00541069   -0.00004108
     atom    7 type  2   force =     0.00000000    0.00534730    0.00004229
     atom    8 type  2   force =     0.00000000   -0.00543178    0.00004238

     Total force =     0.014227     Total SCF correction =     0.000061


     Computing stress (Cartesian axis) and pressure

          total   stress  (Ry/bohr**3)                   (kbar)     P=  -90.59
  -0.00064739   0.00000000   0.00000000        -95.23      0.00      0.00
   0.00000000  -0.00055158   0.00000000          0.00    -81.14      0.00
   0.00000000   0.00000000  -0.00064843          0.00      0.00    -95.39


     BFGS Geometry Optimization

     number of scf cycles    =   1
     number of bfgs steps    =   0

     energy   new            =    -608.3914413262 Ry

     new trust radius        =       0.0054319483 bohr
     new conv_thr            =       0.0000000100 Ry


ATOMIC_POSITIONS (alat)
Mg       0.000000000   0.000577221  -0.000004312
Mg       0.000000000   0.499431689   0.500004136
Mg       0.500000000   0.000577664   0.500004313
Mg       0.500000000   0.499431702  -0.000004416
O        0.500000000   0.000658995  -0.000005093
O        0.000000000   0.499333142  -0.000005063
O        0.000000000   0.000659045   0.500005213
O        0.500000000   0.499330542   0.500005223



     Writing output data file diamond.8.11370155225.70.4.save
     NEW-OLD atomic charge density approx. for the potential

     Check: negative/imaginary core charge=   -0.000007    0.000000

     total cpu time spent up to now is       12.9 secs

     per-process dynamical memory:    52.1 Mb

     Self-consistent Calculation

     iteration #  1     ecut=    70.00 Ry     beta=0.70
     Davidson diagonalization with overlap
     ethr =  1.00E-06,  avg # of iterations =  3.1

     Threshold (ethr) on eigenvalues was too large:
     Diagonalizing with lowered threshold

     Davidson diagonalization with overlap
     ethr =  5.66E-08,  avg # of iterations =  1.1

     total cpu time spent up to now is       15.8 secs

     total energy              =    -608.39160091 Ry
     Harris-Foulkes estimate   =    -608.39162755 Ry
     estimated scf accuracy    <       0.00003640 Ry

     iteration #  2     ecut=    70.00 Ry     beta=0.70
     Davidson diagonalization with overlap
     ethr =  5.69E-08,  avg # of iterations =  2.2

     total cpu time spent up to now is       17.0 secs

     total energy              =    -608.39161189 Ry
     Harris-Foulkes estimate   =    -608.39161557 Ry
     estimated scf accuracy    <       0.00000610 Ry

     iteration #  3     ecut=    70.00 Ry     beta=0.70
     Davidson diagonalization with overlap
     ethr =  9.53E-09,  avg # of iterations =  2.0

     total cpu time spent up to now is       18.3 secs

     total energy              =    -608.39161322 Ry
     Harris-Foulkes estimate   =    -608.39161320 Ry
     estimated scf accuracy    <       0.00000005 Ry

     iteration #  4     ecut=    70.00 Ry     beta=0.70
     Davidson diagonalization with overlap
     ethr =  7.16E-11,  avg # of iterations =  2.7

     total cpu time spent up to now is       19.7 secs

     total energy              =    -608.39161323 Ry
     Harris-Foulkes estimate   =    -608.39161323 Ry
     estimated scf accuracy    <       0.00000001 Ry

     iteration #  5     ecut=    70.00 Ry     beta=0.70
     Davidson diagonalization with overlap
     ethr =  1.58E-11,  avg # of iterations =  2.0

     total cpu time spent up to now is       21.0 secs

     End of self-consistent calculation

          k = 0.0000 0.0000 0.0000 (  5233 PWs)   bands (ev):

   -65.0971 -65.0885 -65.0883 -65.0876 -31.8879 -31.8879 -31.8836 -31.8542
   -31.8541 -31.8522 -31.8522 -31.8489 -31.8488 -31.8325 -31.8325 -31.8250
    -9.4854  -8.0885  -8.0883  -8.0665   3.6142   3.6144   3.6422   6.1792
     6.1796   6.1864   6.1870   6.2403   6.2404   7.4559   7.4751   7.4753

          k = 0.0000 0.0000 0.2500 (  5216 PWs)   bands (ev):

   -65.0958 -65.0896 -65.0884 -65.0877 -31.8831 -31.8809 -31.8780 -31.8595
   -31.8550 -31.8536 -31.8535 -31.8495 -31.8452 -31.8407 -31.8335 -31.8282
    -9.2850  -8.2959  -8.0590  -8.0435   3.8989   3.9256   3.9450   5.6700
     5.6833   5.9862   6.0275   6.3476   6.3966   6.4695   7.2395   7.2664

          k = 0.0000 0.0000-0.5000 (  5262 PWs)   bands (ev):

   -65.0929 -65.0924 -65.0883 -65.0878 -31.8720 -31.8718 -31.8665 -31.8662
   -31.8627 -31.8627 -31.8555 -31.8555 -31.8429 -31.8426 -31.8371 -31.8369
    -8.7943  -8.7940  -8.0250  -8.0249   4.6813   4.6818   4.7027   4.7031
     4.9556   4.9559   5.8148   5.8152   6.7662   6.7664   6.8048   6.8050

          k = 0.0000 0.2522 0.0000 (  5229 PWs)   bands (ev):

   -65.0957 -65.0894 -65.0885 -65.0879 -31.8833 -31.8832 -31.8743 -31.8584
   -31.8584 -31.8518 -31.8518 -31.8497 -31.8496 -31.8357 -31.8339 -31.8338
    -9.2803  -8.2747  -8.0598  -8.0597   3.9045   3.9047   3.9599   5.7170
     5.7171   5.9729   5.9734   6.3418   6.3422   6.4508   7.2547   7.2550

          k = 0.0000 0.2522 0.2500 (  5233 PWs)   bands (ev):

   -65.0946 -65.0895 -65.0891 -65.0882 -31.8807 -31.8781 -31.8758 -31.8648
   -31.8566 -31.8555 -31.8515 -31.8484 -31.8455 -31.8436 -31.8377 -31.8287
    -9.0981  -8.2320  -8.2162  -8.0629   4.0115   4.0187   4.1797   4.9149
     5.6543   5.8678   5.9087   6.2877   6.3028   6.4146   6.9892   7.3086

          k = 0.0000 0.2522-0.5000 (  5240 PWs)   bands (ev):

   -65.0922 -65.0918 -65.0890 -65.0884 -31.8743 -31.8742 -31.8689 -31.8689
   -31.8677 -31.8674 -31.8471 -31.8468 -31.8444 -31.8443 -31.8337 -31.8335
    -8.6604  -8.6601  -8.1118  -8.1117   4.2666   4.2668   4.5833   4.5836
     4.9314   4.9319   6.3840   6.3843   6.4128   6.4131   6.8986   6.8987

          k = 0.0000-0.5043 0.0000 (  5222 PWs)   bands (ev):

   -65.0928 -65.0922 -65.0885 -65.0879 -31.8714 -31.8714 -31.8700 -31.8700
   -31.8577 -31.8559 -31.8476 -31.8476 -31.8438 -31.8438 -31.8427 -31.8427
    -8.7954  -8.7634  -8.0309  -8.0308   4.6792   4.6794   4.7302   4.7304
     4.9374   4.9580   5.7723   5.7725   6.7539   6.7542   6.7851   6.7855

          k = 0.0000-0.5043 0.2500 (  5244 PWs)   bands (ev):

   -65.0922 -65.0916 -65.0891 -65.0885 -31.8766 -31.8757 -31.8674 -31.8672
   -31.8664 -31.8658 -31.8483 -31.8470 -31.8423 -31.8416 -31.8369 -31.8368
    -8.6645  -8.6363  -8.1199  -8.1144   4.2559   4.2759   4.5658   4.5883
     4.9244   4.9739   6.3500   6.3684   6.3715   6.4077   6.9029   6.9126

          k = 0.0000-0.5043-0.5000 (  5244 PWs)   bands (ev):

   -65.0907 -65.0906 -65.0905 -65.0896 -31.8766 -31.8764 -31.8758 -31.8757
   -31.8580 -31.8577 -31.8566 -31.8564 -31.8361 -31.8359 -31.8353 -31.8352
    -8.3715  -8.3713  -8.3537  -8.3535   4.1270   4.1272   4.1353   4.1355
     5.5819   5.5823   5.6262   5.6266   6.8754   6.8756   6.8900   6.8902

          k = 0.2500 0.0000 0.0000 (  5216 PWs)   bands (ev):

   -65.0958 -65.0896 -65.0884 -65.0877 -31.8832 -31.8809 -31.8780 -31.8596
   -31.8550 -31.8535 -31.8534 -31.8495 -31.8453 -31.8407 -31.8335 -31.8282
    -9.2850  -8.2957  -8.0592  -8.0435   3.8988   3.9257   3.9451   5.6703
     5.6837   5.9857   6.0274   6.3472   6.3966   6.4694   7.2395   7.2665

          k = 0.2500 0.0000 0.2500 (  5253 PWs)   bands (ev):

   -65.0947 -65.0895 -65.0892 -65.0881 -31.8816 -31.8815 -31.8733 -31.8676
   -31.8532 -31.8507 -31.8506 -31.8494 -31.8492 -31.8491 -31.8325 -31.8318
    -9.1022  -8.2324  -8.2323  -8.0525   4.0165   4.0165   4.1990   4.9139
     5.6798   5.8762   5.8766   6.3276   6.3277   6.3858   6.9691   7.3124

          k = 0.2500 0.0000-0.5000 (  5248 PWs)   bands (ev):

   -65.0922 -65.0918 -65.0890 -65.0884 -31.8774 -31.8772 -31.8697 -31.8696
   -31.8622 -31.8620 -31.8473 -31.8472 -31.8416 -31.8414 -31.8382 -31.8380
    -8.6630  -8.6627  -8.1150  -8.1149   4.2781   4.2783   4.6032   4.6035
     4.9465   4.9469   6.3620   6.3623   6.3891   6.3894   6.9138   6.9139

          k = 0.2500 0.2522 0.0000 (  5233 PWs)   bands (ev):

   -65.0946 -65.0895 -65.0891 -65.0882 -31.8807 -31.8781 -31.8758 -31.8648
   -31.8566 -31.8556 -31.8514 -31.8483 -31.8455 -31.8436 -31.8377 -31.8287
    -9.0980  -8.2318  -8.2162  -8.0630   4.0115   4.0186   4.1796   4.9149
     5.6540   5.8681   5.9086   6.2875   6.3024   6.4148   6.9893   7.3086

          k = 0.2500 0.2522 0.2500 (  5241 PWs)   bands (ev):

   -65.0937 -65.0895 -65.0894 -65.0887 -31.8837 -31.8835 -31.8815 -31.8653
   -31.8536 -31.8535 -31.8523 -31.8467 -31.8422 -31.8422 -31.8355 -31.8306
    -8.9353  -8.1992  -8.1991  -8.1880   3.8558   3.8592   3.8592   4.9183
     5.6746   5.6748   5.6879   6.5080   6.5326   6.5328   7.1615   7.1639

          k = 0.2500 0.2522-0.5000 (  5236 PWs)   bands (ev):

   -65.0917 -65.0913 -65.0895 -65.0889 -31.8856 -31.8854 -31.8792 -31.8790
   -31.8522 -31.8519 -31.8430 -31.8429 -31.8408 -31.8406 -31.8356 -31.8354
    -8.5544  -8.5542  -8.1628  -8.1627   3.6837   3.6837   4.0506   4.0508
     5.6636   5.6636   6.5616   6.5618   6.6822   6.6824   6.8347   6.8349

          k = 0.2500-0.5043 0.0000 (  5244 PWs)   bands (ev):

   -65.0922 -65.0916 -65.0891 -65.0885 -31.8766 -31.8757 -31.8674 -31.8672
   -31.8664 -31.8659 -31.8483 -31.8470 -31.8423 -31.8416 -31.8369 -31.8367
    -8.6645  -8.6363  -8.1199  -8.1144   4.2558   4.2758   4.5656   4.5881
     4.9243   4.9738   6.3501   6.3685   6.3717   6.4079   6.9028   6.9124

          k = 0.2500-0.5043 0.2500 (  5232 PWs)   bands (ev):

   -65.0917 -65.0912 -65.0895 -65.0889 -31.8862 -31.8861 -31.8783 -31.8781
   -31.8549 -31.8548 -31.8414 -31.8406 -31.8385 -31.8385 -31.8372 -31.8367
    -8.5583  -8.5343  -8.1657  -8.1656   3.6817   3.6818   4.0257   4.0489
     5.6650   5.6650   6.5553   6.5555   6.6890   6.6994   6.8093   6.8319

          k = 0.2500-0.5043-0.5000 (  5236 PWs)   bands (ev):

   -65.0907 -65.0906 -65.0905 -65.0896 -31.8888 -31.8886 -31.8886 -31.8885
   -31.8454 -31.8452 -31.8449 -31.8447 -31.8350 -31.8348 -31.8345 -31.8343
    -8.3344  -8.3342  -8.3217  -8.3215   3.4925   3.4926   3.5042   3.5044
     6.3311   6.3314   6.3568   6.3571   6.8787   6.8789   6.8890   6.8891

          k =-0.5000 0.0000 0.0000 (  5262 PWs)   bands (ev):

   -65.0929 -65.0924 -65.0883 -65.0878 -31.8720 -31.8718 -31.8665 -31.8662
   -31.8627 -31.8627 -31.8555 -31.8555 -31.8429 -31.8427 -31.8371 -31.8369
    -8.7941  -8.7940  -8.0250  -8.0249   4.6816   4.6816   4.7031   4.7031
     4.9555   4.9558   5.8144   5.8148   6.7660   6.7660   6.8049   6.8050

          k =-0.5000 0.0000 0.2500 (  5248 PWs)   bands (ev):

   -65.0922 -65.0918 -65.0890 -65.0884 -31.8774 -31.8772 -31.8697 -31.8696
   -31.8622 -31.8620 -31.8473 -31.8472 -31.8416 -31.8414 -31.8382 -31.8380
    -8.6628  -8.6627  -8.1150  -8.1149   4.2782   4.2782   4.6032   4.6034
     4.9468   4.9469   6.3618   6.3620   6.3890   6.3890   6.9139   6.9140

          k =-0.5000 0.0000-0.5000 (  5280 PWs)   bands (ev):

   -65.0906 -65.0906 -65.0906 -65.0896 -31.8785 -31.8782 -31.8782 -31.8782
   -31.8528 -31.8526 -31.8526 -31.8523 -31.8399 -31.8396 -31.8396 -31.8396
    -8.3684  -8.3683  -8.3682  -8.3681   4.1629   4.1630   4.1630   4.1632
     5.6004   5.6004   5.6009   5.6009   6.8701   6.8703   6.8703   6.8705

          k =-0.5000 0.2522 0.0000 (  5240 PWs)   bands (ev):

   -65.0922 -65.0918 -65.0890 -65.0884 -31.8743 -31.8742 -31.8689 -31.8688
   -31.8677 -31.8674 -31.8471 -31.8468 -31.8444 -31.8443 -31.8337 -31.8335
    -8.6602  -8.6601  -8.1118  -8.1118   4.2665   4.2666   4.5832   4.5834
     4.9317   4.9317   6.3840   6.3843   6.4130   6.4130   6.8985   6.8986

          k =-0.5000 0.2522 0.2500 (  5236 PWs)   bands (ev):

   -65.0917 -65.0913 -65.0895 -65.0889 -31.8856 -31.8854 -31.8792 -31.8790
   -31.8522 -31.8520 -31.8430 -31.8429 -31.8408 -31.8406 -31.8356 -31.8354
    -8.5543  -8.5542  -8.1628  -8.1627   3.6837   3.6837   4.0505   4.0506
     5.6636   5.6636   6.5615   6.5618   6.6824   6.6825   6.8347   6.8347

          k =-0.5000 0.2522-0.5000 (  5232 PWs)   bands (ev):

   -65.0906 -65.0906 -65.0906 -65.0896 -31.8889 -31.8887 -31.8887 -31.8886
   -31.8410 -31.8408 -31.8408 -31.8406 -31.8389 -31.8386 -31.8386 -31.8386
    -8.3310  -8.3309  -8.3308  -8.3308   3.5090   3.5091   3.5091   3.5092
     6.3538   6.3538   6.3541   6.3541   6.8715   6.8717   6.8717   6.8719

          k =-0.5000-0.5043 0.0000 (  5244 PWs)   bands (ev):

   -65.0907 -65.0906 -65.0905 -65.0896 -31.8765 -31.8764 -31.8758 -31.8757
   -31.8580 -31.8577 -31.8567 -31.8564 -31.8360 -31.8359 -31.8353 -31.8352
    -8.3713  -8.3713  -8.3536  -8.3535   4.1267   4.1269   4.1350   4.1352
     5.5822   5.5822   5.6264   5.6264   6.8755   6.8757   6.8901   6.8903

          k =-0.5000-0.5043 0.2500 (  5236 PWs)   bands (ev):

   -65.0907 -65.0906 -65.0905 -65.0896 -31.8888 -31.8886 -31.8886 -31.8885
   -31.8454 -31.8452 -31.8449 -31.8447 -31.8350 -31.8348 -31.8344 -31.8343
    -8.3343  -8.3342  -8.3216  -8.3216   3.4924   3.4925   3.5042   3.5042
     6.3312   6.3312   6.3569   6.3569   6.8788   6.8790   6.8891   6.8892

          k =-0.5000-0.5043-0.5000 (  5232 PWs)   bands (ev):

   -65.0906 -65.0906 -65.0906 -65.0896 -31.8963 -31.8960 -31.8960 -31.8960
   -31.8384 -31.8381 -31.8381 -31.8381 -31.8340 -31.8338 -31.8338 -31.8336
    -8.2930  -8.2929  -8.2929  -8.2928   3.0873   3.0874   3.0874   3.0874
     6.8728   6.8729   6.8729   6.8731   6.8888   6.8889   6.8890   6.8890

          k = 0.0000 0.2522-0.2500 (  5233 PWs)   bands (ev):

   -65.0946 -65.0895 -65.0891 -65.0882 -31.8807 -31.8781 -31.8758 -31.8648
   -31.8566 -31.8555 -31.8515 -31.8484 -31.8455 -31.8436 -31.8377 -31.8287
    -9.0981  -8.2320  -8.2162  -8.0629   4.0115   4.0187   4.1797   4.9149
     5.6543   5.8678   5.9087   6.2877   6.3028   6.4146   6.9892   7.3086

          k =-0.2500 0.2522-0.2500 (  5241 PWs)   bands (ev):

   -65.0937 -65.0895 -65.0894 -65.0887 -31.8837 -31.8835 -31.8815 -31.8653
   -31.8536 -31.8535 -31.8523 -31.8467 -31.8422 -31.8422 -31.8355 -31.8306
    -8.9353  -8.1992  -8.1991  -8.1880   3.8558   3.8592   3.8592   4.9183
     5.6746   5.6748   5.6879   6.5080   6.5326   6.5328   7.1615   7.1639

          k = 0.5000 0.2522-0.2500 (  5236 PWs)   bands (ev):

   -65.0917 -65.0913 -65.0895 -65.0889 -31.8856 -31.8854 -31.8792 -31.8790
   -31.8522 -31.8520 -31.8430 -31.8429 -31.8408 -31.8406 -31.8356 -31.8354
    -8.5543  -8.5542  -8.1628  -8.1627   3.6837   3.6837   4.0505   4.0506
     5.6636   5.6636   6.5615   6.5618   6.6824   6.6825   6.8347   6.8347

     highest occupied level (ev):     7.4753

!    total energy              =    -608.39161323 Ry
     Harris-Foulkes estimate   =    -608.39161323 Ry
     estimated scf accuracy    <          6.0E-10 Ry

     The total energy is the sum of the following terms:

     one-electron contribution =    -306.90282981 Ry
     hartree contribution      =     169.19282097 Ry
     xc contribution           =     -97.77765264 Ry
     ewald contribution        =    -372.90395175 Ry

     convergence has been achieved in   5 iterations

     Forces acting on atoms (cartesian axes, Ry/au):

     atom    1 type  1   force =     0.00000000    0.00332318   -0.00002668
     atom    2 type  1   force =     0.00000000   -0.00334342    0.00002614
     atom    3 type  1   force =     0.00000000    0.00342048    0.00002673
     atom    4 type  1   force =     0.00000000   -0.00334341   -0.00002724
     atom    5 type  2   force =     0.00000000    0.00366461   -0.00002964
     atom    6 type  2   force =     0.00000000   -0.00368611   -0.00002974
     atom    7 type  2   force =     0.00000000    0.00366440    0.00003016
     atom    8 type  2   force =     0.00000000   -0.00369971    0.00003029

     Total force =     0.009962     Total SCF correction =     0.000225


     Computing stress (Cartesian axis) and pressure

          total   stress  (Ry/bohr**3)                   (kbar)     P=  -90.71
  -0.00064715   0.00000000   0.00000000        -95.20      0.00      0.00
   0.00000000  -0.00055447   0.00000000          0.00    -81.57      0.00
   0.00000000   0.00000000  -0.00064819          0.00      0.00    -95.35


     number of scf cycles    =   2
     number of bfgs steps    =   1

     energy   old            =    -608.3914413262 Ry
     energy   new            =    -608.3916132298 Ry

     CASE: energy  _new < energy  _old

     new trust radius        =       0.0059751431 bohr
     new conv_thr            =       0.0000000017 Ry


ATOMIC_POSITIONS (alat)
Mg       0.000000000   0.001238624  -0.000009622
Mg       0.000000000   0.498766283   0.500009338
Mg       0.500000000   0.001258396   0.500009631
Mg       0.500000000   0.498766299  -0.000009837
O        0.500000000   0.001388400  -0.000010993
O        0.000000000   0.498599448  -0.000010983
O        0.000000000   0.001388408   0.500011215
O        0.500000000   0.498594140   0.500011251



     Writing output data file diamond.8.11370155225.70.4.save
     NEW-OLD atomic charge density approx. for the potential

     Check: negative/imaginary core charge=   -0.000007    0.000000

     total cpu time spent up to now is       21.8 secs

     per-process dynamical memory:    52.1 Mb

     Self-consistent Calculation

     iteration #  1     ecut=    70.00 Ry     beta=0.70
     Davidson diagonalization with overlap
     ethr =  1.00E-06,  avg # of iterations =  3.1

     Threshold (ethr) on eigenvalues was too large:
     Diagonalizing with lowered threshold

     Davidson diagonalization with overlap
     ethr =  7.03E-08,  avg # of iterations =  1.1

     total cpu time spent up to now is       24.7 secs

     total energy              =    -608.39171965 Ry
     Harris-Foulkes estimate   =    -608.39175271 Ry
     estimated scf accuracy    <       0.00004519 Ry

     iteration #  2     ecut=    70.00 Ry     beta=0.70
     Davidson diagonalization with overlap
     ethr =  7.06E-08,  avg # of iterations =  2.2

     total cpu time spent up to now is       26.0 secs

     total energy              =    -608.39173332 Ry
     Harris-Foulkes estimate   =    -608.39173788 Ry
     estimated scf accuracy    <       0.00000758 Ry

     iteration #  3     ecut=    70.00 Ry     beta=0.70
     Davidson diagonalization with overlap
     ethr =  1.18E-08,  avg # of iterations =  2.0

     total cpu time spent up to now is       27.2 secs

     total energy              =    -608.39173497 Ry
     Harris-Foulkes estimate   =    -608.39173494 Ry
     estimated scf accuracy    <       0.00000005 Ry

     iteration #  4     ecut=    70.00 Ry     beta=0.70
     Davidson diagonalization with overlap
     ethr =  8.45E-11,  avg # of iterations =  2.6

     total cpu time spent up to now is       28.6 secs

     total energy              =    -608.39173498 Ry
     Harris-Foulkes estimate   =    -608.39173498 Ry
     estimated scf accuracy    <          5.6E-09 Ry

     iteration #  5     ecut=    70.00 Ry     beta=0.70
     Davidson diagonalization with overlap
     ethr =  8.74E-12,  avg # of iterations =  2.0

     total cpu time spent up to now is       29.9 secs

     End of self-consistent calculation

          k = 0.0000 0.0000 0.0000 (  5233 PWs)   bands (ev):

   -65.0972 -65.0886 -65.0884 -65.0877 -31.8880 -31.8880 -31.8837 -31.8543
   -31.8542 -31.8523 -31.8523 -31.8489 -31.8489 -31.8327 -31.8326 -31.8251
    -9.4852  -8.0883  -8.0881  -8.0664   3.6145   3.6147   3.6421   6.1794
     6.1799   6.1864   6.1870   6.2403   6.2403   7.4562   7.4751   7.4753

          k = 0.0000 0.0000 0.2500 (  5216 PWs)   bands (ev):

   -65.0959 -65.0897 -65.0885 -65.0879 -31.8832 -31.8810 -31.8780 -31.8596
   -31.8551 -31.8537 -31.8535 -31.8496 -31.8454 -31.8409 -31.8336 -31.8283
    -9.2848  -8.2957  -8.0589  -8.0434   3.8992   3.9255   3.9452   5.6702
     5.6832   5.9865   6.0279   6.3473   6.3966   6.4696   7.2396   7.2664

          k = 0.0000 0.0000-0.5000 (  5262 PWs)   bands (ev):

   -65.0930 -65.0926 -65.0885 -65.0879 -31.8721 -31.8719 -31.8664 -31.8662
   -31.8629 -31.8629 -31.8556 -31.8556 -31.8430 -31.8428 -31.8372 -31.8370
    -8.7941  -8.7939  -8.0248  -8.0248   4.6817   4.6819   4.7028   4.7030
     4.9556   4.9559   5.8152   5.8155   6.7661   6.7662   6.8048   6.8050

          k = 0.0000 0.2522 0.0000 (  5229 PWs)   bands (ev):

   -65.0959 -65.0895 -65.0886 -65.0880 -31.8834 -31.8833 -31.8743 -31.8585
   -31.8585 -31.8519 -31.8519 -31.8498 -31.8497 -31.8358 -31.8340 -31.8340
    -9.2800  -8.2747  -8.0597  -8.0595   3.9048   3.9050   3.9598   5.7169
     5.7170   5.9729   5.9734   6.3421   6.3426   6.4509   7.2547   7.2549

          k = 0.0000 0.2522 0.2500 (  5233 PWs)   bands (ev):

   -65.0948 -65.0896 -65.0892 -65.0883 -31.8808 -31.8782 -31.8759 -31.8649
   -31.8567 -31.8557 -31.8515 -31.8485 -31.8456 -31.8437 -31.8378 -31.8288
    -9.0978  -8.2318  -8.2162  -8.0628   4.0118   4.0186   4.1801   4.9148
     5.6544   5.8681   5.9086   6.2881   6.3028   6.4141   6.9891   7.3087

          k = 0.0000 0.2522-0.5000 (  5240 PWs)   bands (ev):

   -65.0923 -65.0919 -65.0891 -65.0886 -31.8744 -31.8742 -31.8690 -31.8690
   -31.8677 -31.8675 -31.8472 -31.8469 -31.8445 -31.8444 -31.8338 -31.8336
    -8.6601  -8.6600  -8.1117  -8.1117   4.2666   4.2667   4.5835   4.5837
     4.9319   4.9321   6.3843   6.3845   6.4128   6.4130   6.8985   6.8986

          k = 0.0000-0.5043 0.0000 (  5222 PWs)   bands (ev):

   -65.0929 -65.0924 -65.0886 -65.0881 -31.8712 -31.8712 -31.8704 -31.8704
   -31.8574 -31.8564 -31.8477 -31.8476 -31.8437 -31.8437 -31.8431 -31.8430
    -8.7876  -8.7709  -8.0307  -8.0306   4.6914   4.6916   4.7182   4.7183
     4.9425   4.9530   5.7723   5.7726   6.7615   6.7619   6.7777   6.7781

          k = 0.0000-0.5043 0.2500 (  5244 PWs)   bands (ev):

   -65.0923 -65.0918 -65.0892 -65.0887 -31.8765 -31.8760 -31.8672 -31.8671
   -31.8667 -31.8663 -31.8481 -31.8474 -31.8422 -31.8418 -31.8370 -31.8369
    -8.6576  -8.6430  -8.1184  -8.1156   4.2606   4.2713   4.5713   4.5827
     4.9363   4.9622   6.3544   6.3640   6.3803   6.3991   6.9053   6.9104

          k = 0.0000-0.5043-0.5000 (  5244 PWs)   bands (ev):

   -65.0908 -65.0907 -65.0907 -65.0898 -31.8765 -31.8764 -31.8760 -31.8760
   -31.8578 -31.8575 -31.8570 -31.8568 -31.8360 -31.8359 -31.8356 -31.8354
    -8.3670  -8.3669  -8.3578  -8.3577   4.1292   4.1294   4.1332   4.1333
     5.5927   5.5929   5.6158   5.6161   6.8791   6.8793   6.8865   6.8867

          k = 0.2500 0.0000 0.0000 (  5216 PWs)   bands (ev):

   -65.0959 -65.0897 -65.0885 -65.0879 -31.8833 -31.8810 -31.8780 -31.8597
   -31.8551 -31.8536 -31.8535 -31.8496 -31.8454 -31.8408 -31.8337 -31.8283
    -9.2848  -8.2955  -8.0590  -8.0434   3.8990   3.9255   3.9453   5.6705
     5.6836   5.9860   6.0278   6.3469   6.3966   6.4694   7.2395   7.2665

          k = 0.2500 0.0000 0.2500 (  5253 PWs)   bands (ev):

   -65.0948 -65.0897 -65.0893 -65.0882 -31.8817 -31.8816 -31.8733 -31.8677
   -31.8534 -31.8507 -31.8507 -31.8495 -31.8493 -31.8492 -31.8326 -31.8319
    -9.1020  -8.2323  -8.2321  -8.0524   4.0167   4.0168   4.1989   4.9142
     5.6798   5.8762   5.8767   6.3275   6.3276   6.3860   6.9692   7.3125

          k = 0.2500 0.0000-0.5000 (  5248 PWs)   bands (ev):

   -65.0923 -65.0919 -65.0891 -65.0886 -31.8775 -31.8773 -31.8697 -31.8696
   -31.8624 -31.8621 -31.8474 -31.8473 -31.8417 -31.8415 -31.8383 -31.8381
    -8.6627  -8.6626  -8.1148  -8.1148   4.2784   4.2785   4.6035   4.6038
     4.9462   4.9465   6.3645   6.3647   6.3868   6.3870   6.9139   6.9140

          k = 0.2500 0.2522 0.0000 (  5233 PWs)   bands (ev):

   -65.0948 -65.0896 -65.0892 -65.0883 -31.8807 -31.8782 -31.8759 -31.8649
   -31.8567 -31.8557 -31.8515 -31.8485 -31.8456 -31.8437 -31.8379 -31.8288
    -9.0977  -8.2316  -8.2162  -8.0629   4.0118   4.0185   4.1799   4.9148
     5.6542   5.8684   5.9085   6.2879   6.3025   6.4144   6.9893   7.3087

          k = 0.2500 0.2522 0.2500 (  5241 PWs)   bands (ev):

   -65.0939 -65.0896 -65.0896 -65.0888 -31.8838 -31.8836 -31.8816 -31.8654
   -31.8537 -31.8536 -31.8524 -31.8468 -31.8423 -31.8423 -31.8356 -31.8307
    -8.9351  -8.1991  -8.1990  -8.1880   3.8558   3.8593   3.8594   4.9184
     5.6747   5.6749   5.6878   6.5083   6.5325   6.5327   7.1616   7.1640

          k = 0.2500 0.2522-0.5000 (  5236 PWs)   bands (ev):

   -65.0919 -65.0915 -65.0896 -65.0890 -31.8856 -31.8855 -31.8792 -31.8791
   -31.8523 -31.8521 -31.8431 -31.8430 -31.8409 -31.8407 -31.8357 -31.8355
    -8.5541  -8.5540  -8.1627  -8.1626   3.6838   3.6838   4.0507   4.0508
     5.6637   5.6637   6.5619   6.5621   6.6822   6.6824   6.8347   6.8348

          k = 0.2500-0.5043 0.0000 (  5244 PWs)   bands (ev):

   -65.0923 -65.0918 -65.0892 -65.0887 -31.8765 -31.8760 -31.8672 -31.8671
   -31.8667 -31.8663 -31.8481 -31.8474 -31.8422 -31.8418 -31.8370 -31.8369
    -8.6576  -8.6429  -8.1184  -8.1156   4.2605   4.2712   4.5712   4.5825
     4.9362   4.9621   6.3546   6.3641   6.3805   6.3994   6.9052   6.9103

          k = 0.2500-0.5043 0.2500 (  5232 PWs)   bands (ev):

   -65.0918 -65.0914 -65.0896 -65.0891 -31.8863 -31.8862 -31.8783 -31.8782
   -31.8550 -31.8549 -31.8413 -31.8408 -31.8386 -31.8386 -31.8372 -31.8369
    -8.5524  -8.5399  -8.1655  -8.1654   3.6818   3.6819   4.0314   4.0432
     5.6652   5.6653   6.5552   6.5554   6.6915   6.6971   6.8149   6.8266

          k = 0.2500-0.5043-0.5000 (  5236 PWs)   bands (ev):

   -65.0908 -65.0907 -65.0907 -65.0897 -31.8889 -31.8887 -31.8886 -31.8886
   -31.8454 -31.8452 -31.8451 -31.8449 -31.8350 -31.8349 -31.8347 -31.8345
    -8.3311  -8.3311  -8.3245  -8.3245   3.4954   3.4956   3.5014   3.5015
     6.3374   6.3376   6.3509   6.3510   6.8813   6.8815   6.8865   6.8867

          k =-0.5000 0.0000 0.0000 (  5262 PWs)   bands (ev):

   -65.0930 -65.0926 -65.0885 -65.0879 -31.8721 -31.8719 -31.8664 -31.8662
   -31.8629 -31.8629 -31.8556 -31.8556 -31.8430 -31.8428 -31.8373 -31.8370
    -8.7939  -8.7938  -8.0249  -8.0248   4.6818   4.6818   4.7031   4.7031
     4.9555   4.9558   5.8148   5.8151   6.7658   6.7658   6.8049   6.8049

          k =-0.5000 0.0000 0.2500 (  5248 PWs)   bands (ev):

   -65.0923 -65.0919 -65.0891 -65.0886 -31.8775 -31.8773 -31.8697 -31.8696
   -31.8624 -31.8621 -31.8474 -31.8473 -31.8417 -31.8415 -31.8383 -31.8381
    -8.6626  -8.6625  -8.1149  -8.1148   4.2784   4.2785   4.6035   4.6037
     4.9465   4.9465   6.3643   6.3645   6.3867   6.3867   6.9140   6.9141

          k =-0.5000 0.0000-0.5000 (  5280 PWs)   bands (ev):

   -65.0907 -65.0907 -65.0907 -65.0898 -31.8785 -31.8783 -31.8783 -31.8783
   -31.8529 -31.8527 -31.8527 -31.8524 -31.8400 -31.8397 -31.8397 -31.8397
    -8.3682  -8.3681  -8.3681  -8.3680   4.1631   4.1632   4.1632   4.1634
     5.6003   5.6003   5.6006   5.6006   6.8703   6.8704   6.8705   6.8707

          k =-0.5000 0.2522 0.0000 (  5240 PWs)   bands (ev):

   -65.0923 -65.0919 -65.0891 -65.0886 -31.8744 -31.8742 -31.8690 -31.8690
   -31.8678 -31.8675 -31.8472 -31.8470 -31.8445 -31.8444 -31.8338 -31.8336
    -8.6600  -8.6599  -8.1118  -8.1117   4.2665   4.2666   4.5832   4.5835
     4.9320   4.9320   6.3842   6.3845   6.4129   6.4129   6.8985   6.8985

          k =-0.5000 0.2522 0.2500 (  5236 PWs)   bands (ev):

   -65.0919 -65.0915 -65.0896 -65.0890 -31.8856 -31.8855 -31.8792 -31.8791
   -31.8523 -31.8521 -31.8431 -31.8430 -31.8409 -31.8407 -31.8357 -31.8355
    -8.5540  -8.5540  -8.1627  -8.1626   3.6838   3.6838   4.0506   4.0507
     5.6637   5.6637   6.5619   6.5621   6.6823   6.6825   6.8346   6.8346

          k =-0.5000 0.2522-0.5000 (  5232 PWs)   bands (ev):

   -65.0907 -65.0907 -65.0907 -65.0898 -31.8890 -31.8887 -31.8887 -31.8887
   -31.8411 -31.8409 -31.8409 -31.8407 -31.8390 -31.8388 -31.8387 -31.8387
    -8.3308  -8.3307  -8.3307  -8.3306   3.5091   3.5092   3.5092   3.5093
     6.3538   6.3539   6.3541   6.3541   6.8717   6.8718   6.8718   6.8720

          k =-0.5000-0.5043 0.0000 (  5244 PWs)   bands (ev):

   -65.0908 -65.0907 -65.0907 -65.0898 -31.8765 -31.8764 -31.8760 -31.8759
   -31.8578 -31.8576 -31.8571 -31.8568 -31.8360 -31.8359 -31.8355 -31.8354
    -8.3669  -8.3669  -8.3577  -8.3576   4.1289   4.1291   4.1329   4.1330
     5.5928   5.5928   5.6159   5.6160   6.8792   6.8794   6.8866   6.8868

          k =-0.5000-0.5043 0.2500 (  5236 PWs)   bands (ev):

   -65.0908 -65.0907 -65.0907 -65.0897 -31.8889 -31.8887 -31.8886 -31.8886
   -31.8455 -31.8452 -31.8451 -31.8449 -31.8350 -31.8348 -31.8346 -31.8345
    -8.3311  -8.3310  -8.3245  -8.3244   3.4953   3.4955   3.5013   3.5014
     6.3374   6.3375   6.3508   6.3509   6.8814   6.8816   6.8867   6.8868

          k =-0.5000-0.5043-0.5000 (  5232 PWs)   bands (ev):

   -65.0907 -65.0907 -65.0907 -65.0897 -31.8964 -31.8961 -31.8961 -31.8961
   -31.8385 -31.8383 -31.8383 -31.8383 -31.8341 -31.8339 -31.8339 -31.8337
    -8.2929  -8.2927  -8.2927  -8.2927   3.0873   3.0874   3.0875   3.0875
     6.8729   6.8731   6.8731   6.8733   6.8888   6.8890   6.8891   6.8891

          k = 0.0000 0.2522-0.2500 (  5233 PWs)   bands (ev):

   -65.0948 -65.0896 -65.0892 -65.0883 -31.8808 -31.8782 -31.8759 -31.8649
   -31.8567 -31.8557 -31.8515 -31.8485 -31.8456 -31.8437 -31.8378 -31.8288
    -9.0978  -8.2318  -8.2162  -8.0628   4.0118   4.0186   4.1801   4.9148
     5.6544   5.8681   5.9086   6.2881   6.3028   6.4141   6.9891   7.3087

          k =-0.2500 0.2522-0.2500 (  5241 PWs)   bands (ev):

   -65.0939 -65.0896 -65.0896 -65.0888 -31.8838 -31.8836 -31.8816 -31.8654
   -31.8537 -31.8536 -31.8524 -31.8468 -31.8423 -31.8423 -31.8356 -31.8307
    -8.9351  -8.1991  -8.1990  -8.1880   3.8558   3.8593   3.8594   4.9184
     5.6747   5.6749   5.6878   6.5083   6.5325   6.5327   7.1616   7.1640

          k = 0.5000 0.2522-0.2500 (  5236 PWs)   bands (ev):

   -65.0919 -65.0915 -65.0896 -65.0890 -31.8856 -31.8855 -31.8792 -31.8791
   -31.8523 -31.8521 -31.8431 -31.8430 -31.8409 -31.8407 -31.8357 -31.8355
    -8.5540  -8.5540  -8.1627  -8.1626   3.6838   3.6838   4.0506   4.0507
     5.6637   5.6637   6.5619   6.5621   6.6823   6.6825   6.8346   6.8346

     highest occupied level (ev):     7.4753

!    total energy              =    -608.39173498 Ry
     Harris-Foulkes estimate   =    -608.39173498 Ry
     estimated scf accuracy    <          6.2E-10 Ry

     The total energy is the sum of the following terms:

     one-electron contribution =    -306.88043943 Ry
     hartree contribution      =     169.18145128 Ry
     xc contribution           =     -97.77739671 Ry
     ewald contribution        =    -372.91535013 Ry

     convergence has been achieved in   5 iterations

     Forces acting on atoms (cartesian axes, Ry/au):

     atom    1 type  1   force =     0.00000000    0.00176214   -0.00001558
     atom    2 type  1   force =     0.00000000   -0.00186675    0.00001614
     atom    3 type  1   force =     0.00000000    0.00193692    0.00001629
     atom    4 type  1   force =     0.00000000   -0.00186673   -0.00001681
     atom    5 type  2   force =     0.00000000    0.00182059   -0.00001601
     atom    6 type  2   force =     0.00000000   -0.00180428   -0.00001607
     atom    7 type  2   force =     0.00000000    0.00182053    0.00001601
     atom    8 type  2   force =     0.00000000   -0.00180243    0.00001602

     Total force =     0.005192     Total SCF correction =     0.000255


     Computing stress (Cartesian axis) and pressure

          total   stress  (Ry/bohr**3)                   (kbar)     P=  -90.84
  -0.00064731   0.00000000   0.00000000        -95.22      0.00      0.00
   0.00000000  -0.00055692   0.00000000          0.00    -81.93      0.00
   0.00000000   0.00000000  -0.00064835          0.00      0.00    -95.38


     number of scf cycles    =   3
     number of bfgs steps    =   2

     energy   old            =    -608.3916132298 Ry
     energy   new            =    -608.3917349790 Ry

     CASE: energy  _new < energy  _old

     new trust radius        =       0.0063323639 bohr
     new conv_thr            =       0.0000000012 Ry


ATOMIC_POSITIONS (alat)
Mg       0.000000000   0.001966192  -0.000015829
Mg       0.000000000   0.498010236   0.500015644
Mg       0.500000000   0.002038823   0.500016026
Mg       0.500000000   0.498010257  -0.000016406
O        0.500000000   0.002159346  -0.000017558
O        0.000000000   0.497830891  -0.000017571
O        0.000000000   0.002159322   0.500017822
O        0.500000000   0.497824932   0.500017872



     Writing output data file diamond.8.11370155225.70.4.save
     NEW-OLD atomic charge density approx. for the potential

     Check: negative/imaginary core charge=   -0.000007    0.000000

     total cpu time spent up to now is       30.6 secs

     per-process dynamical memory:    52.1 Mb

     Self-consistent Calculation

     iteration #  1     ecut=    70.00 Ry     beta=0.70
     Davidson diagonalization with overlap
     ethr =  1.00E-06,  avg # of iterations =  3.1

     Threshold (ethr) on eigenvalues was too large:
     Diagonalizing with lowered threshold

     Davidson diagonalization with overlap
     ethr =  8.00E-08,  avg # of iterations =  1.1

     total cpu time spent up to now is       33.6 secs

     total energy              =    -608.39176325 Ry
     Harris-Foulkes estimate   =    -608.39180070 Ry
     estimated scf accuracy    <       0.00005125 Ry

     iteration #  2     ecut=    70.00 Ry     beta=0.70
     Davidson diagonalization with overlap
     ethr =  8.01E-08,  avg # of iterations =  2.2

     total cpu time spent up to now is       34.9 secs

     total energy              =    -608.39177877 Ry
     Harris-Foulkes estimate   =    -608.39178396 Ry
     estimated scf accuracy    <       0.00000862 Ry

     iteration #  3     ecut=    70.00 Ry     beta=0.70
     Davidson diagonalization with overlap
     ethr =  1.35E-08,  avg # of iterations =  2.0

     total cpu time spent up to now is       36.1 secs

     total energy              =    -608.39178064 Ry
     Harris-Foulkes estimate   =    -608.39178061 Ry
     estimated scf accuracy    <       0.00000006 Ry

     iteration #  4     ecut=    70.00 Ry     beta=0.70
     Davidson diagonalization with overlap
     ethr =  9.72E-11,  avg # of iterations =  2.3

     total cpu time spent up to now is       37.5 secs

     total energy              =    -608.39178066 Ry
     Harris-Foulkes estimate   =    -608.39178066 Ry
     estimated scf accuracy    <          4.2E-09 Ry

     iteration #  5     ecut=    70.00 Ry     beta=0.70
     Davidson diagonalization with overlap
     ethr =  6.52E-12,  avg # of iterations =  2.0

     total cpu time spent up to now is       38.7 secs

     End of self-consistent calculation

          k = 0.0000 0.0000 0.0000 (  5233 PWs)   bands (ev):

   -65.0973 -65.0886 -65.0885 -65.0878 -31.8881 -31.8881 -31.8837 -31.8543
   -31.8543 -31.8524 -31.8524 -31.8490 -31.8489 -31.8327 -31.8327 -31.8251
    -9.4851  -8.0882  -8.0880  -8.0664   3.6146   3.6148   3.6420   6.1795
     6.1800   6.1864   6.1870   6.2403   6.2403   7.4563   7.4752   7.4753

          k = 0.0000 0.0000 0.2500 (  5216 PWs)   bands (ev):

   -65.0960 -65.0898 -65.0885 -65.0879 -31.8833 -31.8811 -31.8780 -31.8597
   -31.8552 -31.8537 -31.8536 -31.8497 -31.8454 -31.8409 -31.8337 -31.8283
    -9.2847  -8.2956  -8.0588  -8.0434   3.8993   3.9254   3.9453   5.6703
     5.6832   5.9866   6.0280   6.3472   6.3966   6.4696   7.2397   7.2664

          k = 0.0000 0.0000-0.5000 (  5262 PWs)   bands (ev):

   -65.0931 -65.0926 -65.0885 -65.0880 -31.8722 -31.8719 -31.8664 -31.8662
   -31.8630 -31.8630 -31.8557 -31.8557 -31.8431 -31.8428 -31.8373 -31.8370
    -8.7940  -8.7938  -8.0248  -8.0247   4.6819   4.6820   4.7029   4.7029
     4.9556   4.9559   5.8153   5.8157   6.7660   6.7661   6.8049   6.8049

          k = 0.0000 0.2522 0.0000 (  5229 PWs)   bands (ev):

   -65.0959 -65.0895 -65.0886 -65.0881 -31.8834 -31.8834 -31.8743 -31.8586
   -31.8585 -31.8520 -31.8519 -31.8498 -31.8497 -31.8358 -31.8341 -31.8340
    -9.2799  -8.2747  -8.0596  -8.0595   3.9050   3.9052   3.9598   5.7168
     5.7169   5.9729   5.9734   6.3423   6.3427   6.4510   7.2547   7.2549

          k = 0.0000 0.2522 0.2500 (  5233 PWs)   bands (ev):

   -65.0948 -65.0897 -65.0893 -65.0884 -31.8808 -31.8782 -31.8759 -31.8650
   -31.8567 -31.8557 -31.8515 -31.8486 -31.8456 -31.8438 -31.8379 -31.8289
    -9.0977  -8.2317  -8.2162  -8.0627   4.0119   4.0186   4.1802   4.9148
     5.6545   5.8682   5.9085   6.2883   6.3029   6.4140   6.9891   7.3088

          k = 0.0000 0.2522-0.5000 (  5240 PWs)   bands (ev):

   -65.0924 -65.0920 -65.0892 -65.0886 -31.8744 -31.8742 -31.8691 -31.8690
   -31.8678 -31.8675 -31.8472 -31.8470 -31.8446 -31.8445 -31.8338 -31.8336
    -8.6600  -8.6599  -8.1117  -8.1116   4.2666   4.2667   4.5835   4.5837
     4.9321   4.9321   6.3844   6.3846   6.4128   6.4129   6.8985   6.8985

          k = 0.0000-0.5043 0.0000 (  5222 PWs)   bands (ev):

   -65.0929 -65.0925 -65.0886 -65.0881 -31.8710 -31.8709 -31.8708 -31.8707
   -31.8570 -31.8568 -31.8477 -31.8477 -31.8435 -31.8435 -31.8433 -31.8433
    -8.7794  -8.7790  -8.0306  -8.0306   4.7044   4.7046   4.7052   4.7054
     4.9476   4.9479   5.7723   5.7726   6.7696   6.7698   6.7700   6.7701

          k = 0.0000-0.5043 0.2500 (  5244 PWs)   bands (ev):

   -65.0923 -65.0919 -65.0893 -65.0887 -31.8764 -31.8762 -31.8670 -31.8669
   -31.8669 -31.8667 -31.8479 -31.8477 -31.8421 -31.8420 -31.8371 -31.8370
    -8.6504  -8.6501  -8.1170  -8.1169   4.2657   4.2663   4.5768   4.5772
     4.9489   4.9497   6.3591   6.3593   6.3896   6.3899   6.9078   6.9080

          k = 0.0000-0.5043-0.5000 (  5244 PWs)   bands (ev):

   -65.0908 -65.0908 -65.0908 -65.0898 -31.8764 -31.8763 -31.8761 -31.8761
   -31.8575 -31.8574 -31.8573 -31.8571 -31.8360 -31.8358 -31.8357 -31.8356
    -8.3624  -8.3623  -8.3622  -8.3621   4.1310   4.1310   4.1314   4.1316
     5.6040   5.6041   5.6047   5.6048   6.8828   6.8829   6.8829   6.8831

          k = 0.2500 0.0000 0.0000 (  5216 PWs)   bands (ev):

   -65.0960 -65.0898 -65.0885 -65.0879 -31.8833 -31.8810 -31.8780 -31.8597
   -31.8551 -31.8537 -31.8535 -31.8497 -31.8454 -31.8409 -31.8337 -31.8284
    -9.2847  -8.2954  -8.0590  -8.0434   3.8991   3.9254   3.9454   5.6706
     5.6836   5.9862   6.0279   6.3467   6.3966   6.4695   7.2396   7.2665

          k = 0.2500 0.0000 0.2500 (  5253 PWs)   bands (ev):

   -65.0949 -65.0897 -65.0893 -65.0883 -31.8818 -31.8817 -31.8733 -31.8678
   -31.8534 -31.8507 -31.8507 -31.8496 -31.8494 -31.8493 -31.8326 -31.8319
    -9.1019  -8.2322  -8.2321  -8.0523   4.0168   4.0169   4.1989   4.9143
     5.6798   5.8762   5.8767   6.3275   6.3276   6.3861   6.9692   7.3125

          k = 0.2500 0.0000-0.5000 (  5248 PWs)   bands (ev):

   -65.0924 -65.0920 -65.0892 -65.0886 -31.8775 -31.8773 -31.8697 -31.8697
   -31.8624 -31.8622 -31.8474 -31.8473 -31.8418 -31.8415 -31.8383 -31.8382
    -8.6626  -8.6625  -8.1148  -8.1147   4.2785   4.2786   4.6037   4.6039
     4.9462   4.9463   6.3655   6.3657   6.3859   6.3860   6.9140   6.9140

          k = 0.2500 0.2522 0.0000 (  5233 PWs)   bands (ev):

   -65.0948 -65.0897 -65.0893 -65.0884 -31.8808 -31.8783 -31.8759 -31.8649
   -31.8568 -31.8558 -31.8515 -31.8486 -31.8456 -31.8438 -31.8379 -31.8288
    -9.0976  -8.2316  -8.2162  -8.0628   4.0119   4.0185   4.1801   4.9148
     5.6543   5.8685   5.9085   6.2881   6.3025   6.4142   6.9893   7.3088

          k = 0.2500 0.2522 0.2500 (  5241 PWs)   bands (ev):

   -65.0939 -65.0897 -65.0896 -65.0889 -31.8838 -31.8836 -31.8817 -31.8654
   -31.8538 -31.8537 -31.8525 -31.8468 -31.8424 -31.8424 -31.8357 -31.8308
    -8.9350  -8.1990  -8.1989  -8.1879   3.8558   3.8594   3.8594   4.9184
     5.6748   5.6749   5.6878   6.5084   6.5325   6.5327   7.1616   7.1641

          k = 0.2500 0.2522-0.5000 (  5236 PWs)   bands (ev):

   -65.0919 -65.0915 -65.0896 -65.0891 -31.8857 -31.8855 -31.8793 -31.8792
   -31.8523 -31.8521 -31.8432 -31.8431 -31.8409 -31.8408 -31.8357 -31.8355
    -8.5540  -8.5539  -8.1627  -8.1625   3.6838   3.6839   4.0507   4.0508
     5.6637   5.6637   6.5620   6.5623   6.6822   6.6824   6.8347   6.8347

          k = 0.2500-0.5043 0.0000 (  5244 PWs)   bands (ev):

   -65.0923 -65.0919 -65.0893 -65.0887 -31.8763 -31.8762 -31.8670 -31.8669
   -31.8669 -31.8667 -31.8479 -31.8477 -31.8421 -31.8420 -31.8370 -31.8369
    -8.6504  -8.6501  -8.1169  -8.1169   4.2656   4.2662   4.5767   4.5770
     4.9488   4.9496   6.3592   6.3595   6.3898   6.3902   6.9077   6.9079

          k = 0.2500-0.5043 0.2500 (  5232 PWs)   bands (ev):

   -65.0918 -65.0915 -65.0897 -65.0891 -31.8863 -31.8862 -31.8783 -31.8782
   -31.8551 -31.8549 -31.8412 -31.8410 -31.8386 -31.8386 -31.8371 -31.8371
    -8.5462  -8.5460  -8.1654  -8.1654   3.6819   3.6819   4.0371   4.0375
     5.6653   5.6653   6.5552   6.5553   6.6941   6.6945   6.8208   6.8209

          k = 0.2500-0.5043-0.5000 (  5236 PWs)   bands (ev):

   -65.0908 -65.0908 -65.0908 -65.0898 -31.8889 -31.8887 -31.8887 -31.8886
   -31.8454 -31.8452 -31.8452 -31.8451 -31.8350 -31.8348 -31.8347 -31.8346
    -8.3279  -8.3277  -8.3277  -8.3276   3.4983   3.4984   3.4985   3.4986
     6.3441   6.3441   6.3444   6.3445   6.8839   6.8840   6.8841   6.8842

          k =-0.5000 0.0000 0.0000 (  5262 PWs)   bands (ev):

   -65.0930 -65.0926 -65.0885 -65.0880 -31.8722 -31.8719 -31.8664 -31.8662
   -31.8630 -31.8630 -31.8557 -31.8556 -31.8431 -31.8429 -31.8373 -31.8370
    -8.7938  -8.7937  -8.0249  -8.0248   4.6819   4.6820   4.7031   4.7031
     4.9555   4.9558   5.8149   5.8153   6.7658   6.7658   6.8049   6.8050

          k =-0.5000 0.0000 0.2500 (  5248 PWs)   bands (ev):

   -65.0924 -65.0920 -65.0892 -65.0886 -31.8775 -31.8773 -31.8697 -31.8697
   -31.8624 -31.8622 -31.8474 -31.8473 -31.8418 -31.8415 -31.8384 -31.8382
    -8.6625  -8.6624  -8.1148  -8.1147   4.2785   4.2786   4.6036   4.6038
     4.9464   4.9464   6.3653   6.3655   6.3857   6.3857   6.9140   6.9141

          k =-0.5000 0.0000-0.5000 (  5280 PWs)   bands (ev):

   -65.0908 -65.0908 -65.0908 -65.0898 -31.8786 -31.8783 -31.8783 -31.8783
   -31.8529 -31.8527 -31.8527 -31.8525 -31.8400 -31.8398 -31.8398 -31.8398
    -8.3682  -8.3680  -8.3680  -8.3679   4.1632   4.1633   4.1633   4.1635
     5.6002   5.6003   5.6005   5.6005   6.8704   6.8705   6.8705   6.8707

          k =-0.5000 0.2522 0.0000 (  5240 PWs)   bands (ev):

   -65.0924 -65.0920 -65.0892 -65.0886 -31.8744 -31.8742 -31.8690 -31.8690
   -31.8678 -31.8676 -31.8473 -31.8470 -31.8445 -31.8445 -31.8338 -31.8336
    -8.6599  -8.6598  -8.1117  -8.1116   4.2665   4.2666   4.5833   4.5835
     4.9321   4.9322   6.3843   6.3846   6.4129   6.4129   6.8984   6.8985

          k =-0.5000 0.2522 0.2500 (  5236 PWs)   bands (ev):

   -65.0919 -65.0915 -65.0896 -65.0891 -31.8857 -31.8855 -31.8793 -31.8792
   -31.8523 -31.8521 -31.8431 -31.8431 -31.8409 -31.8408 -31.8357 -31.8355
    -8.5539  -8.5539  -8.1627  -8.1626   3.6838   3.6839   4.0506   4.0507
     5.6637   5.6637   6.5620   6.5622   6.6823   6.6825   6.8346   6.8346

          k =-0.5000 0.2522-0.5000 (  5232 PWs)   bands (ev):

   -65.0908 -65.0908 -65.0908 -65.0898 -31.8890 -31.8888 -31.8888 -31.8887
   -31.8412 -31.8409 -31.8409 -31.8407 -31.8390 -31.8388 -31.8388 -31.8388
    -8.3308  -8.3306  -8.3306  -8.3306   3.5091   3.5092   3.5092   3.5093
     6.3539   6.3539   6.3540   6.3541   6.8717   6.8719   6.8719   6.8721

          k =-0.5000-0.5043 0.0000 (  5244 PWs)   bands (ev):

   -65.0908 -65.0908 -65.0908 -65.0898 -31.8764 -31.8763 -31.8761 -31.8761
   -31.8576 -31.8574 -31.8574 -31.8571 -31.8360 -31.8358 -31.8357 -31.8356
    -8.3624  -8.3623  -8.3622  -8.3621   4.1307   4.1308   4.1311   4.1314
     5.6041   5.6041   5.6048   5.6049   6.8829   6.8830   6.8830   6.8832

          k =-0.5000-0.5043 0.2500 (  5236 PWs)   bands (ev):

   -65.0908 -65.0908 -65.0908 -65.0898 -31.8889 -31.8887 -31.8887 -31.8886
   -31.8454 -31.8452 -31.8452 -31.8451 -31.8350 -31.8348 -31.8347 -31.8346
    -8.3278  -8.3277  -8.3277  -8.3276   3.4982   3.4983   3.4984   3.4985
     6.3440   6.3441   6.3444   6.3444   6.8840   6.8841   6.8841   6.8844

          k =-0.5000-0.5043-0.5000 (  5232 PWs)   bands (ev):

   -65.0908 -65.0908 -65.0907 -65.0898 -31.8964 -31.8962 -31.8962 -31.8961
   -31.8386 -31.8383 -31.8383 -31.8383 -31.8341 -31.8339 -31.8339 -31.8337
    -8.2928  -8.2927  -8.2926  -8.2926   3.0873   3.0875   3.0875   3.0875
     6.8730   6.8732   6.8732   6.8733   6.8889   6.8890   6.8891   6.8891

          k = 0.0000 0.2522-0.2500 (  5233 PWs)   bands (ev):

   -65.0948 -65.0897 -65.0893 -65.0884 -31.8808 -31.8782 -31.8759 -31.8650
   -31.8567 -31.8557 -31.8515 -31.8486 -31.8456 -31.8438 -31.8379 -31.8289
    -9.0977  -8.2317  -8.2162  -8.0627   4.0119   4.0186   4.1802   4.9148
     5.6545   5.8682   5.9085   6.2883   6.3029   6.4140   6.9891   7.3088

          k =-0.2500 0.2522-0.2500 (  5241 PWs)   bands (ev):

   -65.0939 -65.0897 -65.0896 -65.0889 -31.8838 -31.8836 -31.8817 -31.8654
   -31.8538 -31.8537 -31.8525 -31.8468 -31.8424 -31.8424 -31.8357 -31.8308
    -8.9350  -8.1990  -8.1989  -8.1879   3.8558   3.8594   3.8594   4.9184
     5.6748   5.6749   5.6878   6.5084   6.5325   6.5327   7.1616   7.1641

          k = 0.5000 0.2522-0.2500 (  5236 PWs)   bands (ev):

   -65.0919 -65.0915 -65.0896 -65.0891 -31.8857 -31.8855 -31.8793 -31.8792
   -31.8523 -31.8521 -31.8431 -31.8431 -31.8409 -31.8408 -31.8357 -31.8355
    -8.5539  -8.5539  -8.1627  -8.1626   3.6838   3.6839   4.0506   4.0507
     5.6637   5.6637   6.5620   6.5622   6.6823   6.6825   6.8346   6.8346

     highest occupied level (ev):     7.4753

!    total energy              =    -608.39178066 Ry
     Harris-Foulkes estimate   =    -608.39178066 Ry
     estimated scf accuracy    <          5.8E-10 Ry

     The total energy is the sum of the following terms:

     one-electron contribution =    -306.87103044 Ry
     hartree contribution      =     169.17669012 Ry
     xc contribution           =     -97.77728774 Ry
     ewald contribution        =    -372.92015259 Ry

     convergence has been achieved in   5 iterations

     Forces acting on atoms (cartesian axes, Ry/au):

     atom    1 type  1   force =     0.00000000    0.00003661   -0.00000236
     atom    2 type  1   force =     0.00000000   -0.00019453    0.00000389
     atom    3 type  1   force =     0.00000000    0.00024300    0.00000373
     atom    4 type  1   force =     0.00000000   -0.00019449   -0.00000403
     atom    5 type  2   force =     0.00000000   -0.00011158   -0.00000096
     atom    6 type  2   force =     0.00000000    0.00015210   -0.00000109
     atom    7 type  2   force =     0.00000000   -0.00011196    0.00000048
     atom    8 type  2   force =     0.00000000    0.00018084    0.00000036

     Total force =     0.000466     Total SCF correction =     0.000240
     SCF correction compared to forces is large: reduce conv_thr to get better values


     Computing stress (Cartesian axis) and pressure

          total   stress  (Ry/bohr**3)                   (kbar)     P=  -90.90
  -0.00064737   0.00000000   0.00000000        -95.23      0.00      0.00
   0.00000000  -0.00055793   0.00000000          0.00    -82.07      0.00
   0.00000000   0.00000000  -0.00064841          0.00      0.00    -95.38


     number of scf cycles    =   4
     number of bfgs steps    =   3

     energy   old            =    -608.3917349790 Ry
     energy   new            =    -608.3917806583 Ry

     CASE: energy  _new < energy  _old

     new trust radius        =       0.0002877138 bohr
     new conv_thr            =       0.0000000002 Ry


ATOMIC_POSITIONS (alat)
Mg       0.000000000   0.001975771  -0.000016163
Mg       0.000000000   0.497980939   0.500016168
Mg       0.500000000   0.002074280   0.500016531
Mg       0.500000000   0.497980965  -0.000016950
O        0.500000000   0.002150953  -0.000017723
O        0.000000000   0.497844306  -0.000017751
O        0.000000000   0.002150881   0.500017927
O        0.500000000   0.497841905   0.500017962



     Writing output data file diamond.8.11370155225.70.4.save
     NEW-OLD atomic charge density approx. for the potential

     Check: negative/imaginary core charge=   -0.000007    0.000000

     total cpu time spent up to now is       39.5 secs

     per-process dynamical memory:    52.1 Mb

     Self-consistent Calculation

     iteration #  1     ecut=    70.00 Ry     beta=0.70
     Davidson diagonalization with overlap
     ethr =  1.00E-06,  avg # of iterations =  2.0

     Threshold (ethr) on eigenvalues was too large:
     Diagonalizing with lowered threshold

     Davidson diagonalization with overlap
     ethr =  1.53E-11,  avg # of iterations =  3.5

     total cpu time spent up to now is       42.6 secs

     total energy              =    -608.39178084 Ry
     Harris-Foulkes estimate   =    -608.39178085 Ry
     estimated scf accuracy    <          5.4E-09 Ry

     iteration #  2     ecut=    70.00 Ry     beta=0.70
     Davidson diagonalization with overlap
     ethr =  8.42E-12,  avg # of iterations =  3.0

     total cpu time spent up to now is       43.9 secs

     total energy              =    -608.39178085 Ry
     Harris-Foulkes estimate   =    -608.39178085 Ry
     estimated scf accuracy    <          2.3E-09 Ry

     iteration #  3     ecut=    70.00 Ry     beta=0.70
     Davidson diagonalization with overlap
     ethr =  3.56E-12,  avg # of iterations =  3.0

     total cpu time spent up to now is       45.3 secs

     total energy              =    -608.39178085 Ry
     Harris-Foulkes estimate   =    -608.39178085 Ry
     estimated scf accuracy    <          4.5E-10 Ry

     iteration #  4     ecut=    70.00 Ry     beta=0.70
     Davidson diagonalization with overlap
     ethr =  7.03E-13,  avg # of iterations =  2.9

     total cpu time spent up to now is       46.6 secs

     End of self-consistent calculation

          k = 0.0000 0.0000 0.0000 (  5233 PWs)   bands (ev):

   -65.0973 -65.0886 -65.0885 -65.0878 -31.8881 -31.8881 -31.8837 -31.8543
   -31.8543 -31.8524 -31.8524 -31.8489 -31.8489 -31.8327 -31.8327 -31.8251
    -9.4851  -8.0883  -8.0881  -8.0664   3.6145   3.6148   3.6420   6.1795
     6.1800   6.1864   6.1870   6.2403   6.2403   7.4563   7.4751   7.4753

          k = 0.0000 0.0000 0.2500 (  5216 PWs)   bands (ev):

   -65.0960 -65.0898 -65.0885 -65.0879 -31.8833 -31.8811 -31.8780 -31.8597
   -31.8552 -31.8537 -31.8536 -31.8497 -31.8454 -31.8409 -31.8337 -31.8283
    -9.2847  -8.2956  -8.0588  -8.0434   3.8993   3.9254   3.9453   5.6703
     5.6832   5.9866   6.0280   6.3472   6.3966   6.4696   7.2397   7.2664

          k = 0.0000 0.0000-0.5000 (  5262 PWs)   bands (ev):

   -65.0930 -65.0926 -65.0885 -65.0880 -31.8722 -31.8719 -31.8664 -31.8662
   -31.8630 -31.8630 -31.8557 -31.8557 -31.8431 -31.8428 -31.8373 -31.8370
    -8.7940  -8.7939  -8.0248  -8.0247   4.6819   4.6819   4.7029   4.7029
     4.9556   4.9559   5.8153   5.8156   6.7660   6.7661   6.8049   6.8049

          k = 0.0000 0.2522 0.0000 (  5229 PWs)   bands (ev):

   -65.0959 -65.0895 -65.0886 -65.0881 -31.8834 -31.8834 -31.8743 -31.8586
   -31.8585 -31.8520 -31.8519 -31.8498 -31.8497 -31.8358 -31.8341 -31.8340
    -9.2799  -8.2747  -8.0596  -8.0595   3.9049   3.9052   3.9597   5.7168
     5.7169   5.9729   5.9734   6.3422   6.3427   6.4510   7.2547   7.2549

          k = 0.0000 0.2522 0.2500 (  5233 PWs)   bands (ev):

   -65.0948 -65.0897 -65.0893 -65.0884 -31.8808 -31.8782 -31.8759 -31.8650
   -31.8567 -31.8557 -31.8515 -31.8486 -31.8456 -31.8438 -31.8379 -31.8289
    -9.0977  -8.2317  -8.2162  -8.0628   4.0119   4.0185   4.1802   4.9148
     5.6545   5.8682   5.9085   6.2883   6.3028   6.4140   6.9891   7.3088

          k = 0.0000 0.2522-0.5000 (  5240 PWs)   bands (ev):

   -65.0924 -65.0920 -65.0892 -65.0886 -31.8744 -31.8742 -31.8691 -31.8690
   -31.8678 -31.8675 -31.8472 -31.8470 -31.8446 -31.8445 -31.8338 -31.8336
    -8.6600  -8.6599  -8.1117  -8.1116   4.2666   4.2667   4.5835   4.5837
     4.9321   4.9321   6.3844   6.3846   6.4128   6.4128   6.8985   6.8985

          k = 0.0000-0.5043 0.0000 (  5222 PWs)   bands (ev):

   -65.0929 -65.0925 -65.0886 -65.0881 -31.8710 -31.8709 -31.8708 -31.8707
   -31.8570 -31.8568 -31.8477 -31.8477 -31.8435 -31.8435 -31.8433 -31.8433
    -8.7794  -8.7790  -8.0307  -8.0306   4.7044   4.7045   4.7053   4.7054
     4.9476   4.9478   5.7723   5.7725   6.7695   6.7698   6.7699   6.7701

          k = 0.0000-0.5043 0.2500 (  5244 PWs)   bands (ev):

   -65.0923 -65.0919 -65.0892 -65.0887 -31.8764 -31.8762 -31.8670 -31.8669
   -31.8669 -31.8667 -31.8479 -31.8477 -31.8421 -31.8420 -31.8370 -31.8370
    -8.6504  -8.6501  -8.1170  -8.1169   4.2657   4.2663   4.5769   4.5771
     4.9489   4.9497   6.3590   6.3593   6.3895   6.3900   6.9078   6.9080

          k = 0.0000-0.5043-0.5000 (  5244 PWs)   bands (ev):

   -65.0908 -65.0908 -65.0908 -65.0898 -31.8764 -31.8763 -31.8761 -31.8761
   -31.8575 -31.8574 -31.8573 -31.8571 -31.8360 -31.8358 -31.8357 -31.8356
    -8.3625  -8.3624  -8.3622  -8.3621   4.1311   4.1311   4.1313   4.1316
     5.6040   5.6040   5.6047   5.6048   6.8828   6.8829   6.8829   6.8831

          k = 0.2500 0.0000 0.0000 (  5216 PWs)   bands (ev):

   -65.0960 -65.0898 -65.0885 -65.0879 -31.8833 -31.8810 -31.8780 -31.8597
   -31.8551 -31.8537 -31.8535 -31.8497 -31.8454 -31.8409 -31.8337 -31.8283
    -9.2847  -8.2954  -8.0590  -8.0434   3.8991   3.9254   3.9454   5.6706
     5.6836   5.9862   6.0279   6.3467   6.3965   6.4694   7.2396   7.2665

          k = 0.2500 0.0000 0.2500 (  5253 PWs)   bands (ev):

   -65.0948 -65.0897 -65.0893 -65.0883 -31.8818 -31.8817 -31.8733 -31.8678
   -31.8534 -31.8507 -31.8506 -31.8496 -31.8494 -31.8493 -31.8326 -31.8319
    -9.1019  -8.2322  -8.2321  -8.0524   4.0168   4.0168   4.1989   4.9143
     5.6798   5.8762   5.8767   6.3275   6.3276   6.3861   6.9692   7.3125

          k = 0.2500 0.0000-0.5000 (  5248 PWs)   bands (ev):

   -65.0924 -65.0920 -65.0892 -65.0886 -31.8775 -31.8773 -31.8697 -31.8697
   -31.8624 -31.8622 -31.8474 -31.8473 -31.8418 -31.8415 -31.8383 -31.8382
    -8.6626  -8.6625  -8.1148  -8.1147   4.2785   4.2786   4.6037   4.6039
     4.9462   4.9462   6.3655   6.3657   6.3859   6.3859   6.9139   6.9140

          k = 0.2500 0.2522 0.0000 (  5233 PWs)   bands (ev):

   -65.0948 -65.0897 -65.0893 -65.0884 -31.8808 -31.8782 -31.8759 -31.8649
   -31.8568 -31.8558 -31.8515 -31.8486 -31.8456 -31.8438 -31.8379 -31.8288
    -9.0976  -8.2316  -8.2162  -8.0629   4.0119   4.0185   4.1801   4.9148
     5.6543   5.8685   5.9085   6.2881   6.3025   6.4142   6.9893   7.3087

          k = 0.2500 0.2522 0.2500 (  5241 PWs)   bands (ev):

   -65.0939 -65.0897 -65.0896 -65.0889 -31.8838 -31.8836 -31.8816 -31.8654
   -31.8538 -31.8536 -31.8525 -31.8468 -31.8424 -31.8423 -31.8357 -31.8308
    -8.9350  -8.1990  -8.1989  -8.1880   3.8558   3.8594   3.8594   4.9184
     5.6747   5.6749   5.6878   6.5084   6.5325   6.5327   7.1616   7.1640

          k = 0.2500 0.2522-0.5000 (  5236 PWs)   bands (ev):

   -65.0919 -65.0915 -65.0896 -65.0891 -31.8857 -31.8855 -31.8793 -31.8792
   -31.8523 -31.8521 -31.8432 -31.8431 -31.8409 -31.8408 -31.8357 -31.8355
    -8.5540  -8.5539  -8.1627  -8.1626   3.6838   3.6839   4.0507   4.0508
     5.6637   5.6637   6.5620   6.5623   6.6822   6.6824   6.8347   6.8347

          k = 0.2500-0.5043 0.0000 (  5244 PWs)   bands (ev):

   -65.0923 -65.0919 -65.0892 -65.0887 -31.8763 -31.8762 -31.8670 -31.8669
   -31.8669 -31.8667 -31.8479 -31.8477 -31.8421 -31.8420 -31.8370 -31.8369
    -8.6504  -8.6501  -8.1170  -8.1169   4.2656   4.2662   4.5767   4.5770
     4.9488   4.9496   6.3592   6.3595   6.3898   6.3902   6.9077   6.9079

          k = 0.2500-0.5043 0.2500 (  5232 PWs)   bands (ev):

   -65.0918 -65.0915 -65.0897 -65.0891 -31.8863 -31.8862 -31.8783 -31.8782
   -31.8551 -31.8549 -31.8412 -31.8410 -31.8386 -31.8386 -31.8371 -31.8371
    -8.5462  -8.5459  -8.1654  -8.1654   3.6818   3.6819   4.0372   4.0374
     5.6653   5.6653   6.5551   6.5553   6.6941   6.6945   6.8207   6.8209

          k = 0.2500-0.5043-0.5000 (  5236 PWs)   bands (ev):

   -65.0908 -65.0907 -65.0907 -65.0898 -31.8889 -31.8887 -31.8887 -31.8886
   -31.8454 -31.8452 -31.8452 -31.8451 -31.8350 -31.8348 -31.8347 -31.8346
    -8.3279  -8.3278  -8.3277  -8.3276   3.4984   3.4984   3.4985   3.4986
     6.3440   6.3441   6.3444   6.3445   6.8839   6.8840   6.8840   6.8842

          k =-0.5000 0.0000 0.0000 (  5262 PWs)   bands (ev):

   -65.0930 -65.0926 -65.0885 -65.0880 -31.8722 -31.8719 -31.8664 -31.8662
   -31.8630 -31.8630 -31.8557 -31.8556 -31.8431 -31.8428 -31.8373 -31.8370
    -8.7938  -8.7938  -8.0249  -8.0248   4.6819   4.6819   4.7031   4.7031
     4.9555   4.9558   5.8149   5.8153   6.7657   6.7658   6.8049   6.8049

          k =-0.5000 0.0000 0.2500 (  5248 PWs)   bands (ev):

   -65.0924 -65.0920 -65.0892 -65.0886 -31.8775 -31.8773 -31.8697 -31.8697
   -31.8624 -31.8622 -31.8474 -31.8473 -31.8418 -31.8415 -31.8383 -31.8382
    -8.6625  -8.6625  -8.1148  -8.1148   4.2785   4.2786   4.6036   4.6038
     4.9463   4.9464   6.3653   6.3655   6.3857   6.3857   6.9140   6.9141

          k =-0.5000 0.0000-0.5000 (  5280 PWs)   bands (ev):

   -65.0908 -65.0908 -65.0908 -65.0898 -31.8786 -31.8783 -31.8783 -31.8783
   -31.8529 -31.8527 -31.8527 -31.8524 -31.8400 -31.8398 -31.8397 -31.8397
[...]
   -31.8538 -31.8536 -31.8525 -31.8468 -31.8424 -31.8423 -31.8357 -31.8308
    -8.9350  -8.1990  -8.1989  -8.1880   3.8558   3.8594   3.8594   4.9184
     5.6747   5.6749   5.6878   6.5084   6.5325   6.5327   7.1616   7.1640

          k = 0.5000 0.2522-0.2500 (  5236 PWs)   bands (ev):

   -65.0919 -65.0915 -65.0896 -65.0891 -31.8857 -31.8855 -31.8793 -31.8792
   -31.8523 -31.8521 -31.8431 -31.8430 -31.8409 -31.8408 -31.8357 -31.8355
    -8.5540  -8.5539  -8.1627  -8.1626   3.6838   3.6838   4.0506   4.0507
     5.6637   5.6637   6.5620   6.5622   6.6823   6.6825   6.8346   6.8346

     highest occupied level (ev):     7.4753

!    total energy              =    -608.39178085 Ry
     Harris-Foulkes estimate   =    -608.39178085 Ry
     estimated scf accuracy    <          2.0E-11 Ry

     The total energy is the sum of the following terms:

     one-electron contribution =    -306.87104877 Ry
     hartree contribution      =     169.17673418 Ry
     xc contribution           =     -97.77730562 Ry
     ewald contribution        =    -372.92016063 Ry

     convergence has been achieved in   4 iterations

     Forces acting on atoms (cartesian axes, Ry/au):

     atom    1 type  1   force =     0.00000000   -0.00000466   -0.00000148
     atom    2 type  1   force =     0.00000000   -0.00012798    0.00000277
     atom    3 type  1   force =     0.00000000    0.00016844    0.00000263
     atom    4 type  1   force =     0.00000000   -0.00012788   -0.00000293
     atom    5 type  2   force =     0.00000000   -0.00008391   -0.00000064
     atom    6 type  2   force =     0.00000000    0.00011332   -0.00000070
     atom    7 type  2   force =     0.00000000   -0.00008386    0.00000027
     atom    8 type  2   force =     0.00000000    0.00014654    0.00000009

     Total force =     0.000331     Total SCF correction =     0.000014


     Computing stress (Cartesian axis) and pressure

          total   stress  (Ry/bohr**3)                   (kbar)     P=  -90.89
  -0.00064730   0.00000000   0.00000000        -95.22      0.00      0.00
   0.00000000  -0.00055786   0.00000000          0.00    -82.06      0.00
   0.00000000   0.00000000  -0.00064834          0.00      0.00    -95.37


     number of scf cycles    =   5
     number of bfgs steps    =   4

     energy   old            =    -608.3917806583 Ry
     energy   new            =    -608.3917808462 Ry

     CASE: energy  _new < energy  _old

     new trust radius        =       0.0003164852 bohr
     new conv_thr            =            1.0E-10 Ry


ATOMIC_POSITIONS (alat)
Mg       0.000000000   0.001976579  -0.000016507
Mg       0.000000000   0.497950888   0.500016795
Mg       0.500000000   0.002113282   0.500017128
Mg       0.500000000   0.497950936  -0.000017614
O        0.500000000   0.002133873  -0.000017879
O        0.000000000   0.497867918  -0.000017920
O        0.000000000   0.002133807   0.500018001
O        0.500000000   0.497872718   0.500017996



     Writing output data file diamond.8.11370155225.70.4.save
     NEW-OLD atomic charge density approx. for the potential

     Check: negative/imaginary core charge=   -0.000007    0.000000

     total cpu time spent up to now is       47.4 secs

     per-process dynamical memory:    52.1 Mb

     Self-consistent Calculation

     iteration #  1     ecut=    70.00 Ry     beta=0.70
     Davidson diagonalization with overlap
     ethr =  1.00E-06,  avg # of iterations =  2.0

     Threshold (ethr) on eigenvalues was too large:
     Diagonalizing with lowered threshold

     Davidson diagonalization with overlap
     ethr =  3.06E-11,  avg # of iterations =  3.8

     total cpu time spent up to now is       50.4 secs

     total energy              =    -608.39178098 Ry
     Harris-Foulkes estimate   =    -608.39178100 Ry
     estimated scf accuracy    <       0.00000002 Ry

     iteration #  2     ecut=    70.00 Ry     beta=0.70
     Davidson diagonalization with overlap
     ethr =  2.84E-11,  avg # of iterations =  2.0

     total cpu time spent up to now is       51.6 secs

     total energy              =    -608.39178099 Ry
     Harris-Foulkes estimate   =    -608.39178099 Ry
     estimated scf accuracy    <          2.7E-09 Ry

     iteration #  3     ecut=    70.00 Ry     beta=0.70
     Davidson diagonalization with overlap
     ethr =  4.27E-12,  avg # of iterations =  2.0

     total cpu time spent up to now is       52.8 secs

     End of self-consistent calculation

          k = 0.0000 0.0000 0.0000 (  5233 PWs)   bands (ev):

   -65.0973 -65.0886 -65.0885 -65.0878 -31.8881 -31.8881 -31.8837 -31.8543
   -31.8543 -31.8524 -31.8524 -31.8490 -31.8489 -31.8327 -31.8327 -31.8251
    -9.4851  -8.0883  -8.0880  -8.0664   3.6145   3.6148   3.6420   6.1795
     6.1800   6.1864   6.1870   6.2403   6.2403   7.4563   7.4752   7.4753

          k = 0.0000 0.0000 0.2500 (  5216 PWs)   bands (ev):

   -65.0960 -65.0898 -65.0885 -65.0879 -31.8833 -31.8811 -31.8780 -31.8597
   -31.8552 -31.8537 -31.8536 -31.8497 -31.8454 -31.8409 -31.8337 -31.8283
    -9.2847  -8.2956  -8.0588  -8.0434   3.8993   3.9254   3.9453   5.6703
     5.6832   5.9866   6.0280   6.3472   6.3966   6.4696   7.2397   7.2664

          k = 0.0000 0.0000-0.5000 (  5262 PWs)   bands (ev):

   -65.0930 -65.0926 -65.0885 -65.0880 -31.8722 -31.8719 -31.8664 -31.8662
   -31.8630 -31.8630 -31.8557 -31.8557 -31.8431 -31.8428 -31.8373 -31.8370
    -8.7939  -8.7939  -8.0248  -8.0248   4.6819   4.6819   4.7029   4.7029
     4.9556   4.9559   5.8153   5.8156   6.7661   6.7661   6.8049   6.8049

          k = 0.0000 0.2522 0.0000 (  5229 PWs)   bands (ev):

   -65.0959 -65.0895 -65.0886 -65.0881 -31.8834 -31.8834 -31.8743 -31.8586
   -31.8585 -31.8520 -31.8519 -31.8498 -31.8497 -31.8358 -31.8341 -31.8340
    -9.2799  -8.2747  -8.0596  -8.0595   3.9049   3.9052   3.9597   5.7168
     5.7169   5.9729   5.9734   6.3422   6.3427   6.4510   7.2547   7.2549

          k = 0.0000 0.2522 0.2500 (  5233 PWs)   bands (ev):

   -65.0948 -65.0897 -65.0893 -65.0884 -31.8808 -31.8782 -31.8759 -31.8650
   -31.8567 -31.8557 -31.8515 -31.8486 -31.8456 -31.8438 -31.8379 -31.8289
    -9.0977  -8.2317  -8.2162  -8.0628   4.0119   4.0186   4.1802   4.9148
     5.6545   5.8682   5.9085   6.2883   6.3028   6.4140   6.9891   7.3088

          k = 0.0000 0.2522-0.5000 (  5240 PWs)   bands (ev):

   -65.0924 -65.0920 -65.0892 -65.0886 -31.8744 -31.8742 -31.8691 -31.8690
   -31.8678 -31.8675 -31.8472 -31.8470 -31.8446 -31.8445 -31.8338 -31.8336
    -8.6600  -8.6599  -8.1117  -8.1117   4.2666   4.2667   4.5835   4.5837
     4.9321   4.9321   6.3844   6.3846   6.4128   6.4128   6.8985   6.8985

          k = 0.0000-0.5043 0.0000 (  5222 PWs)   bands (ev):

   -65.0929 -65.0925 -65.0886 -65.0881 -31.8710 -31.8709 -31.8708 -31.8707
   -31.8569 -31.8568 -31.8477 -31.8477 -31.8435 -31.8435 -31.8433 -31.8433
    -8.7795  -8.7789  -8.0307  -8.0306   4.7042   4.7044   4.7054   4.7056
     4.9475   4.9479   5.7723   5.7726   6.7694   6.7697   6.7699   6.7703

          k = 0.0000-0.5043 0.2500 (  5244 PWs)   bands (ev):

   -65.0923 -65.0919 -65.0893 -65.0887 -31.8764 -31.8762 -31.8670 -31.8669
   -31.8669 -31.8667 -31.8479 -31.8477 -31.8421 -31.8420 -31.8371 -31.8370
    -8.6505  -8.6500  -8.1170  -8.1169   4.2657   4.2663   4.5769   4.5771
     4.9487   4.9499   6.3590   6.3594   6.3894   6.3901   6.9078   6.9080

          k = 0.0000-0.5043-0.5000 (  5244 PWs)   bands (ev):

   -65.0908 -65.0908 -65.0908 -65.0898 -31.8764 -31.8763 -31.8761 -31.8761
   -31.8575 -31.8574 -31.8573 -31.8571 -31.8360 -31.8358 -31.8357 -31.8356
    -8.3625  -8.3624  -8.3621  -8.3621   4.1312   4.1312   4.1312   4.1314
     5.6039   5.6039   5.6049   5.6049   6.8827   6.8829   6.8829   6.8831

          k = 0.2500 0.0000 0.0000 (  5216 PWs)   bands (ev):

   -65.0960 -65.0898 -65.0885 -65.0879 -31.8833 -31.8810 -31.8780 -31.8597
   -31.8551 -31.8537 -31.8535 -31.8497 -31.8454 -31.8409 -31.8337 -31.8283
    -9.2847  -8.2954  -8.0590  -8.0434   3.8991   3.9254   3.9454   5.6706
     5.6836   5.9862   6.0279   6.3467   6.3965   6.4694   7.2396   7.2665

          k = 0.2500 0.0000 0.2500 (  5253 PWs)   bands (ev):

   -65.0948 -65.0897 -65.0893 -65.0883 -31.8818 -31.8817 -31.8733 -31.8678
   -31.8534 -31.8507 -31.8506 -31.8496 -31.8494 -31.8493 -31.8326 -31.8319
    -9.1019  -8.2322  -8.2321  -8.0523   4.0168   4.0168   4.1989   4.9143
     5.6798   5.8762   5.8767   6.3275   6.3276   6.3861   6.9692   7.3125

          k = 0.2500 0.0000-0.5000 (  5248 PWs)   bands (ev):

   -65.0924 -65.0920 -65.0892 -65.0886 -31.8775 -31.8773 -31.8697 -31.8697
   -31.8624 -31.8622 -31.8474 -31.8473 -31.8418 -31.8415 -31.8383 -31.8382
    -8.6626  -8.6625  -8.1148  -8.1147   4.2785   4.2786   4.6037   4.6039
     4.9462   4.9462   6.3655   6.3657   6.3859   6.3859   6.9139   6.9140

          k = 0.2500 0.2522 0.0000 (  5233 PWs)   bands (ev):

   -65.0948 -65.0897 -65.0893 -65.0884 -31.8808 -31.8782 -31.8759 -31.8649
   -31.8568 -31.8558 -31.8515 -31.8486 -31.8456 -31.8438 -31.8379 -31.8288
    -9.0976  -8.2316  -8.2162  -8.0628   4.0119   4.0185   4.1801   4.9148
     5.6543   5.8685   5.9085   6.2881   6.3025   6.4142   6.9893   7.3088

          k = 0.2500 0.2522 0.2500 (  5241 PWs)   bands (ev):

   -65.0939 -65.0897 -65.0896 -65.0889 -31.8838 -31.8836 -31.8816 -31.8654
   -31.8538 -31.8536 -31.8525 -31.8468 -31.8424 -31.8423 -31.8357 -31.8308
    -8.9350  -8.1990  -8.1989  -8.1880   3.8558   3.8594   3.8594   4.9184
     5.6747   5.6749   5.6878   6.5084   6.5325   6.5327   7.1616   7.1641

          k = 0.2500 0.2522-0.5000 (  5236 PWs)   bands (ev):

   -65.0919 -65.0915 -65.0896 -65.0891 -31.8857 -31.8855 -31.8793 -31.8792
   -31.8523 -31.8521 -31.8432 -31.8431 -31.8409 -31.8408 -31.8357 -31.8355
    -8.5540  -8.5540  -8.1626  -8.1626   3.6838   3.6839   4.0507   4.0508
     5.6637   5.6637   6.5620   6.5623   6.6822   6.6824   6.8347   6.8347

          k = 0.2500-0.5043 0.0000 (  5244 PWs)   bands (ev):

   -65.0923 -65.0919 -65.0893 -65.0887 -31.8763 -31.8762 -31.8669 -31.8669
   -31.8669 -31.8667 -31.8479 -31.8477 -31.8421 -31.8420 -31.8370 -31.8369
    -8.6505  -8.6499  -8.1170  -8.1169   4.2656   4.2662   4.5767   4.5770
     4.9486   4.9498   6.3591   6.3595   6.3896   6.3903   6.9076   6.9079

          k = 0.2500-0.5043 0.2500 (  5232 PWs)   bands (ev):

   -65.0918 -65.0915 -65.0897 -65.0891 -31.8863 -31.8862 -31.8783 -31.8782
   -31.8551 -31.8549 -31.8412 -31.8410 -31.8386 -31.8386 -31.8371 -31.8371
    -8.5463  -8.5459  -8.1654  -8.1654   3.6818   3.6819   4.0372   4.0374
     5.6653   5.6653   6.5551   6.5553   6.6941   6.6945   6.8206   6.8210

          k = 0.2500-0.5043-0.5000 (  5236 PWs)   bands (ev):

   -65.0908 -65.0908 -65.0907 -65.0898 -31.8889 -31.8887 -31.8887 -31.8886
   -31.8454 -31.8452 -31.8452 -31.8451 -31.8350 -31.8348 -31.8347 -31.8346
    -8.3279  -8.3279  -8.3276  -8.3276   3.4983   3.4985   3.4985   3.4985
     6.3439   6.3440   6.3445   6.3446   6.8839   6.8840   6.8840   6.8842

          k =-0.5000 0.0000 0.0000 (  5262 PWs)   bands (ev):

   -65.0930 -65.0926 -65.0885 -65.0880 -31.8722 -31.8719 -31.8664 -31.8662
   -31.8630 -31.8630 -31.8557 -31.8556 -31.8431 -31.8429 -31.8373 -31.8370
    -8.7938  -8.7938  -8.0249  -8.0248   4.6819   4.6819   4.7031   4.7031
     4.9555   4.9558   5.8149   5.8153   6.7658   6.7658   6.8049   6.8049

          k =-0.5000 0.0000 0.2500 (  5248 PWs)   bands (ev):

   -65.0924 -65.0920 -65.0892 -65.0886 -31.8775 -31.8773 -31.8697 -31.8697
   -31.8624 -31.8622 -31.8474 -31.8473 -31.8418 -31.8415 -31.8384 -31.8382
    -8.6625  -8.6625  -8.1148  -8.1148   4.2785   4.2786   4.6036   4.6038
     4.9464   4.9464   6.3653   6.3655   6.3857   6.3857   6.9140   6.9141

          k =-0.5000 0.0000-0.5000 (  5280 PWs)   bands (ev):

   -65.0908 -65.0908 -65.0908 -65.0898 -31.8786 -31.8783 -31.8783 -31.8783
   -31.8529 -31.8527 -31.8527 -31.8524 -31.8400 -31.8398 -31.8397 -31.8397
    -8.3681  -8.3680  -8.3680  -8.3680   4.1632   4.1633   4.1633   4.1635
     5.6002   5.6002   5.6005   5.6005   6.8704   6.8705   6.8705   6.8707

          k =-0.5000 0.2522 0.0000 (  5240 PWs)   bands (ev):

   -65.0924 -65.0920 -65.0892 -65.0886 -31.8744 -31.8742 -31.8690 -31.8690
   -31.8678 -31.8676 -31.8473 -31.8470 -31.8445 -31.8445 -31.8338 -31.8336
    -8.6599  -8.6598  -8.1117  -8.1117   4.2665   4.2666   4.5833   4.5835
     4.9321   4.9321   6.3843   6.3846   6.4129   6.4129   6.8984   6.8985

          k =-0.5000 0.2522 0.2500 (  5236 PWs)   bands (ev):

   -65.0919 -65.0915 -65.0896 -65.0891 -31.8857 -31.8855 -31.8793 -31.8792
   -31.8523 -31.8521 -31.8431 -31.8430 -31.8409 -31.8408 -31.8357 -31.8355
    -8.5540  -8.5539  -8.1627  -8.1626   3.6838   3.6838   4.0506   4.0507
     5.6637   5.6637   6.5620   6.5622   6.6823   6.6825   6.8346   6.8346

          k =-0.5000 0.2522-0.5000 (  5232 PWs)   bands (ev):

   -65.0908 -65.0908 -65.0908 -65.0898 -31.8890 -31.8888 -31.8888 -31.8887
   -31.8412 -31.8409 -31.8409 -31.8407 -31.8390 -31.8388 -31.8388 -31.8388
    -8.3308  -8.3306  -8.3306  -8.3306   3.5091   3.5092   3.5092   3.5093
     6.3538   6.3539   6.3541   6.3541   6.8717   6.8719   6.8719   6.8721

          k =-0.5000-0.5043 0.0000 (  5244 PWs)   bands (ev):

   -65.0908 -65.0908 -65.0908 -65.0898 -31.8764 -31.8763 -31.8761 -31.8761
   -31.8576 -31.8574 -31.8573 -31.8571 -31.8360 -31.8358 -31.8357 -31.8356
    -8.3625  -8.3624  -8.3621  -8.3620   4.1309   4.1309   4.1310   4.1312
     5.6039   5.6039   5.6049   5.6050   6.8828   6.8830   6.8831   6.8832

          k =-0.5000-0.5043 0.2500 (  5236 PWs)   bands (ev):

   -65.0908 -65.0908 -65.0908 -65.0898 -31.8889 -31.8887 -31.8887 -31.8886
   -31.8454 -31.8452 -31.8452 -31.8451 -31.8350 -31.8348 -31.8347 -31.8346
    -8.3279  -8.3278  -8.3276  -8.3276   3.4982   3.4984   3.4984   3.4984
     6.3438   6.3440   6.3445   6.3445   6.8840   6.8841   6.8842   6.8843

          k =-0.5000-0.5043-0.5000 (  5232 PWs)   bands (ev):

   -65.0908 -65.0907 -65.0907 -65.0898 -31.8964 -31.8962 -31.8962 -31.8961
   -31.8386 -31.8383 -31.8383 -31.8383 -31.8341 -31.8339 -31.8339 -31.8337
    -8.2928  -8.2927  -8.2927  -8.2926   3.0873   3.0875   3.0875   3.0875
     6.8730   6.8731   6.8731   6.8733   6.8889   6.8890   6.8891   6.8891

          k = 0.0000 0.2522-0.2500 (  5233 PWs)   bands (ev):

   -65.0948 -65.0897 -65.0893 -65.0884 -31.8808 -31.8782 -31.8759 -31.8650
   -31.8567 -31.8557 -31.8515 -31.8486 -31.8456 -31.8438 -31.8379 -31.8289
    -9.0977  -8.2317  -8.2162  -8.0628   4.0119   4.0186   4.1802   4.9148
     5.6545   5.8682   5.9085   6.2883   6.3028   6.4140   6.9891   7.3088

          k =-0.2500 0.2522-0.2500 (  5241 PWs)   bands (ev):

   -65.0939 -65.0897 -65.0896 -65.0889 -31.8838 -31.8836 -31.8816 -31.8654
   -31.8538 -31.8536 -31.8525 -31.8468 -31.8424 -31.8423 -31.8357 -31.8308
    -8.9350  -8.1990  -8.1989  -8.1880   3.8558   3.8594   3.8594   4.9184
     5.6747   5.6749   5.6878   6.5084   6.5325   6.5327   7.1616   7.1641

          k = 0.5000 0.2522-0.2500 (  5236 PWs)   bands (ev):

   -65.0919 -65.0915 -65.0896 -65.0891 -31.8857 -31.8855 -31.8793 -31.8792
   -31.8523 -31.8521 -31.8431 -31.8430 -31.8409 -31.8408 -31.8357 -31.8355
    -8.5540  -8.5539  -8.1627  -8.1626   3.6838   3.6838   4.0506   4.0507
     5.6637   5.6637   6.5620   6.5622   6.6823   6.6825   6.8346   6.8346

     highest occupied level (ev):     7.4753

!    total energy              =    -608.39178099 Ry
     Harris-Foulkes estimate   =    -608.39178099 Ry
     estimated scf accuracy    <          5.8E-11 Ry

     The total energy is the sum of the following terms:

     one-electron contribution =    -306.87103863 Ry
     hartree contribution      =     169.17672298 Ry
     xc contribution           =     -97.77730226 Ry
     ewald contribution        =    -372.92016309 Ry

     convergence has been achieved in   3 iterations

     Forces acting on atoms (cartesian axes, Ry/au):

     atom    1 type  1   force =     0.00000000   -0.00002594   -0.00000034
     atom    2 type  1   force =     0.00000000   -0.00006729    0.00000136
     atom    3 type  1   force =     0.00000000    0.00009724    0.00000123
     atom    4 type  1   force =     0.00000000   -0.00006723   -0.00000147
     atom    5 type  2   force =     0.00000000   -0.00003011   -0.00000050
     atom    6 type  2   force =     0.00000000    0.00004476   -0.00000055
     atom    7 type  2   force =     0.00000000   -0.00003163    0.00000026
     atom    8 type  2   force =     0.00000000    0.00008021    0.00000001

     Total force =     0.000172     Total SCF correction =     0.000010


     Computing stress (Cartesian axis) and pressure

          total   stress  (Ry/bohr**3)                   (kbar)     P=  -90.89
  -0.00064731   0.00000000   0.00000000        -95.22      0.00      0.00
   0.00000000  -0.00055787   0.00000000          0.00    -82.07      0.00
   0.00000000   0.00000000  -0.00064835          0.00      0.00    -95.38


     bfgs converged in   6 scf cycles and   5 bfgs steps
     (criteria: energy <  1.0E-05 Ry, force <  1.0E-04 Ry/Bohr)

     End of BFGS Geometry Optimization

     Final energy   =    -608.3917809899 Ry
Begin final coordinates

ATOMIC_POSITIONS (alat)
Mg       0.000000000   0.001976579  -0.000016507
Mg       0.000000000   0.497950888   0.500016795
Mg       0.500000000   0.002113282   0.500017128
Mg       0.500000000   0.497950936  -0.000017614
O        0.500000000   0.002133873  -0.000017879
O        0.000000000   0.497867918  -0.000017920
O        0.000000000   0.002133807   0.500018001
O        0.500000000   0.497872718   0.500017996
End final coordinates



     Writing output data file diamond.8.11370155225.70.4.save
 
     init_run     :      0.56s CPU      0.57s WALL (       1 calls)
     electrons    :     47.24s CPU     48.38s WALL (       6 calls)
     update_pot   :      0.56s CPU      0.56s WALL (       5 calls)
     forces       :      0.99s CPU      1.00s WALL (       6 calls)
     stress       :      2.33s CPU      2.34s WALL (       6 calls)

     Called by init_run:
     wfcinit      :      0.43s CPU      0.44s WALL (       1 calls)
     potinit      :      0.05s CPU      0.05s WALL (       1 calls)

     Called by electrons:
     c_bands      :     41.26s CPU     42.27s WALL (      36 calls)
     sum_band     :      5.76s CPU      5.86s WALL (      36 calls)
     v_of_rho     :      0.19s CPU      0.19s WALL (      37 calls)
     mix_rho      :      0.02s CPU      0.03s WALL (      36 calls)

     Called by c_bands:
     init_us_2    :      0.61s CPU      0.65s WALL (    2550 calls)
     cegterg      :     38.47s CPU     39.41s WALL (    1080 calls)

     Called by sum_band:

     Called by *egterg:
     h_psi        :     28.26s CPU     28.82s WALL (    3558 calls)
     g_psi        :      0.22s CPU      0.22s WALL (    2448 calls)
     cdiaghg      :      5.38s CPU      5.39s WALL (    3228 calls)

     Called by h_psi:
     h_psi:pot    :     28.14s CPU     28.67s WALL (    3558 calls)
     h_psi:calbec :      1.62s CPU      1.62s WALL (    3558 calls)
     vloc_psi     :     25.18s CPU     25.69s WALL (    3558 calls)
     add_vuspsi   :      1.34s CPU      1.34s WALL (    3558 calls)

     General routines
     calbec       :      2.14s CPU      2.13s WALL (    4458 calls)
     fft          :      0.14s CPU      0.15s WALL (     566 calls)
     fftw         :     28.24s CPU     28.03s WALL (  218412 calls)
     davcio       :      0.00s CPU      0.00s WALL (      30 calls)
 
     Parallel routines
     fft_scatter  :      7.56s CPU      7.32s WALL (  218978 calls)
 
     PWSCF        :    52.14s CPU        53.46s WALL

 
   This run was terminated on:  15: 3:23  22Apr2018            

=------------------------------------------------------------------------------=
   JOB DONE.
=------------------------------------------------------------------------------=
