
     Program PWSCF v.6.1 (svn rev. 13369) starts on 22Apr2018 at 14:55:51 

     This program is part of the open-source Quantum ESPRESSO suite
     for quantum simulation of materials; please cite
         "P. Giannozzi et al., J. Phys.:Condens. Matter 21 395502 (2009);
          URL http://www.quantum-espresso.org", 
     in publications or presentations arising from this work. More details at
     http://www.quantum-espresso.org/quote

     Parallel version (MPI), running on     8 processors
     R & G space division:  proc/nbgrp/npool/nimage =       8
     Waiting for input...
     Reading input from standard input
Warning: card       &CELL ignored
Warning: card       CELL_DYNAMICS = 'BFGS' ignored
Warning: card       PRESS = 0.0D0 ignored
Warning: card       PRESS_CONV_THR = 0.01D0 ignored
Warning: card       / ignored

     Current dimensions of program PWSCF are:
     Max number of different atomic species (ntypx) = 10
     Max number of k-points (npk) =  40000
     Max angular momentum in pseudopotentials (lmaxx) =  3

     Subspace diagonalization in iterative solution of the eigenvalue problem:
     a serial algorithm will be used

     Found symmetry operation: I + ( -0.5000  0.0000  0.5000)
     This is a supercell, fractional translations are disabled
 
     Parallelization info
     --------------------
     sticks:   dense  smooth     PW     G-vecs:    dense   smooth      PW
     Min         181     181     52                 5191     5191     824
     Max         182     182     53                 5194     5194     829
     Sum        1453    1453    421                41539    41539    6619
 


     bravais-lattice index     =            8
     lattice parameter (alat)  =       8.0677  a.u.
     unit-cell volume          =     523.6193 (a.u.)^3
     number of atoms/cell      =            8
     number of atomic types    =            2
     number of electrons       =        64.00
     number of Kohn-Sham states=           32
     kinetic-energy cutoff     =      70.0000  Ry
     charge density cutoff     =     280.0000  Ry
     convergence threshold     =      1.0E-08
     mixing beta               =       0.7000
     number of iterations used =            8  plain     mixing
     Exchange-correlation      = PBE ( 1  4  3  4 0 0)
     nstep                     =           50


     celldm(1)=   8.067734  celldm(2)=   0.997143  celldm(3)=   1.000008
     celldm(4)=   0.000000  celldm(5)=   0.000000  celldm(6)=   0.000000

     crystal axes: (cart. coord. in units of alat)
               a(1) = (   1.000000   0.000000   0.000000 )  
               a(2) = (   0.000000   0.997143   0.000000 )  
               a(3) = (   0.000000   0.000000   1.000008 )  

     reciprocal axes: (cart. coord. in units 2 pi/alat)
               b(1) = (  1.000000  0.000000  0.000000 )  
               b(2) = (  0.000000  1.002865  0.000000 )  
               b(3) = (  0.000000  0.000000  0.999992 )  


     PseudoPot. # 1 for Mg read from file:
     ../pseudo/Mg.pbe.UPF
     MD5 check sum: 4c04d8c6e0476e83eaecaf72fa8acc4d
     Pseudo is Norm-conserving, Zval = 10.0
     Generated using ONCVPSP code by D. R. Hamann
     Using radial grid of 1510 points,  4 beta functions with: 
                l(1) =   0
                l(2) =   0
                l(3) =   1
                l(4) =   1

     PseudoPot. # 2 for O  read from file:
     ../pseudo/O.pbe.UPF
     MD5 check sum: 3e3f909f7470e8921608ab6b1f57bbae
     Pseudo is Norm-conserving + core correction, Zval =  6.0
     Generated using ONCVPSP code by D. R. Hamann
     Using radial grid of  936 points,  5 beta functions with: 
                l(1) =   0
                l(2) =   0
                l(3) =   1
                l(4) =   1
                l(5) =   2

     atomic species   valence    mass     pseudopotential
        Mg            10.00    24.30500     Mg( 1.00)
        O              6.00    15.99940     O ( 1.00)

      4 Sym. Ops. (no inversion) found



   Cartesian axes

     site n.     atom                  positions (alat units)
         1           Mg  tau(   1) = (   0.0000000   0.0000000   0.0000000  )
         2           Mg  tau(   2) = (   0.0000000   0.5000000   0.5000000  )
         3           Mg  tau(   3) = (   0.5000000   0.0000000   0.5000000  )
         4           Mg  tau(   4) = (   0.5000000   0.5000000   0.0000000  )
         5           O   tau(   5) = (   0.5000000   0.0000000   0.0000000  )
         6           O   tau(   6) = (   0.0000000   0.5000000   0.0000000  )
         7           O   tau(   7) = (   0.0000000   0.0000000   0.5000000  )
         8           O   tau(   8) = (   0.5000000   0.5000000   0.5000000  )

     number of k points=    27
                       cart. coord. in units 2pi/alat
        k(    1) = (   0.0000000   0.0000000   0.0000000), wk =   0.0312500
        k(    2) = (   0.0000000   0.0000000   0.2499980), wk =   0.0625000
        k(    3) = (   0.0000000   0.0000000  -0.4999959), wk =   0.0312500
        k(    4) = (   0.0000000   0.2507163   0.0000000), wk =   0.0625000
        k(    5) = (   0.0000000   0.2507163   0.2499980), wk =   0.1250000
        k(    6) = (   0.0000000   0.2507163  -0.4999959), wk =   0.0625000
        k(    7) = (   0.0000000  -0.5014326   0.0000000), wk =   0.0312500
        k(    8) = (   0.0000000  -0.5014326   0.2499980), wk =   0.0625000
        k(    9) = (   0.0000000  -0.5014326  -0.4999959), wk =   0.0312500
        k(   10) = (   0.2500000   0.0000000   0.0000000), wk =   0.0625000
        k(   11) = (   0.2500000   0.0000000   0.2499980), wk =   0.1250000
        k(   12) = (   0.2500000   0.0000000  -0.4999959), wk =   0.0625000
        k(   13) = (   0.2500000   0.2507163   0.0000000), wk =   0.1250000
        k(   14) = (   0.2500000   0.2507163   0.2499980), wk =   0.2500000
        k(   15) = (   0.2500000   0.2507163  -0.4999959), wk =   0.1250000
        k(   16) = (   0.2500000  -0.5014326   0.0000000), wk =   0.0625000
        k(   17) = (   0.2500000  -0.5014326   0.2499980), wk =   0.1250000
        k(   18) = (   0.2500000  -0.5014326  -0.4999959), wk =   0.0625000
        k(   19) = (  -0.5000000   0.0000000   0.0000000), wk =   0.0312500
        k(   20) = (  -0.5000000   0.0000000   0.2499980), wk =   0.0625000
        k(   21) = (  -0.5000000   0.0000000  -0.4999959), wk =   0.0312500
        k(   22) = (  -0.5000000   0.2507163   0.0000000), wk =   0.0625000
        k(   23) = (  -0.5000000   0.2507163   0.2499980), wk =   0.1250000
        k(   24) = (  -0.5000000   0.2507163  -0.4999959), wk =   0.0625000
        k(   25) = (  -0.5000000  -0.5014326   0.0000000), wk =   0.0312500
        k(   26) = (  -0.5000000  -0.5014326   0.2499980), wk =   0.0625000
        k(   27) = (  -0.5000000  -0.5014326  -0.4999959), wk =   0.0312500

     Dense  grid:    41539 G-vectors     FFT dimensions: (  45,  45,  45)

     Estimated max dynamical RAM per process >      14.47MB

     Estimated total allocated dynamical RAM >     115.79MB

     Check: negative/imaginary core charge=   -0.000007    0.000000

     Initial potential from superposition of free atoms

     starting charge   63.99678, renormalised to   64.00000
     Starting wfc are   36 randomized atomic wfcs

     total cpu time spent up to now is        0.7 secs

     per-process dynamical memory:    50.1 Mb

     Self-consistent Calculation

     iteration #  1     ecut=    70.00 Ry     beta=0.70
     Davidson diagonalization with overlap
     ethr =  1.00E-02,  avg # of iterations =  2.0

     total cpu time spent up to now is        1.8 secs

     total energy              =    -607.71754151 Ry
     Harris-Foulkes estimate   =    -608.84361575 Ry
     estimated scf accuracy    <       1.56430918 Ry

     iteration #  2     ecut=    70.00 Ry     beta=0.70
     Davidson diagonalization with overlap
     ethr =  2.44E-03,  avg # of iterations =  2.9

     total cpu time spent up to now is        3.0 secs

     total energy              =    -608.10215956 Ry
     Harris-Foulkes estimate   =    -608.80739040 Ry
     estimated scf accuracy    <       1.46678464 Ry

     iteration #  3     ecut=    70.00 Ry     beta=0.70
     Davidson diagonalization with overlap
     ethr =  2.29E-03,  avg # of iterations =  2.0

     total cpu time spent up to now is        4.1 secs

     total energy              =    -608.39106928 Ry
     Harris-Foulkes estimate   =    -608.39175021 Ry
     estimated scf accuracy    <       0.00681814 Ry

     iteration #  4     ecut=    70.00 Ry     beta=0.70
     Davidson diagonalization with overlap
     ethr =  1.07E-05,  avg # of iterations =  2.0

     total cpu time spent up to now is        5.3 secs

     total energy              =    -608.39257181 Ry
     Harris-Foulkes estimate   =    -608.39261646 Ry
     estimated scf accuracy    <       0.00011163 Ry

     iteration #  5     ecut=    70.00 Ry     beta=0.70
     Davidson diagonalization with overlap
     ethr =  1.74E-07,  avg # of iterations =  1.7

     total cpu time spent up to now is        6.2 secs

     total energy              =    -608.39257950 Ry
     Harris-Foulkes estimate   =    -608.39257786 Ry
     estimated scf accuracy    <       0.00001038 Ry

     iteration #  6     ecut=    70.00 Ry     beta=0.70
     Davidson diagonalization with overlap
     ethr =  1.62E-08,  avg # of iterations =  2.0

     total cpu time spent up to now is        7.5 secs

     total energy              =    -608.39258097 Ry
     Harris-Foulkes estimate   =    -608.39258148 Ry
     estimated scf accuracy    <       0.00000121 Ry

     iteration #  7     ecut=    70.00 Ry     beta=0.70
     Davidson diagonalization with overlap
     ethr =  1.88E-09,  avg # of iterations =  2.0

     total cpu time spent up to now is        8.6 secs

     total energy              =    -608.39258103 Ry
     Harris-Foulkes estimate   =    -608.39258114 Ry
     estimated scf accuracy    <       0.00000028 Ry

     iteration #  8     ecut=    70.00 Ry     beta=0.70
     Davidson diagonalization with overlap
     ethr =  4.37E-10,  avg # of iterations =  2.0

     total cpu time spent up to now is        9.6 secs

     total energy              =    -608.39258103 Ry
     Harris-Foulkes estimate   =    -608.39258106 Ry
     estimated scf accuracy    <       0.00000005 Ry

     iteration #  9     ecut=    70.00 Ry     beta=0.70
     Davidson diagonalization with overlap
     ethr =  7.90E-11,  avg # of iterations =  2.0

     total cpu time spent up to now is       10.9 secs

     End of self-consistent calculation

          k = 0.0000 0.0000 0.0000 (  5169 PWs)   bands (ev):

   -64.9225 -64.9134 -64.9133 -64.9125 -31.7171 -31.7171 -31.7156 -31.6808
   -31.6808 -31.6802 -31.6802 -31.6791 -31.6790 -31.6538 -31.6538 -31.6502
    -9.4052  -7.9725  -7.9724  -7.9650   3.7097   3.7097   3.7191   6.3125
     6.3126   6.3149   6.3153   6.3329   6.3329   7.6004   7.6069   7.6069

          k = 0.0000 0.0000 0.2500 (  5189 PWs)   bands (ev):

   -64.9211 -64.9145 -64.9133 -64.9127 -31.7113 -31.7092 -31.7085 -31.6863
   -31.6839 -31.6813 -31.6809 -31.6766 -31.6748 -31.6672 -31.6592 -31.6576
    -9.1995  -8.1848  -7.9437  -7.9384   3.9983   4.0071   4.0441   5.7945
     5.7993   6.1086   6.1224   6.4771   6.4936   6.5948   7.3795   7.3884

          k = 0.0000 0.0000-0.5000 (  5174 PWs)   bands (ev):

   -64.9180 -64.9176 -64.9133 -64.9127 -31.6982 -31.6980 -31.6949 -31.6947
   -31.6888 -31.6888 -31.6818 -31.6818 -31.6678 -31.6676 -31.6664 -31.6662
    -8.6959  -8.6956  -7.9132  -7.9131   4.7912   4.7916   4.7993   4.7997
     5.0666   5.0669   5.9193   5.9196   6.9004   6.9006   6.9136   6.9138

          k = 0.0000 0.2507 0.0000 (  5185 PWs)   bands (ev):

   -64.9211 -64.9145 -64.9133 -64.9127 -31.7112 -31.7112 -31.7058 -31.6859
   -31.6859 -31.6798 -31.6798 -31.6771 -31.6771 -31.6640 -31.6591 -31.6591
    -9.1979  -8.1776  -7.9440  -7.9439   4.0002   4.0002   4.0497   5.8101
     5.8102   6.1041   6.1044   6.4754   6.4755   6.5893   7.3847   7.3847

          k = 0.0000 0.2507 0.2500 (  5181 PWs)   bands (ev):

   -64.9200 -64.9145 -64.9141 -64.9131 -31.7075 -31.7065 -31.7065 -31.6937
   -31.6817 -31.6812 -31.6795 -31.6743 -31.6741 -31.6728 -31.6634 -31.6559
    -9.0104  -8.1203  -8.1151  -7.9483   4.1110   4.1133   4.2783   5.0186
     5.7823   5.9925   6.0062   6.4186   6.4235   6.5266   7.1111   7.4393

          k = 0.0000 0.2507-0.5000 (  5180 PWs)   bands (ev):

   -64.9173 -64.9169 -64.9140 -64.9134 -31.7031 -31.7030 -31.6967 -31.6967
   -31.6942 -31.6940 -31.6728 -31.6726 -31.6712 -31.6712 -31.6621 -31.6619
    -8.5603  -8.5601  -8.0024  -8.0023   4.3674   4.3676   4.6947   4.6949
     5.0407   5.0411   6.4927   6.4930   6.5208   6.5210   7.0284   7.0285

          k = 0.0000-0.5014 0.0000 (  5142 PWs)   bands (ev):

   -64.9180 -64.9175 -64.9133 -64.9128 -31.6977 -31.6977 -31.6969 -31.6968
   -31.6877 -31.6869 -31.6764 -31.6763 -31.6683 -31.6683 -31.6677 -31.6677
    -8.6984  -8.6830  -7.9151  -7.9150   4.7871   4.7871   4.8113   4.8114
     5.0593   5.0689   5.9060   5.9063   6.8945   6.8945   6.9093   6.9094

          k = 0.0000-0.5014 0.2500 (  5178 PWs)   bands (ev):

   -64.9173 -64.9169 -64.9140 -64.9134 -31.7036 -31.7031 -31.6964 -31.6959
   -31.6940 -31.6933 -31.6735 -31.6729 -31.6704 -31.6700 -31.6631 -31.6630
    -8.5637  -8.5501  -8.0055  -8.0028   4.3626   4.3721   4.6873   4.6980
     5.0349   5.0584   6.4803   6.4889   6.5044   6.5216   7.0292   7.0336

          k = 0.0000-0.5014-0.5000 (  5216 PWs)   bands (ev):

   -64.9157 -64.9157 -64.9156 -64.9146 -31.7053 -31.7051 -31.7048 -31.7048
   -31.6848 -31.6846 -31.6841 -31.6839 -31.6636 -31.6635 -31.6632 -31.6631
    -8.2625  -8.2623  -8.2539  -8.2538   4.2367   4.2369   4.2408   4.2409
     5.7016   5.7019   5.7226   5.7230   6.9991   6.9993   7.0062   7.0064

          k = 0.2500 0.0000 0.0000 (  5189 PWs)   bands (ev):

   -64.9211 -64.9145 -64.9133 -64.9127 -31.7113 -31.7092 -31.7085 -31.6864
   -31.6839 -31.6813 -31.6809 -31.6766 -31.6748 -31.6671 -31.6592 -31.6576
    -9.1995  -8.1848  -7.9437  -7.9384   3.9983   4.0071   4.0441   5.7945
     5.7994   6.1085   6.1224   6.4770   6.4935   6.5948   7.3795   7.3885

          k = 0.2500 0.0000 0.2500 (  5179 PWs)   bands (ev):

   -64.9200 -64.9145 -64.9141 -64.9130 -31.7076 -31.7075 -31.7047 -31.6947
   -31.6800 -31.6800 -31.6800 -31.6755 -31.6741 -31.6739 -31.6614 -31.6569
    -9.0118  -8.1205  -8.1204  -7.9448   4.1128   4.1128   4.2850   5.0184
     5.7908   5.9951   5.9955   6.4320   6.4320   6.5170   7.1049   7.4405

          k = 0.2500 0.0000-0.5000 (  5178 PWs)   bands (ev):

   -64.9173 -64.9169 -64.9140 -64.9134 -31.7038 -31.7036 -31.6974 -31.6974
   -31.6922 -31.6920 -31.6717 -31.6716 -31.6710 -31.6708 -31.6637 -31.6636
    -8.5612  -8.5610  -8.0034  -8.0033   4.3714   4.3717   4.7013   4.7015
     5.0457   5.0462   6.4859   6.4862   6.5126   6.5129   7.0332   7.0333

          k = 0.2500 0.2507 0.0000 (  5181 PWs)   bands (ev):

   -64.9200 -64.9145 -64.9141 -64.9131 -31.7075 -31.7065 -31.7065 -31.6936
   -31.6817 -31.6813 -31.6795 -31.6743 -31.6741 -31.6728 -31.6634 -31.6559
    -9.0104  -8.1203  -8.1151  -7.9483   4.1110   4.1133   4.2783   5.0186
     5.7822   5.9925   6.0062   6.4185   6.4235   6.5266   7.1111   7.4393

          k = 0.2500 0.2507 0.2500 (  5176 PWs)   bands (ev):

   -64.9190 -64.9145 -64.9145 -64.9137 -31.7115 -31.7113 -31.7106 -31.6929
   -31.6805 -31.6804 -31.6801 -31.6717 -31.6706 -31.6706 -31.6601 -31.6583
    -8.8429  -8.0874  -8.0873  -8.0836   3.9519   3.9530   3.9530   5.0316
     5.7883   5.7884   5.7927   6.6391   6.6472   6.6474   7.2899   7.2911

          k = 0.2500 0.2507-0.5000 (  5160 PWs)   bands (ev):

   -64.9168 -64.9164 -64.9145 -64.9138 -31.7144 -31.7142 -31.7073 -31.7072
   -31.6793 -31.6791 -31.6685 -31.6684 -31.6656 -31.6655 -31.6641 -31.6639
    -8.4514  -8.4511  -8.0529  -8.0528   3.7751   3.7752   4.1483   4.1485
     5.7744   5.7745   6.6802   6.6804   6.8061   6.8063   6.9550   6.9552

          k = 0.2500-0.5014 0.0000 (  5178 PWs)   bands (ev):

   -64.9173 -64.9169 -64.9140 -64.9134 -31.7036 -31.7031 -31.6964 -31.6959
   -31.6940 -31.6933 -31.6735 -31.6729 -31.6704 -31.6700 -31.6631 -31.6630
    -8.5637  -8.5501  -8.0055  -8.0028   4.3626   4.3721   4.6873   4.6980
     5.0349   5.0584   6.4803   6.4890   6.5044   6.5216   7.0292   7.0336

          k = 0.2500-0.5014 0.2500 (  5162 PWs)   bands (ev):

   -64.9168 -64.9164 -64.9145 -64.9139 -31.7145 -31.7144 -31.7071 -31.7070
   -31.6803 -31.6800 -31.6672 -31.6671 -31.6661 -31.6656 -31.6646 -31.6644
    -8.4543  -8.4428  -8.0538  -8.0537   3.7744   3.7745   4.1384   4.1496
     5.7747   5.7748   6.6780   6.6782   6.8079   6.8126   6.9448   6.9556

          k = 0.2500-0.5014-0.5000 (  5168 PWs)   bands (ev):

   -64.9157 -64.9157 -64.9156 -64.9146 -31.7177 -31.7174 -31.7174 -31.7174
   -31.6709 -31.6707 -31.6706 -31.6704 -31.6624 -31.6623 -31.6620 -31.6620
    -8.2248  -8.2246  -8.2186  -8.2185   3.5897   3.5898   3.5954   3.5955
     6.4576   6.4578   6.4698   6.4700   7.0012   7.0014   7.0062   7.0064

          k =-0.5000 0.0000 0.0000 (  5174 PWs)   bands (ev):

   -64.9180 -64.9176 -64.9133 -64.9127 -31.6982 -31.6980 -31.6949 -31.6947
   -31.6888 -31.6887 -31.6818 -31.6818 -31.6678 -31.6676 -31.6664 -31.6662
    -8.6958  -8.6957  -7.9132  -7.9131   4.7914   4.7914   4.7995   4.7995
     5.0666   5.0669   5.9192   5.9196   6.9004   6.9005   6.9137   6.9137

          k =-0.5000 0.0000 0.2500 (  5178 PWs)   bands (ev):

   -64.9173 -64.9169 -64.9140 -64.9134 -31.7038 -31.7036 -31.6974 -31.6974
   -31.6922 -31.6920 -31.6717 -31.6716 -31.6710 -31.6708 -31.6637 -31.6636
    -8.5611  -8.5610  -8.0034  -8.0033   4.3715   4.3716   4.7013   4.7015
     5.0459   5.0460   6.4859   6.4861   6.5127   6.5128   7.0333   7.0333

          k =-0.5000 0.0000-0.5000 (  5216 PWs)   bands (ev):

   -64.9157 -64.9157 -64.9157 -64.9146 -31.7055 -31.7053 -31.7051 -31.7051
   -31.6830 -31.6828 -31.6828 -31.6825 -31.6647 -31.6645 -31.6644 -31.6644
    -8.2602  -8.2601  -8.2600  -8.2599   4.2495   4.2496   4.2496   4.2498
     5.7109   5.7109   5.7114   5.7115   6.9983   6.9985   6.9985   6.9987

          k =-0.5000 0.2507 0.0000 (  5180 PWs)   bands (ev):

   -64.9173 -64.9169 -64.9140 -64.9134 -31.7031 -31.7030 -31.6967 -31.6966
   -31.6942 -31.6940 -31.6729 -31.6726 -31.6712 -31.6712 -31.6621 -31.6619
    -8.5602  -8.5601  -8.0024  -8.0023   4.3675   4.3675   4.6947   4.6949
     5.0409   5.0410   6.4927   6.4930   6.5209   6.5209   7.0284   7.0285

          k =-0.5000 0.2507 0.2500 (  5160 PWs)   bands (ev):

   -64.9168 -64.9164 -64.9145 -64.9138 -31.7144 -31.7142 -31.7073 -31.7072
   -31.6793 -31.6791 -31.6685 -31.6684 -31.6657 -31.6655 -31.6641 -31.6639
    -8.4513  -8.4512  -8.0529  -8.0528   3.7751   3.7752   4.1483   4.1485
     5.7744   5.7745   6.6801   6.6804   6.8062   6.8063   6.9551   6.9551

          k =-0.5000 0.2507-0.5000 (  5180 PWs)   bands (ev):

   -64.9157 -64.9156 -64.9156 -64.9146 -31.7181 -31.7178 -31.7178 -31.7178
   -31.6699 -31.6696 -31.6696 -31.6695 -31.6636 -31.6634 -31.6633 -31.6633
    -8.2228  -8.2227  -8.2226  -8.2225   3.5960   3.5961   3.5961   3.5962
     6.4669   6.4669   6.4672   6.4672   6.9994   6.9996   6.9996   6.9998

          k =-0.5000-0.5014 0.0000 (  5216 PWs)   bands (ev):

   -64.9157 -64.9157 -64.9156 -64.9146 -31.7053 -31.7051 -31.7048 -31.7048
   -31.6848 -31.6846 -31.6842 -31.6839 -31.6636 -31.6635 -31.6632 -31.6631
    -8.2625  -8.2624  -8.2539  -8.2538   4.2367   4.2368   4.2408   4.2409
     5.7017   5.7018   5.7228   5.7228   6.9991   6.9993   7.0062   7.0064

          k =-0.5000-0.5014 0.2500 (  5168 PWs)   bands (ev):

   -64.9157 -64.9156 -64.9156 -64.9146 -31.7177 -31.7174 -31.7174 -31.7174
   -31.6710 -31.6707 -31.6706 -31.6704 -31.6624 -31.6622 -31.6620 -31.6620
    -8.2248  -8.2247  -8.2186  -8.2185   3.5897   3.5898   3.5954   3.5955
     6.4577   6.4577   6.4699   6.4699   7.0012   7.0014   7.0062   7.0064

          k =-0.5000-0.5014-0.5000 (  5232 PWs)   bands (ev):

   -64.9156 -64.9156 -64.9156 -64.9146 -31.7270 -31.7268 -31.7268 -31.7267
   -31.6644 -31.6642 -31.6641 -31.6641 -31.6629 -31.6627 -31.6627 -31.6626
    -8.1848  -8.1847  -8.1847  -8.1846   3.1734   3.1735   3.1735   3.1735
     7.0001   7.0002   7.0002   7.0004   7.0055   7.0056   7.0058   7.0058

     highest occupied level (ev):     7.6069

!    total energy              =    -608.39258104 Ry
     Harris-Foulkes estimate   =    -608.39258104 Ry
     estimated scf accuracy    <          2.5E-09 Ry

     The total energy is the sum of the following terms:

     one-electron contribution =    -304.66991493 Ry
     hartree contribution      =     168.43997418 Ry
     xc contribution           =     -97.82314570 Ry
     ewald contribution        =    -374.33949459 Ry

     convergence has been achieved in   9 iterations

     Forces acting on atoms (cartesian axes, Ry/au):

     atom    1 type  1   force =     0.00000000    0.00155873    0.00000000
     atom    2 type  1   force =     0.00000000   -0.00152915    0.00000000
     atom    3 type  1   force =     0.00000000    0.00156035    0.00000000
     atom    4 type  1   force =     0.00000000   -0.00152858    0.00000000
     atom    5 type  2   force =     0.00000000    0.00178037    0.00000000
     atom    6 type  2   force =     0.00000000   -0.00180447    0.00000000
     atom    7 type  2   force =     0.00000000    0.00177608    0.00000000
     atom    8 type  2   force =     0.00000000   -0.00181333    0.00000000

     Total force =     0.004734     Total SCF correction =     0.000045


     Computing stress (Cartesian axis) and pressure

          total   stress  (Ry/bohr**3)                   (kbar)     P=  -76.21
  -0.00052916   0.00000000   0.00000000        -77.84      0.00      0.00
   0.00000000  -0.00049601   0.00000000          0.00    -72.97      0.00
   0.00000000   0.00000000  -0.00052902          0.00      0.00    -77.82


     BFGS Geometry Optimization

     number of scf cycles    =   1
     number of bfgs steps    =   0

     energy   new            =    -608.3925810386 Ry

     new trust radius        =       0.0018133292 bohr
     new conv_thr            =       0.0000000100 Ry


ATOMIC_POSITIONS (alat)
Mg       0.000000000   0.000193205   0.000000000
Mg       0.000000000   0.499810461   0.500000000
Mg       0.500000000   0.000193406   0.500000000
Mg       0.500000000   0.499810532   0.000000000
O        0.500000000   0.000220678   0.000000000
O        0.000000000   0.499776335   0.000000000
O        0.000000000   0.000220147   0.500000000
O        0.500000000   0.499775237   0.500000000



     Writing output data file diamond.8.06773385075.70.4.save
     NEW-OLD atomic charge density approx. for the potential

     Check: negative/imaginary core charge=   -0.000007    0.000000

     total cpu time spent up to now is       11.6 secs

     per-process dynamical memory:    50.7 Mb

     Self-consistent Calculation

     iteration #  1     ecut=    70.00 Ry     beta=0.70
     Davidson diagonalization with overlap
     ethr =  1.00E-06,  avg # of iterations =  3.0

     Threshold (ethr) on eigenvalues was too large:
     Diagonalizing with lowered threshold

     Davidson diagonalization with overlap
     ethr =  6.23E-09,  avg # of iterations =  1.7

     total cpu time spent up to now is       14.1 secs

     total energy              =    -608.39259866 Ry
     Harris-Foulkes estimate   =    -608.39260166 Ry
     estimated scf accuracy    <       0.00000409 Ry

     iteration #  2     ecut=    70.00 Ry     beta=0.70
     Davidson diagonalization with overlap
     ethr =  6.39E-09,  avg # of iterations =  2.2

     total cpu time spent up to now is       15.2 secs

     total energy              =    -608.39259989 Ry
     Harris-Foulkes estimate   =    -608.39260031 Ry
     estimated scf accuracy    <       0.00000069 Ry

     iteration #  3     ecut=    70.00 Ry     beta=0.70
     Davidson diagonalization with overlap
     ethr =  1.08E-09,  avg # of iterations =  2.0

     total cpu time spent up to now is       16.3 secs

     End of self-consistent calculation

          k = 0.0000 0.0000 0.0000 (  5169 PWs)   bands (ev):

   -64.9228 -64.9137 -64.9136 -64.9128 -31.7174 -31.7174 -31.7159 -31.6811
   -31.6811 -31.6804 -31.6804 -31.6793 -31.6793 -31.6541 -31.6541 -31.6505
    -9.4051  -7.9723  -7.9723  -7.9649   3.7098   3.7098   3.7191   6.3127
     6.3127   6.3150   6.3154   6.3330   6.3330   7.6005   7.6070   7.6070

          k = 0.0000 0.0000 0.2500 (  5189 PWs)   bands (ev):

   -64.9215 -64.9149 -64.9136 -64.9130 -31.7115 -31.7094 -31.7088 -31.6866
   -31.6842 -31.6816 -31.6812 -31.6769 -31.6751 -31.6674 -31.6594 -31.6579
    -9.1993  -8.1847  -7.9436  -7.9383   3.9984   4.0071   4.0442   5.7946
     5.7994   6.1087   6.1225   6.4771   6.4936   6.5949   7.3796   7.3885

          k = 0.0000 0.0000-0.5000 (  5174 PWs)   bands (ev):

   -64.9184 -64.9179 -64.9136 -64.9130 -31.6985 -31.6983 -31.6952 -31.6950
   -31.6891 -31.6890 -31.6821 -31.6820 -31.6681 -31.6678 -31.6667 -31.6665
    -8.6958  -8.6954  -7.9131  -7.9129   4.7913   4.7918   4.7993   4.7998
     5.0667   5.0670   5.9194   5.9198   6.9004   6.9007   6.9137   6.9139

          k = 0.0000 0.2507 0.0000 (  5185 PWs)   bands (ev):

   -64.9214 -64.9148 -64.9137 -64.9130 -31.7114 -31.7114 -31.7060 -31.6861
   -31.6861 -31.6801 -31.6800 -31.6774 -31.6774 -31.6643 -31.6594 -31.6593
    -9.1977  -8.1775  -7.9438  -7.9438   4.0003   4.0003   4.0498   5.8102
     5.8102   6.1042   6.1045   6.4756   6.4756   6.5894   7.3848   7.3848

          k = 0.0000 0.2507 0.2500 (  5181 PWs)   bands (ev):

   -64.9203 -64.9148 -64.9144 -64.9134 -31.7077 -31.7068 -31.7067 -31.6939
   -31.6820 -31.6815 -31.6797 -31.6745 -31.6743 -31.6731 -31.6637 -31.6562
    -9.0102  -8.1202  -8.1150  -7.9482   4.1111   4.1134   4.2784   5.0187
     5.7824   5.9926   6.0063   6.4187   6.4236   6.5266   7.1112   7.4394

          k = 0.0000 0.2507-0.5000 (  5180 PWs)   bands (ev):

   -64.9177 -64.9172 -64.9143 -64.9137 -31.7034 -31.7032 -31.6970 -31.6969
   -31.6945 -31.6943 -31.6731 -31.6729 -31.6715 -31.6715 -31.6624 -31.6622
    -8.5602  -8.5599  -8.0023  -8.0021   4.3674   4.3677   4.6948   4.6950
     5.0408   5.0413   6.4928   6.4931   6.5208   6.5211   7.0285   7.0286

          k = 0.0000-0.5014 0.0000 (  5142 PWs)   bands (ev):

   -64.9183 -64.9178 -64.9137 -64.9131 -31.6978 -31.6978 -31.6972 -31.6972
   -31.6879 -31.6873 -31.6766 -31.6766 -31.6685 -31.6685 -31.6681 -31.6681
    -8.6960  -8.6853  -7.9150  -7.9149   4.7908   4.7909   4.8078   4.8078
     5.0608   5.0675   5.9061   5.9064   6.8969   6.8969   6.9072   6.9072

          k = 0.0000-0.5014 0.2500 (  5178 PWs)   bands (ev):

   -64.9176 -64.9172 -64.9143 -64.9137 -31.7038 -31.7034 -31.6966 -31.6962
   -31.6942 -31.6936 -31.6737 -31.6732 -31.6706 -31.6703 -31.6634 -31.6633
    -8.5615  -8.5520  -8.0049  -8.0031   4.3641   4.3708   4.6890   4.6964
     5.0385   5.0550   6.4817   6.4877   6.5071   6.5191   7.0300   7.0331

          k = 0.0000-0.5014-0.5000 (  5216 PWs)   bands (ev):

   -64.9160 -64.9160 -64.9159 -64.9149 -31.7055 -31.7053 -31.7051 -31.7051
   -31.6850 -31.6848 -31.6845 -31.6842 -31.6639 -31.6637 -31.6635 -31.6634
    -8.2611  -8.2609  -8.2552  -8.2549   4.2375   4.2376   4.2402   4.2403
     5.7048   5.7052   5.7195   5.7199   7.0003   7.0005   7.0052   7.0054

          k = 0.2500 0.0000 0.0000 (  5189 PWs)   bands (ev):

   -64.9215 -64.9149 -64.9136 -64.9130 -31.7115 -31.7094 -31.7088 -31.6866
   -31.6842 -31.6816 -31.6812 -31.6769 -31.6751 -31.6674 -31.6594 -31.6579
    -9.1993  -8.1847  -7.9436  -7.9383   3.9984   4.0071   4.0442   5.7946
     5.7995   6.1086   6.1225   6.4771   6.4936   6.5949   7.3796   7.3886

          k = 0.2500 0.0000 0.2500 (  5179 PWs)   bands (ev):

   -64.9203 -64.9148 -64.9144 -64.9134 -31.7079 -31.7077 -31.7050 -31.6950
   -31.6803 -31.6803 -31.6802 -31.6758 -31.6744 -31.6742 -31.6617 -31.6571
    -9.0117  -8.1204  -8.1203  -7.9446   4.1129   4.1129   4.2850   5.0185
     5.7908   5.9952   5.9956   6.4321   6.4321   6.5171   7.1050   7.4406

          k = 0.2500 0.0000-0.5000 (  5178 PWs)   bands (ev):

   -64.9177 -64.9172 -64.9143 -64.9137 -31.7040 -31.7039 -31.6977 -31.6976
   -31.6925 -31.6922 -31.6719 -31.6719 -31.6713 -31.6711 -31.6640 -31.6639
    -8.5611  -8.5608  -8.0033  -8.0032   4.3715   4.3718   4.7014   4.7016
     5.0457   5.0462   6.4863   6.4866   6.5124   6.5126   7.0333   7.0334

          k = 0.2500 0.2507 0.0000 (  5181 PWs)   bands (ev):

   -64.9203 -64.9148 -64.9144 -64.9134 -31.7077 -31.7068 -31.7067 -31.6939
   -31.6820 -31.6815 -31.6797 -31.6745 -31.6743 -31.6731 -31.6637 -31.6562
    -9.0102  -8.1202  -8.1150  -7.9482   4.1111   4.1134   4.2784   5.0187
     5.7824   5.9927   6.0063   6.4187   6.4236   6.5266   7.1112   7.4394

          k = 0.2500 0.2507 0.2500 (  5176 PWs)   bands (ev):

   -64.9193 -64.9148 -64.9148 -64.9140 -31.7118 -31.7116 -31.7108 -31.6932
   -31.6807 -31.6806 -31.6803 -31.6720 -31.6709 -31.6709 -31.6604 -31.6586
    -8.8428  -8.0873  -8.0872  -8.0835   3.9519   3.9530   3.9531   5.0317
     5.7884   5.7885   5.7928   6.6392   6.6473   6.6474   7.2900   7.2912

          k = 0.2500 0.2507-0.5000 (  5160 PWs)   bands (ev):

   -64.9172 -64.9168 -64.9148 -64.9142 -31.7146 -31.7145 -31.7076 -31.7075
   -31.6796 -31.6793 -31.6687 -31.6687 -31.6659 -31.6658 -31.6644 -31.6642
    -8.4513  -8.4510  -8.0528  -8.0526   3.7752   3.7752   4.1484   4.1486
     5.7745   5.7746   6.6803   6.6806   6.8062   6.8064   6.9551   6.9553

          k = 0.2500-0.5014 0.0000 (  5178 PWs)   bands (ev):

   -64.9176 -64.9172 -64.9143 -64.9137 -31.7038 -31.7034 -31.6966 -31.6962
   -31.6942 -31.6936 -31.6737 -31.6732 -31.6706 -31.6703 -31.6634 -31.6632
    -8.5615  -8.5520  -8.0049  -8.0031   4.3640   4.3708   4.6890   4.6964
     5.0385   5.0550   6.4817   6.4877   6.5071   6.5191   7.0300   7.0331

          k = 0.2500-0.5014 0.2500 (  5162 PWs)   bands (ev):

   -64.9171 -64.9167 -64.9148 -64.9142 -31.7148 -31.7146 -31.7074 -31.7072
   -31.6805 -31.6803 -31.6674 -31.6674 -31.6663 -31.6659 -31.6648 -31.6647
    -8.4525  -8.4444  -8.0537  -8.0536   3.7745   3.7745   4.1402   4.1479
     5.7749   5.7749   6.6781   6.6783   6.8087   6.8120   6.9466   6.9541

          k = 0.2500-0.5014-0.5000 (  5168 PWs)   bands (ev):

   -64.9160 -64.9160 -64.9159 -64.9149 -31.7179 -31.7177 -31.7177 -31.7176
   -31.6712 -31.6710 -31.6709 -31.6707 -31.6627 -31.6625 -31.6623 -31.6623
    -8.2238  -8.2236  -8.2195  -8.2193   3.5907   3.5907   3.5946   3.5947
     6.4596   6.4598   6.4681   6.4683   7.0021   7.0023   7.0056   7.0057

          k =-0.5000 0.0000 0.0000 (  5174 PWs)   bands (ev):

   -64.9184 -64.9179 -64.9136 -64.9130 -31.6985 -31.6983 -31.6952 -31.6950
   -31.6891 -31.6890 -31.6821 -31.6820 -31.6681 -31.6679 -31.6667 -31.6665
    -8.6956  -8.6955  -7.9131  -7.9130   4.7915   4.7915   4.7996   4.7996
     5.0667   5.0670   5.9194   5.9197   6.9005   6.9005   6.9138   6.9138

          k =-0.5000 0.0000 0.2500 (  5178 PWs)   bands (ev):

   -64.9177 -64.9172 -64.9143 -64.9137 -31.7040 -31.7039 -31.6977 -31.6976
   -31.6925 -31.6922 -31.6719 -31.6719 -31.6713 -31.6711 -31.6640 -31.6639
    -8.5610  -8.5609  -8.0033  -8.0032   4.3716   4.3717   4.7014   4.7016
     5.0460   5.0460   6.4864   6.4866   6.5125   6.5125   7.0334   7.0334

          k =-0.5000 0.0000-0.5000 (  5216 PWs)   bands (ev):

   -64.9160 -64.9160 -64.9160 -64.9149 -31.7057 -31.7055 -31.7054 -31.7054
   -31.6833 -31.6831 -31.6831 -31.6828 -31.6650 -31.6648 -31.6647 -31.6646
    -8.2601  -8.2600  -8.2598  -8.2598   4.2496   4.2497   4.2497   4.2498
     5.7109   5.7110   5.7115   5.7115   6.9985   6.9986   6.9986   6.9988

          k =-0.5000 0.2507 0.0000 (  5180 PWs)   bands (ev):

   -64.9177 -64.9172 -64.9143 -64.9137 -31.7034 -31.7032 -31.6969 -31.6969
   -31.6945 -31.6943 -31.6731 -31.6729 -31.6715 -31.6715 -31.6624 -31.6622
    -8.5601  -8.5600  -8.0022  -8.0022   4.3675   4.3676   4.6948   4.6950
     5.0410   5.0411   6.4928   6.4931   6.5210   6.5210   7.0285   7.0286

          k =-0.5000 0.2507 0.2500 (  5160 PWs)   bands (ev):

   -64.9172 -64.9168 -64.9148 -64.9142 -31.7146 -31.7145 -31.7076 -31.7075
   -31.6796 -31.6794 -31.6687 -31.6687 -31.6659 -31.6658 -31.6644 -31.6642
    -8.4511  -8.4511  -8.0528  -8.0527   3.7752   3.7752   4.1484   4.1485
     5.7745   5.7745   6.6803   6.6805   6.8062   6.8064   6.9552   6.9552

          k =-0.5000 0.2507-0.5000 (  5180 PWs)   bands (ev):

   -64.9160 -64.9160 -64.9160 -64.9149 -31.7184 -31.7181 -31.7181 -31.7181
   -31.6701 -31.6699 -31.6699 -31.6697 -31.6639 -31.6637 -31.6636 -31.6636
    -8.2227  -8.2226  -8.2224  -8.2224   3.5961   3.5962   3.5962   3.5962
     6.4670   6.4670   6.4673   6.4673   6.9996   6.9997   6.9997   6.9999

          k =-0.5000-0.5014 0.0000 (  5216 PWs)   bands (ev):

   -64.9160 -64.9160 -64.9159 -64.9149 -31.7055 -31.7053 -31.7051 -31.7051
   -31.6850 -31.6848 -31.6845 -31.6842 -31.6639 -31.6637 -31.6635 -31.6634
    -8.2610  -8.2610  -8.2551  -8.2550   4.2374   4.2376   4.2402   4.2403
     5.7050   5.7050   5.7197   5.7197   7.0003   7.0005   7.0052   7.0054

          k =-0.5000-0.5014 0.2500 (  5168 PWs)   bands (ev):

   -64.9160 -64.9160 -64.9159 -64.9149 -31.7179 -31.7177 -31.7177 -31.7176
   -31.6712 -31.6710 -31.6709 -31.6707 -31.6627 -31.6625 -31.6623 -31.6623
    -8.2237  -8.2236  -8.2194  -8.2193   3.5906   3.5907   3.5946   3.5947
     6.4596   6.4597   6.4682   6.4682   7.0021   7.0023   7.0056   7.0057

          k =-0.5000-0.5014-0.5000 (  5232 PWs)   bands (ev):

   -64.9160 -64.9160 -64.9160 -64.9149 -31.7273 -31.7270 -31.7270 -31.7270
   -31.6647 -31.6645 -31.6644 -31.6644 -31.6632 -31.6630 -31.6630 -31.6628
    -8.1847  -8.1846  -8.1845  -8.1845   3.1735   3.1736   3.1736   3.1736
     7.0002   7.0003   7.0003   7.0005   7.0057   7.0057   7.0059   7.0060

     highest occupied level (ev):     7.6070

!    total energy              =    -608.39260004 Ry
     Harris-Foulkes estimate   =    -608.39260004 Ry
     estimated scf accuracy    <          5.0E-09 Ry

     The total energy is the sum of the following terms:

     one-electron contribution =    -304.66663998 Ry
     hartree contribution      =     168.43836349 Ry
     xc contribution           =     -97.82310123 Ry
     ewald contribution        =    -374.34122232 Ry

     convergence has been achieved in   3 iterations

     Forces acting on atoms (cartesian axes, Ry/au):

     atom    1 type  1   force =     0.00000000    0.00097317    0.00000000
     atom    2 type  1   force =     0.00000000   -0.00097648    0.00000000
     atom    3 type  1   force =     0.00000000    0.00100532    0.00000000
     atom    4 type  1   force =     0.00000000   -0.00097607    0.00000000
     atom    5 type  2   force =     0.00000000    0.00125298    0.00000000
     atom    6 type  2   force =     0.00000000   -0.00126218    0.00000000
     atom    7 type  2   force =     0.00000000    0.00124842    0.00000000
     atom    8 type  2   force =     0.00000000   -0.00126517    0.00000000

     Total force =     0.003192     Total SCF correction =     0.000237


     Computing stress (Cartesian axis) and pressure

          total   stress  (Ry/bohr**3)                   (kbar)     P=  -76.17
  -0.00052877   0.00000000   0.00000000        -77.78      0.00      0.00
   0.00000000  -0.00049595   0.00000000          0.00    -72.96      0.00
   0.00000000   0.00000000  -0.00052863          0.00      0.00    -77.76


     number of scf cycles    =   2
     number of bfgs steps    =   1

     energy   old            =    -608.3925810386 Ry
     energy   new            =    -608.3926000437 Ry

     CASE: energy  _new < energy  _old

     new trust radius        =       0.0019946621 bohr
     new conv_thr            =       0.0000000002 Ry


ATOMIC_POSITIONS (alat)
Mg       0.000000000   0.000383485   0.000000000
Mg       0.000000000   0.499619555   0.500000000
Mg       0.500000000   0.000389940   0.500000000
Mg       0.500000000   0.499619707   0.000000000
O        0.500000000   0.000465526   0.000000000
O        0.000000000   0.499529682   0.000000000
O        0.000000000   0.000464107   0.500000000
O        0.500000000   0.499527997   0.500000000



     Writing output data file diamond.8.06773385075.70.4.save
     NEW-OLD atomic charge density approx. for the potential

     Check: negative/imaginary core charge=   -0.000007    0.000000

     total cpu time spent up to now is       17.0 secs

     per-process dynamical memory:    50.7 Mb

     Self-consistent Calculation

     iteration #  1     ecut=    70.00 Ry     beta=0.70
     Davidson diagonalization with overlap
     ethr =  1.00E-06,  avg # of iterations =  3.0

     Threshold (ethr) on eigenvalues was too large:
     Diagonalizing with lowered threshold

     Davidson diagonalization with overlap
     ethr =  7.42E-09,  avg # of iterations =  1.6

     total cpu time spent up to now is       19.5 secs

     total energy              =    -608.39261117 Ry
     Harris-Foulkes estimate   =    -608.39261475 Ry
     estimated scf accuracy    <       0.00000488 Ry

     iteration #  2     ecut=    70.00 Ry     beta=0.70
     Davidson diagonalization with overlap
     ethr =  7.62E-09,  avg # of iterations =  2.2

     total cpu time spent up to now is       20.6 secs

     total energy              =    -608.39261265 Ry
     Harris-Foulkes estimate   =    -608.39261314 Ry
     estimated scf accuracy    <       0.00000082 Ry

     iteration #  3     ecut=    70.00 Ry     beta=0.70
     Davidson diagonalization with overlap
     ethr =  1.28E-09,  avg # of iterations =  2.0

     total cpu time spent up to now is       21.7 secs

     total energy              =    -608.39261283 Ry
     Harris-Foulkes estimate   =    -608.39261282 Ry
     estimated scf accuracy    <          5.5E-09 Ry

     iteration #  4     ecut=    70.00 Ry     beta=0.70
     Davidson diagonalization with overlap
     ethr =  8.52E-12,  avg # of iterations =  2.5

     total cpu time spent up to now is       23.0 secs

     total energy              =    -608.39261283 Ry
     Harris-Foulkes estimate   =    -608.39261283 Ry
     estimated scf accuracy    <          8.9E-10 Ry

     iteration #  5     ecut=    70.00 Ry     beta=0.70
     Davidson diagonalization with overlap
     ethr =  1.39E-12,  avg # of iterations =  2.8

     total cpu time spent up to now is       24.2 secs

     End of self-consistent calculation

          k = 0.0000 0.0000 0.0000 (  5169 PWs)   bands (ev):

   -64.9228 -64.9137 -64.9136 -64.9128 -31.7174 -31.7173 -31.7159 -31.6811
   -31.6811 -31.6804 -31.6804 -31.6793 -31.6793 -31.6541 -31.6541 -31.6505
    -9.4051  -7.9724  -7.9723  -7.9649   3.7098   3.7098   3.7191   6.3126
     6.3127   6.3150   6.3153   6.3329   6.3329   7.6005   7.6069   7.6069

          k = 0.0000 0.0000 0.2500 (  5189 PWs)   bands (ev):

   -64.9215 -64.9149 -64.9136 -64.9130 -31.7115 -31.7094 -31.7088 -31.6866
   -31.6842 -31.6816 -31.6812 -31.6769 -31.6751 -31.6674 -31.6594 -31.6579
    -9.1994  -8.1847  -7.9436  -7.9383   3.9984   4.0071   4.0441   5.7946
     5.7994   6.1087   6.1225   6.4771   6.4936   6.5948   7.3796   7.3885

          k = 0.0000 0.0000-0.5000 (  5174 PWs)   bands (ev):

   -64.9184 -64.9179 -64.9136 -64.9130 -31.6985 -31.6982 -31.6952 -31.6949
   -31.6891 -31.6890 -31.6821 -31.6820 -31.6681 -31.6678 -31.6667 -31.6665
    -8.6958  -8.6954  -7.9131  -7.9130   4.7913   4.7918   4.7993   4.7998
     5.0667   5.0669   5.9194   5.9198   6.9004   6.9006   6.9136   6.9138

          k = 0.0000 0.2507 0.0000 (  5185 PWs)   bands (ev):

   -64.9214 -64.9148 -64.9137 -64.9130 -31.7114 -31.7114 -31.7060 -31.6861
   -31.6861 -31.6801 -31.6800 -31.6774 -31.6774 -31.6643 -31.6594 -31.6593
    -9.1977  -8.1776  -7.9439  -7.9438   4.0003   4.0003   4.0497   5.8101
     5.8102   6.1041   6.1045   6.4756   6.4756   6.5894   7.3847   7.3848

          k = 0.0000 0.2507 0.2500 (  5181 PWs)   bands (ev):

   -64.9203 -64.9148 -64.9144 -64.9134 -31.7077 -31.7068 -31.7067 -31.6939
   -31.6820 -31.6815 -31.6797 -31.6745 -31.6743 -31.6731 -31.6637 -31.6562
    -9.0103  -8.1202  -8.1150  -7.9482   4.1111   4.1134   4.2785   5.0187
     5.7824   5.9926   6.0062   6.4188   6.4236   6.5265   7.1111   7.4394

          k = 0.0000 0.2507-0.5000 (  5180 PWs)   bands (ev):

   -64.9177 -64.9172 -64.9143 -64.9137 -31.7034 -31.7032 -31.6969 -31.6969
   -31.6945 -31.6943 -31.6731 -31.6729 -31.6715 -31.6715 -31.6624 -31.6622
    -8.5602  -8.5599  -8.0023  -8.0022   4.3674   4.3677   4.6948   4.6950
     5.0408   5.0413   6.4928   6.4931   6.5208   6.5211   7.0284   7.0285

          k = 0.0000-0.5014 0.0000 (  5142 PWs)   bands (ev):

   -64.9183 -64.9178 -64.9137 -64.9131 -31.6977 -31.6977 -31.6973 -31.6973
   -31.6878 -31.6874 -31.6766 -31.6766 -31.6684 -31.6684 -31.6681 -31.6681
    -8.6935  -8.6878  -7.9150  -7.9149   4.7947   4.7947   4.8039   4.8039
     5.0624   5.0658   5.9061   5.9064   6.8993   6.8993   6.9047   6.9047

          k = 0.0000-0.5014 0.2500 (  5178 PWs)   bands (ev):

   -64.9176 -64.9172 -64.9143 -64.9137 -31.7037 -31.7035 -31.6965 -31.6963
   -31.6941 -31.6937 -31.6737 -31.6733 -31.6705 -31.6704 -31.6634 -31.6632
    -8.5593  -8.5543  -8.0045  -8.0035   4.3655   4.3693   4.6908   4.6945
     5.0423   5.0512   6.4831   6.4863   6.5099   6.5163   7.0307   7.0324

          k = 0.0000-0.5014-0.5000 (  5216 PWs)   bands (ev):

   -64.9160 -64.9160 -64.9159 -64.9149 -31.7055 -31.7053 -31.7051 -31.7051
   -31.6849 -31.6847 -31.6846 -31.6843 -31.6639 -31.6637 -31.6635 -31.6635
    -8.2597  -8.2595  -8.2566  -8.2564   4.2382   4.2383   4.2394   4.2396
     5.7082   5.7086   5.7161   5.7165   7.0015   7.0016   7.0040   7.0042

          k = 0.2500 0.0000 0.0000 (  5189 PWs)   bands (ev):

   -64.9215 -64.9148 -64.9136 -64.9130 -31.7115 -31.7094 -31.7088 -31.6866
   -31.6842 -31.6816 -31.6812 -31.6769 -31.6751 -31.6674 -31.6594 -31.6579
    -9.1994  -8.1847  -7.9436  -7.9383   3.9984   4.0071   4.0442   5.7946
     5.7994   6.1086   6.1225   6.4770   6.4936   6.5948   7.3796   7.3885

          k = 0.2500 0.0000 0.2500 (  5179 PWs)   bands (ev):

   -64.9203 -64.9148 -64.9144 -64.9134 -31.7079 -31.7077 -31.7050 -31.6950
   -31.6803 -31.6803 -31.6802 -31.6758 -31.6744 -31.6742 -31.6617 -31.6571
    -9.0117  -8.1204  -8.1203  -7.9447   4.1129   4.1129   4.2850   5.0185
     5.7908   5.9952   5.9955   6.4320   6.4320   6.5171   7.1050   7.4405

          k = 0.2500 0.0000-0.5000 (  5178 PWs)   bands (ev):

   -64.9177 -64.9172 -64.9143 -64.9137 -31.7040 -31.7039 -31.6977 -31.6976
   -31.6925 -31.6922 -31.6719 -31.6718 -31.6713 -31.6711 -31.6640 -31.6639
    -8.5611  -8.5608  -8.0033  -8.0032   4.3715   4.3718   4.7014   4.7016
     5.0457   5.0461   6.4866   6.4869   6.5121   6.5124   7.0333   7.0334

          k = 0.2500 0.2507 0.0000 (  5181 PWs)   bands (ev):

   -64.9203 -64.9148 -64.9144 -64.9134 -31.7077 -31.7068 -31.7067 -31.6939
   -31.6820 -31.6815 -31.6797 -31.6745 -31.6743 -31.6731 -31.6637 -31.6562
    -9.0102  -8.1202  -8.1150  -7.9482   4.1111   4.1134   4.2784   5.0187
     5.7823   5.9927   6.0062   6.4187   6.4235   6.5265   7.1111   7.4394

          k = 0.2500 0.2507 0.2500 (  5176 PWs)   bands (ev):

   -64.9193 -64.9148 -64.9148 -64.9140 -31.7117 -31.7116 -31.7108 -31.6932
   -31.6807 -31.6806 -31.6803 -31.6720 -31.6709 -31.6709 -31.6604 -31.6586
    -8.8428  -8.0873  -8.0872  -8.0835   3.9519   3.9530   3.9531   5.0317
     5.7883   5.7885   5.7928   6.6392   6.6472   6.6474   7.2900   7.2911

          k = 0.2500 0.2507-0.5000 (  5160 PWs)   bands (ev):

   -64.9172 -64.9168 -64.9148 -64.9142 -31.7146 -31.7145 -31.7076 -31.7075
   -31.6796 -31.6793 -31.6687 -31.6687 -31.6659 -31.6658 -31.6643 -31.6642
    -8.4513  -8.4510  -8.0528  -8.0527   3.7752   3.7752   4.1484   4.1485
     5.7745   5.7745   6.6803   6.6805   6.8062   6.8063   6.9550   6.9552

          k = 0.2500-0.5014 0.0000 (  5178 PWs)   bands (ev):

   -64.9176 -64.9172 -64.9143 -64.9137 -31.7037 -31.7035 -31.6965 -31.6963
   -31.6941 -31.6937 -31.6737 -31.6733 -31.6705 -31.6704 -31.6634 -31.6632
    -8.5593  -8.5543  -8.0045  -8.0035   4.3655   4.3693   4.6908   4.6945
     5.0423   5.0512   6.4831   6.4863   6.5099   6.5163   7.0306   7.0324

          k = 0.2500-0.5014 0.2500 (  5162 PWs)   bands (ev):

   -64.9171 -64.9167 -64.9148 -64.9142 -31.7148 -31.7146 -31.7073 -31.7072
   -31.6805 -31.6803 -31.6674 -31.6674 -31.6662 -31.6660 -31.6648 -31.6647
    -8.4506  -8.4463  -8.0537  -8.0537   3.7745   3.7745   4.1421   4.1460
     5.7748   5.7749   6.6780   6.6783   6.8094   6.8113   6.9483   6.9523

          k = 0.2500-0.5014-0.5000 (  5168 PWs)   bands (ev):

   -64.9160 -64.9160 -64.9159 -64.9149 -31.7179 -31.7177 -31.7176 -31.7176
   -31.6712 -31.6709 -31.6709 -31.6707 -31.6627 -31.6625 -31.6623 -31.6623
    -8.2228  -8.2226  -8.2205  -8.2203   3.5916   3.5917   3.5936   3.5937
     6.4615   6.4617   6.4661   6.4663   7.0029   7.0031   7.0047   7.0049

          k =-0.5000 0.0000 0.0000 (  5174 PWs)   bands (ev):

   -64.9184 -64.9179 -64.9136 -64.9130 -31.6985 -31.6983 -31.6952 -31.6949
   -31.6891 -31.6890 -31.6821 -31.6820 -31.6681 -31.6679 -31.6667 -31.6665
    -8.6956  -8.6956  -7.9131  -7.9130   4.7915   4.7915   4.7995   4.7996
     5.0667   5.0669   5.9194   5.9197   6.9004   6.9005   6.9137   6.9138

          k =-0.5000 0.0000 0.2500 (  5178 PWs)   bands (ev):

   -64.9177 -64.9172 -64.9143 -64.9137 -31.7040 -31.7039 -31.6977 -31.6976
   -31.6925 -31.6922 -31.6719 -31.6718 -31.6713 -31.6711 -31.6640 -31.6639
    -8.5610  -8.5609  -8.0033  -8.0032   4.3716   4.3717   4.7014   4.7016
     5.0459   5.0459   6.4866   6.4868   6.5122   6.5122   7.0333   7.0334

          k =-0.5000 0.0000-0.5000 (  5216 PWs)   bands (ev):

   -64.9160 -64.9160 -64.9160 -64.9149 -31.7057 -31.7055 -31.7054 -31.7054
   -31.6832 -31.6831 -31.6831 -31.6828 -31.6650 -31.6648 -31.6646 -31.6646
    -8.2601  -8.2600  -8.2599  -8.2598   4.2496   4.2497   4.2497   4.2498
     5.7109   5.7110   5.7114   5.7114   6.9984   6.9986   6.9986   6.9988

          k =-0.5000 0.2507 0.0000 (  5180 PWs)   bands (ev):

   -64.9177 -64.9172 -64.9143 -64.9137 -31.7034 -31.7032 -31.6969 -31.6969
   -31.6945 -31.6943 -31.6731 -31.6729 -31.6715 -31.6715 -31.6624 -31.6622
    -8.5601  -8.5600  -8.0023  -8.0022   4.3675   4.3676   4.6947   4.6950
     5.0410   5.0411   6.4928   6.4931   6.5209   6.5209   7.0285   7.0285

          k =-0.5000 0.2507 0.2500 (  5160 PWs)   bands (ev):

   -64.9172 -64.9167 -64.9148 -64.9142 -31.7146 -31.7145 -31.7076 -31.7075
   -31.6796 -31.6793 -31.6687 -31.6687 -31.6659 -31.6658 -31.6643 -31.6642
    -8.4512  -8.4511  -8.0528  -8.0527   3.7752   3.7752   4.1484   4.1485
     5.7745   5.7745   6.6803   6.6805   6.8062   6.8063   6.9551   6.9551

          k =-0.5000 0.2507-0.5000 (  5180 PWs)   bands (ev):

   -64.9160 -64.9160 -64.9160 -64.9149 -31.7183 -31.7181 -31.7181 -31.7181
   -31.6701 -31.6699 -31.6699 -31.6697 -31.6639 -31.6637 -31.6636 -31.6636
    -8.2227  -8.2226  -8.2225  -8.2224   3.5960   3.5962   3.5962   3.5962
     6.4669   6.4670   6.4673   6.4673   6.9995   6.9997   6.9997   6.9999

          k =-0.5000-0.5014 0.0000 (  5216 PWs)   bands (ev):

   -64.9160 -64.9160 -64.9159 -64.9149 -31.7055 -31.7053 -31.7051 -31.7051
   -31.6849 -31.6847 -31.6846 -31.6843 -31.6638 -31.6637 -31.6635 -31.6635
    -8.2597  -8.2596  -8.2565  -8.2564   4.2382   4.2383   4.2394   4.2395
     5.7084   5.7084   5.7163   5.7163   7.0015   7.0016   7.0040   7.0042

          k =-0.5000-0.5014 0.2500 (  5168 PWs)   bands (ev):

   -64.9160 -64.9160 -64.9159 -64.9149 -31.7179 -31.7177 -31.7176 -31.7176
   -31.6712 -31.6709 -31.6709 -31.6707 -31.6627 -31.6625 -31.6623 -31.6623
    -8.2227  -8.2226  -8.2205  -8.2204   3.5916   3.5917   3.5936   3.5936
     6.4616   6.4616   6.4662   6.4662   7.0029   7.0031   7.0047   7.0049

          k =-0.5000-0.5014-0.5000 (  5232 PWs)   bands (ev):

   -64.9160 -64.9160 -64.9160 -64.9149 -31.7273 -31.7270 -31.7270 -31.7270
   -31.6647 -31.6645 -31.6644 -31.6644 -31.6632 -31.6630 -31.6630 -31.6628
    -8.1847  -8.1846  -8.1846  -8.1845   3.1734   3.1736   3.1736   3.1736
     7.0002   7.0003   7.0003   7.0005   7.0056   7.0057   7.0059   7.0059

     highest occupied level (ev):     7.6069

!    total energy              =    -608.39261283 Ry
     Harris-Foulkes estimate   =    -608.39261283 Ry
     estimated scf accuracy    <          1.0E-10 Ry

     The total energy is the sum of the following terms:

     one-electron contribution =    -304.66433222 Ry
     hartree contribution      =     168.43723275 Ry
     xc contribution           =     -97.82309722 Ry
     ewald contribution        =    -374.34241613 Ry

     convergence has been achieved in   5 iterations

     Forces acting on atoms (cartesian axes, Ry/au):

     atom    1 type  1   force =     0.00000000    0.00066322    0.00000000
     atom    2 type  1   force =     0.00000000   -0.00069230    0.00000000
     atom    3 type  1   force =     0.00000000    0.00071695    0.00000000
     atom    4 type  1   force =     0.00000000   -0.00069183    0.00000000
     atom    5 type  2   force =     0.00000000    0.00059216    0.00000000
     atom    6 type  2   force =     0.00000000   -0.00058953    0.00000000
     atom    7 type  2   force =     0.00000000    0.00059266    0.00000000
     atom    8 type  2   force =     0.00000000   -0.00059133    0.00000000

     Total force =     0.001820     Total SCF correction =     0.000102


     Computing stress (Cartesian axis) and pressure

          total   stress  (Ry/bohr**3)                   (kbar)     P=  -76.17
  -0.00052870   0.00000000   0.00000000        -77.77      0.00      0.00
   0.00000000  -0.00049614   0.00000000          0.00    -72.98      0.00
   0.00000000   0.00000000  -0.00052856          0.00      0.00    -77.75


     number of scf cycles    =   3
     number of bfgs steps    =   2

     energy   old            =    -608.3926000437 Ry
     energy   new            =    -608.3926128269 Ry

     CASE: energy  _new < energy  _old

     new trust radius        =       0.0024246474 bohr
     new conv_thr            =       0.0000000001 Ry


ATOMIC_POSITIONS (alat)
Mg       0.000000000   0.000665699   0.000000000
Mg       0.000000000   0.499328803   0.500000000
Mg       0.500000000   0.000690477   0.500000000
Mg       0.500000000   0.499329128   0.000000000
O        0.500000000   0.000755632   0.000000000
O        0.000000000   0.499239421   0.000000000
O        0.000000000   0.000753899   0.500000000
O        0.500000000   0.499236942   0.500000000



     Writing output data file diamond.8.06773385075.70.4.save
     NEW-OLD atomic charge density approx. for the potential

     Check: negative/imaginary core charge=   -0.000007    0.000000

     total cpu time spent up to now is       24.9 secs

     per-process dynamical memory:    50.7 Mb

     Self-consistent Calculation

     iteration #  1     ecut=    70.00 Ry     beta=0.70
     Davidson diagonalization with overlap
     ethr =  1.00E-06,  avg # of iterations =  3.0

     Threshold (ethr) on eigenvalues was too large:
     Diagonalizing with lowered threshold

     Davidson diagonalization with overlap
     ethr =  1.14E-08,  avg # of iterations =  1.1

     total cpu time spent up to now is       27.4 secs

     total energy              =    -608.39261583 Ry
     Harris-Foulkes estimate   =    -608.39262122 Ry
     estimated scf accuracy    <       0.00000738 Ry

     iteration #  2     ecut=    70.00 Ry     beta=0.70
     Davidson diagonalization with overlap
     ethr =  1.15E-08,  avg # of iterations =  2.2

     total cpu time spent up to now is       28.5 secs

     total energy              =    -608.39261806 Ry
     Harris-Foulkes estimate   =    -608.39261881 Ry
     estimated scf accuracy    <       0.00000125 Ry

     iteration #  3     ecut=    70.00 Ry     beta=0.70
     Davidson diagonalization with overlap
     ethr =  1.96E-09,  avg # of iterations =  2.0

     total cpu time spent up to now is       29.5 secs

     total energy              =    -608.39261833 Ry
     Harris-Foulkes estimate   =    -608.39261833 Ry
     estimated scf accuracy    <          9.0E-09 Ry

     iteration #  4     ecut=    70.00 Ry     beta=0.70
     Davidson diagonalization with overlap
     ethr =  1.40E-11,  avg # of iterations =  2.2

     total cpu time spent up to now is       30.8 secs

     total energy              =    -608.39261834 Ry
     Harris-Foulkes estimate   =    -608.39261834 Ry
     estimated scf accuracy    <          6.5E-10 Ry

     iteration #  5     ecut=    70.00 Ry     beta=0.70
     Davidson diagonalization with overlap
     ethr =  1.01E-12,  avg # of iterations =  2.0

     total cpu time spent up to now is       31.9 secs

     End of self-consistent calculation

          k = 0.0000 0.0000 0.0000 (  5169 PWs)   bands (ev):

   -64.9228 -64.9137 -64.9136 -64.9128 -31.7174 -31.7174 -31.7159 -31.6811
   -31.6811 -31.6804 -31.6804 -31.6793 -31.6793 -31.6541 -31.6541 -31.6505
    -9.4051  -7.9724  -7.9723  -7.9649   3.7098   3.7098   3.7191   6.3127
     6.3127   6.3150   6.3153   6.3329   6.3329   7.6005   7.6069   7.6069

          k = 0.0000 0.0000 0.2500 (  5189 PWs)   bands (ev):

   -64.9215 -64.9149 -64.9136 -64.9130 -31.7115 -31.7094 -31.7088 -31.6866
   -31.6842 -31.6816 -31.6812 -31.6769 -31.6751 -31.6674 -31.6594 -31.6579
    -9.1993  -8.1847  -7.9436  -7.9383   3.9984   4.0071   4.0442   5.7946
     5.7994   6.1087   6.1225   6.4770   6.4936   6.5949   7.3796   7.3885

          k = 0.0000 0.0000-0.5000 (  5174 PWs)   bands (ev):

   -64.9184 -64.9179 -64.9136 -64.9130 -31.6985 -31.6983 -31.6952 -31.6949
   -31.6891 -31.6891 -31.6821 -31.6820 -31.6681 -31.6679 -31.6667 -31.6665
    -8.6958  -8.6954  -7.9131  -7.9130   4.7913   4.7918   4.7993   4.7998
     5.0667   5.0670   5.9194   5.9198   6.9004   6.9006   6.9136   6.9139

          k = 0.0000 0.2507 0.0000 (  5185 PWs)   bands (ev):

   -64.9214 -64.9148 -64.9137 -64.9131 -31.7114 -31.7114 -31.7060 -31.6862
   -31.6861 -31.6801 -31.6800 -31.6774 -31.6774 -31.6643 -31.6594 -31.6594
    -9.1977  -8.1776  -7.9438  -7.9438   4.0003   4.0003   4.0497   5.8101
     5.8102   6.1041   6.1045   6.4756   6.4756   6.5894   7.3847   7.3848

          k = 0.0000 0.2507 0.2500 (  5181 PWs)   bands (ev):

   -64.9203 -64.9148 -64.9144 -64.9134 -31.7077 -31.7068 -31.7067 -31.6939
   -31.6820 -31.6815 -31.6797 -31.6745 -31.6743 -31.6731 -31.6637 -31.6562
    -9.0102  -8.1202  -8.1150  -7.9482   4.1111   4.1134   4.2785   5.0187
     5.7824   5.9927   6.0062   6.4188   6.4236   6.5265   7.1111   7.4394

          k = 0.0000 0.2507-0.5000 (  5180 PWs)   bands (ev):

   -64.9177 -64.9172 -64.9143 -64.9137 -31.7034 -31.7032 -31.6970 -31.6969
   -31.6945 -31.6943 -31.6731 -31.6729 -31.6715 -31.6715 -31.6624 -31.6622
    -8.5602  -8.5599  -8.0023  -8.0022   4.3674   4.3677   4.6948   4.6950
     5.0409   5.0413   6.4928   6.4931   6.5208   6.5211   7.0285   7.0285

          k = 0.0000-0.5014 0.0000 (  5142 PWs)   bands (ev):

   -64.9183 -64.9179 -64.9137 -64.9131 -31.6977 -31.6976 -31.6974 -31.6974
   -31.6876 -31.6875 -31.6766 -31.6766 -31.6684 -31.6684 -31.6682 -31.6682
    -8.6909  -8.6904  -7.9150  -7.9149   4.7990   4.7990   4.7997   4.7997
     5.0638   5.0644   5.9061   5.9064   6.9017   6.9017   6.9023   6.9023

          k = 0.0000-0.5014 0.2500 (  5178 PWs)   bands (ev):

   -64.9176 -64.9172 -64.9143 -64.9137 -31.7037 -31.7035 -31.6964 -31.6964
   -31.6940 -31.6938 -31.6736 -31.6734 -31.6705 -31.6704 -31.6634 -31.6633
    -8.5570  -8.5566  -8.0041  -8.0040   4.3673   4.3675   4.6923   4.6930
     5.0464   5.0471   6.4845   6.4849   6.5128   6.5134   7.0315   7.0316

          k = 0.0000-0.5014-0.5000 (  5216 PWs)   bands (ev):

   -64.9160 -64.9160 -64.9160 -64.9150 -31.7055 -31.7053 -31.7051 -31.7051
   -31.6848 -31.6846 -31.6846 -31.6844 -31.6638 -31.6637 -31.6635 -31.6635
    -8.2583  -8.2581  -8.2580  -8.2578   4.2386   4.2387   4.2390   4.2392
     5.7118   5.7121   5.7126   5.7129   7.0025   7.0027   7.0029   7.0031

          k = 0.2500 0.0000 0.0000 (  5189 PWs)   bands (ev):

   -64.9215 -64.9149 -64.9136 -64.9130 -31.7115 -31.7094 -31.7088 -31.6866
   -31.6842 -31.6816 -31.6812 -31.6769 -31.6751 -31.6674 -31.6594 -31.6579
    -9.1993  -8.1847  -7.9436  -7.9383   3.9984   4.0071   4.0442   5.7946
     5.7994   6.1087   6.1225   6.4770   6.4936   6.5948   7.3796   7.3885

          k = 0.2500 0.0000 0.2500 (  5179 PWs)   bands (ev):

   -64.9203 -64.9148 -64.9144 -64.9134 -31.7079 -31.7077 -31.7050 -31.6950
   -31.6803 -31.6803 -31.6802 -31.6758 -31.6744 -31.6742 -31.6617 -31.6572
    -9.0117  -8.1204  -8.1203  -7.9447   4.1129   4.1129   4.2850   5.0186
     5.7908   5.9952   5.9955   6.4320   6.4320   6.5171   7.1050   7.4405

          k = 0.2500 0.0000-0.5000 (  5178 PWs)   bands (ev):

   -64.9177 -64.9172 -64.9143 -64.9137 -31.7040 -31.7039 -31.6977 -31.6976
   -31.6925 -31.6922 -31.6719 -31.6718 -31.6713 -31.6711 -31.6640 -31.6639
    -8.5611  -8.5608  -8.0033  -8.0032   4.3715   4.3718   4.7014   4.7016
     5.0457   5.0461   6.4867   6.4870   6.5120   6.5123   7.0333   7.0334

          k = 0.2500 0.2507 0.0000 (  5181 PWs)   bands (ev):

   -64.9203 -64.9148 -64.9144 -64.9134 -31.7077 -31.7068 -31.7067 -31.6939
   -31.6820 -31.6815 -31.6797 -31.6745 -31.6743 -31.6731 -31.6637 -31.6562
    -9.0102  -8.1202  -8.1150  -7.9482   4.1111   4.1134   4.2785   5.0187
     5.7824   5.9927   6.0062   6.4188   6.4235   6.5265   7.1111   7.4394

          k = 0.2500 0.2507 0.2500 (  5176 PWs)   bands (ev):

   -64.9193 -64.9148 -64.9148 -64.9140 -31.7118 -31.7116 -31.7108 -31.6932
   -31.6807 -31.6806 -31.6803 -31.6720 -31.6709 -31.6709 -31.6604 -31.6586
    -8.8428  -8.0873  -8.0872  -8.0835   3.9519   3.9530   3.9531   5.0317
     5.7883   5.7885   5.7928   6.6392   6.6472   6.6474   7.2900   7.2911

          k = 0.2500 0.2507-0.5000 (  5160 PWs)   bands (ev):

   -64.9172 -64.9168 -64.9148 -64.9142 -31.7146 -31.7145 -31.7076 -31.7075
   -31.6796 -31.6794 -31.6687 -31.6687 -31.6659 -31.6658 -31.6644 -31.6642
    -8.4512  -8.4510  -8.0528  -8.0527   3.7752   3.7752   4.1484   4.1485
     5.7745   5.7745   6.6803   6.6806   6.8062   6.8063   6.9550   6.9552

          k = 0.2500-0.5014 0.0000 (  5178 PWs)   bands (ev):

   -64.9176 -64.9172 -64.9143 -64.9137 -31.7037 -31.7035 -31.6964 -31.6964
   -31.6940 -31.6938 -31.6736 -31.6734 -31.6705 -31.6704 -31.6634 -31.6632
    -8.5570  -8.5565  -8.0041  -8.0039   4.3673   4.3675   4.6923   4.6930
     5.0464   5.0471   6.4845   6.4849   6.5128   6.5134   7.0315   7.0316

          k = 0.2500-0.5014 0.2500 (  5162 PWs)   bands (ev):

   -64.9171 -64.9167 -64.9148 -64.9142 -31.7148 -31.7146 -31.7073 -31.7072
   -31.6805 -31.6803 -31.6674 -31.6674 -31.6662 -31.6660 -31.6648 -31.6647
    -8.4486  -8.4482  -8.0537  -8.0536   3.7745   3.7745   4.1437   4.1443
     5.7749   5.7749   6.6780   6.6783   6.8103   6.8104   6.9501   6.9505

          k = 0.2500-0.5014-0.5000 (  5168 PWs)   bands (ev):

   -64.9160 -64.9160 -64.9160 -64.9149 -31.7179 -31.7177 -31.7177 -31.7177
   -31.6711 -31.6709 -31.6709 -31.6708 -31.6627 -31.6625 -31.6623 -31.6623
    -8.2218  -8.2216  -8.2215  -8.2213   3.5924   3.5925   3.5928   3.5929
     6.4636   6.4637   6.4641   6.4643   7.0037   7.0038   7.0039   7.0041

          k =-0.5000 0.0000 0.0000 (  5174 PWs)   bands (ev):

   -64.9184 -64.9179 -64.9136 -64.9130 -31.6985 -31.6983 -31.6952 -31.6949
   -31.6891 -31.6890 -31.6821 -31.6820 -31.6681 -31.6679 -31.6667 -31.6665
    -8.6956  -8.6955  -7.9131  -7.9130   4.7915   4.7916   4.7996   4.7996
     5.0667   5.0669   5.9194   5.9198   6.9005   6.9005   6.9137   6.9138

          k =-0.5000 0.0000 0.2500 (  5178 PWs)   bands (ev):

   -64.9177 -64.9172 -64.9143 -64.9137 -31.7040 -31.7039 -31.6977 -31.6976
   -31.6925 -31.6922 -31.6719 -31.6718 -31.6713 -31.6711 -31.6640 -31.6639
    -8.5610  -8.5609  -8.0033  -8.0032   4.3716   4.3717   4.7014   4.7016
     5.0459   5.0459   6.4867   6.4869   6.5121   6.5121   7.0333   7.0334

          k =-0.5000 0.0000-0.5000 (  5216 PWs)   bands (ev):

   -64.9160 -64.9160 -64.9160 -64.9150 -31.7057 -31.7055 -31.7054 -31.7054
   -31.6833 -31.6831 -31.6831 -31.6828 -31.6650 -31.6648 -31.6647 -31.6647
    -8.2601  -8.2600  -8.2599  -8.2598   4.2496   4.2497   4.2497   4.2499
     5.7109   5.7110   5.7114   5.7114   6.9984   6.9986   6.9986   6.9988

          k =-0.5000 0.2507 0.0000 (  5180 PWs)   bands (ev):

   -64.9177 -64.9172 -64.9143 -64.9137 -31.7034 -31.7032 -31.6969 -31.6969
   -31.6945 -31.6943 -31.6731 -31.6729 -31.6715 -31.6715 -31.6624 -31.6622
    -8.5601  -8.5600  -8.0023  -8.0022   4.3675   4.3676   4.6947   4.6950
     5.0411   5.0411   6.4928   6.4931   6.5209   6.5209   7.0285   7.0285

          k =-0.5000 0.2507 0.2500 (  5160 PWs)   bands (ev):

   -64.9172 -64.9168 -64.9148 -64.9142 -31.7146 -31.7145 -31.7076 -31.7075
   -31.6796 -31.6794 -31.6687 -31.6687 -31.6659 -31.6658 -31.6644 -31.6642
    -8.4511  -8.4511  -8.0528  -8.0527   3.7752   3.7752   4.1484   4.1485
     5.7745   5.7745   6.6803   6.6806   6.8062   6.8064   6.9551   6.9551

          k =-0.5000 0.2507-0.5000 (  5180 PWs)   bands (ev):

   -64.9160 -64.9160 -64.9160 -64.9149 -31.7184 -31.7181 -31.7181 -31.7181
   -31.6701 -31.6699 -31.6699 -31.6697 -31.6639 -31.6637 -31.6636 -31.6636
    -8.2227  -8.2226  -8.2225  -8.2224   3.5960   3.5962   3.5962   3.5962
     6.4670   6.4670   6.4673   6.4673   6.9995   6.9997   6.9997   6.9999

          k =-0.5000-0.5014 0.0000 (  5216 PWs)   bands (ev):

   -64.9160 -64.9160 -64.9160 -64.9150 -31.7054 -31.7053 -31.7051 -31.7051
   -31.6848 -31.6846 -31.6846 -31.6844 -31.6638 -31.6637 -31.6635 -31.6635
    -8.2583  -8.2581  -8.2579  -8.2578   4.2386   4.2387   4.2390   4.2392
     5.7119   5.7120   5.7127   5.7128   7.0026   7.0027   7.0029   7.0031

          k =-0.5000-0.5014 0.2500 (  5168 PWs)   bands (ev):

   -64.9160 -64.9160 -64.9160 -64.9149 -31.7179 -31.7177 -31.7177 -31.7177
   -31.6712 -31.6709 -31.6709 -31.6708 -31.6627 -31.6625 -31.6623 -31.6623
    -8.2217  -8.2216  -8.2214  -8.2214   3.5924   3.5925   3.5928   3.5929
     6.4637   6.4637   6.4641   6.4642   7.0037   7.0038   7.0040   7.0042

          k =-0.5000-0.5014-0.5000 (  5232 PWs)   bands (ev):

   -64.9160 -64.9160 -64.9160 -64.9149 -31.7273 -31.7270 -31.7270 -31.7270
   -31.6647 -31.6645 -31.6644 -31.6644 -31.6632 -31.6630 -31.6630 -31.6628
    -8.1847  -8.1846  -8.1845  -8.1845   3.1734   3.1736   3.1736   3.1736
     7.0002   7.0003   7.0003   7.0005   7.0056   7.0057   7.0059   7.0059

     highest occupied level (ev):     7.6069

!    total energy              =    -608.39261834 Ry
     Harris-Foulkes estimate   =    -608.39261834 Ry
     estimated scf accuracy    <          1.0E-10 Ry

     The total energy is the sum of the following terms:

     one-electron contribution =    -304.66315092 Ry
     hartree contribution      =     168.43662985 Ry
     xc contribution           =     -97.82308018 Ry
     ewald contribution        =    -374.34301709 Ry

     convergence has been achieved in   5 iterations

     Forces acting on atoms (cartesian axes, Ry/au):

     atom    1 type  1   force =     0.00000000   -0.00001112    0.00000000
     atom    2 type  1   force =     0.00000000   -0.00004786    0.00000000
     atom    3 type  1   force =     0.00000000    0.00006254    0.00000000
     atom    4 type  1   force =     0.00000000   -0.00004751    0.00000000
     atom    5 type  2   force =     0.00000000   -0.00013332    0.00000000
     atom    6 type  2   force =     0.00000000    0.00015004    0.00000000
     atom    7 type  2   force =     0.00000000   -0.00013203    0.00000000
     atom    8 type  2   force =     0.00000000    0.00015927    0.00000000

     Total force =     0.000303     Total SCF correction =     0.000097
     SCF correction compared to forces is large: reduce conv_thr to get better values


     Computing stress (Cartesian axis) and pressure

          total   stress  (Ry/bohr**3)                   (kbar)     P=  -76.18
  -0.00052872   0.00000000   0.00000000        -77.78      0.00      0.00
   0.00000000  -0.00049628   0.00000000          0.00    -73.00      0.00
   0.00000000   0.00000000  -0.00052858          0.00      0.00    -77.76


     number of scf cycles    =   4
     number of bfgs steps    =   3

     energy   old            =    -608.3926128269 Ry
     energy   new            =    -608.3926183354 Ry

     CASE: energy  _new < energy  _old

     new trust radius        =       0.0002733967 bohr
     new conv_thr            =            1.0E-10 Ry


ATOMIC_POSITIONS (alat)
Mg       0.000000000   0.000649542   0.000000000
Mg       0.000000000   0.499338597   0.500000000
Mg       0.500000000   0.000681863   0.500000000
Mg       0.500000000   0.499338953   0.000000000
O        0.500000000   0.000724786   0.000000000
O        0.000000000   0.499272209   0.000000000
O        0.000000000   0.000723221   0.500000000
O        0.500000000   0.499270829   0.500000000



     Writing output data file diamond.8.06773385075.70.4.save
     NEW-OLD atomic charge density approx. for the potential

     Check: negative/imaginary core charge=   -0.000007    0.000000

     total cpu time spent up to now is       32.6 secs

     per-process dynamical memory:    50.7 Mb

     Self-consistent Calculation

     iteration #  1     ecut=    70.00 Ry     beta=0.70
     Davidson diagonalization with overlap
     ethr =  1.00E-06,  avg # of iterations =  2.0

     Threshold (ethr) on eigenvalues was too large:
     Diagonalizing with lowered threshold

     Davidson diagonalization with overlap
     ethr =  3.03E-11,  avg # of iterations =  3.4

     total cpu time spent up to now is       35.2 secs

     total energy              =    -608.39261840 Ry
     Harris-Foulkes estimate   =    -608.39261846 Ry
     estimated scf accuracy    <       0.00000007 Ry

     iteration #  2     ecut=    70.00 Ry     beta=0.70
     Davidson diagonalization with overlap
     ethr =  1.14E-10,  avg # of iterations =  2.2

     total cpu time spent up to now is       36.4 secs

     total energy              =    -608.39261842 Ry
     Harris-Foulkes estimate   =    -608.39261843 Ry
     estimated scf accuracy    <       0.00000001 Ry

     iteration #  3     ecut=    70.00 Ry     beta=0.70
     Davidson diagonalization with overlap
     ethr =  1.98E-11,  avg # of iterations =  2.0

     total cpu time spent up to now is       37.4 secs

     total energy              =    -608.39261843 Ry
     Harris-Foulkes estimate   =    -608.39261843 Ry
     estimated scf accuracy    <          1.2E-10 Ry

     iteration #  4     ecut=    70.00 Ry     beta=0.70
     Davidson diagonalization with overlap
     ethr =  1.92E-13,  avg # of iterations =  3.0

     total cpu time spent up to now is       38.8 secs

     End of self-consistent calculation

          k = 0.0000 0.0000 0.0000 (  5169 PWs)   bands (ev):

   -64.9228 -64.9137 -64.9136 -64.9128 -31.7174 -31.7174 -31.7159 -31.6811
   -31.6811 -31.6804 -31.6804 -31.6793 -31.6793 -31.6541 -31.6541 -31.6505
    -9.4051  -7.9724  -7.9723  -7.9649   3.7098   3.7098   3.7191   6.3127
     6.3127   6.3150   6.3153   6.3329   6.3329   7.6005   7.6069   7.6069

          k = 0.0000 0.0000 0.2500 (  5189 PWs)   bands (ev):

   -64.9215 -64.9149 -64.9136 -64.9130 -31.7115 -31.7094 -31.7088 -31.6866
   -31.6842 -31.6816 -31.6812 -31.6769 -31.6751 -31.6674 -31.6594 -31.6579
    -9.1994  -8.1847  -7.9436  -7.9383   3.9984   4.0071   4.0442   5.7946
     5.7994   6.1087   6.1225   6.4770   6.4936   6.5948   7.3796   7.3885

          k = 0.0000 0.0000-0.5000 (  5174 PWs)   bands (ev):

   -64.9184 -64.9179 -64.9136 -64.9130 -31.6985 -31.6983 -31.6952 -31.6949
   -31.6891 -31.6891 -31.6821 -31.6820 -31.6681 -31.6679 -31.6667 -31.6665
    -8.6958  -8.6954  -7.9131  -7.9130   4.7913   4.7918   4.7993   4.7998
     5.0667   5.0670   5.9194   5.9198   6.9004   6.9006   6.9136   6.9139

          k = 0.0000 0.2507 0.0000 (  5185 PWs)   bands (ev):

   -64.9214 -64.9148 -64.9137 -64.9131 -31.7114 -31.7114 -31.7060 -31.6862
   -31.6861 -31.6801 -31.6800 -31.6774 -31.6774 -31.6643 -31.6594 -31.6594
    -9.1977  -8.1776  -7.9439  -7.9438   4.0003   4.0003   4.0497   5.8101
     5.8102   6.1041   6.1045   6.4756   6.4756   6.5894   7.3847   7.3848

          k = 0.0000 0.2507 0.2500 (  5181 PWs)   bands (ev):

   -64.9203 -64.9148 -64.9144 -64.9134 -31.7077 -31.7068 -31.7067 -31.6939
   -31.6820 -31.6815 -31.6797 -31.6745 -31.6743 -31.6731 -31.6637 -31.6562
    -9.0102  -8.1202  -8.1150  -7.9482   4.1111   4.1134   4.2785   5.0187
     5.7824   5.9927   6.0062   6.4188   6.4236   6.5265   7.1111   7.4394

          k = 0.0000 0.2507-0.5000 (  5180 PWs)   bands (ev):

   -64.9177 -64.9172 -64.9143 -64.9137 -31.7034 -31.7032 -31.6970 -31.6969
   -31.6945 -31.6943 -31.6731 -31.6729 -31.6715 -31.6715 -31.6624 -31.6622
    -8.5602  -8.5599  -8.0023  -8.0022   4.3674   4.3677   4.6948   4.6950
     5.0409   5.0413   6.4928   6.4931   6.5208   6.5211   7.0285   7.0285

          k = 0.0000-0.5014 0.0000 (  5142 PWs)   bands (ev):

   -64.9183 -64.9179 -64.9137 -64.9131 -31.6977 -31.6976 -31.6974 -31.6974
   -31.6876 -31.6875 -31.6766 -31.6766 -31.6684 -31.6684 -31.6682 -31.6682
    -8.6907  -8.6906  -7.9150  -7.9149   4.7992   4.7992   4.7994   4.7994
     5.0640   5.0643   5.9061   5.9064   6.9020   6.9020   6.9020   6.9021

          k = 0.0000-0.5014 0.2500 (  5178 PWs)   bands (ev):

   -64.9176 -64.9172 -64.9143 -64.9137 -31.7037 -31.7035 -31.6964 -31.6964
   -31.6940 -31.6938 -31.6736 -31.6734 -31.6705 -31.6704 -31.6634 -31.6633
    -8.5568  -8.5568  -8.0041  -8.0040   4.3673   4.3675   4.6926   4.6928
     5.0467   5.0468   6.4845   6.4848   6.5131   6.5131   7.0315   7.0316

          k = 0.0000-0.5014-0.5000 (  5216 PWs)   bands (ev):

   -64.9160 -64.9160 -64.9160 -64.9150 -31.7055 -31.7053 -31.7051 -31.7051
   -31.6848 -31.6846 -31.6846 -31.6844 -31.6638 -31.6637 -31.6635 -31.6635
    -8.2582  -8.2581  -8.2579  -8.2579   4.2387   4.2388   4.2389   4.2391
     5.7120   5.7122   5.7126   5.7127   7.0026   7.0028   7.0028   7.0030

          k = 0.2500 0.0000 0.0000 (  5189 PWs)   bands (ev):

   -64.9215 -64.9149 -64.9136 -64.9130 -31.7115 -31.7094 -31.7088 -31.6866
   -31.6842 -31.6816 -31.6812 -31.6769 -31.6751 -31.6674 -31.6594 -31.6579
    -9.1993  -8.1847  -7.9436  -7.9383   3.9984   4.0071   4.0442   5.7946
     5.7994   6.1087   6.1225   6.4770   6.4936   6.5948   7.3796   7.3885

          k = 0.2500 0.0000 0.2500 (  5179 PWs)   bands (ev):

   -64.9203 -64.9148 -64.9144 -64.9134 -31.7079 -31.7077 -31.7050 -31.6950
   -31.6803 -31.6803 -31.6802 -31.6758 -31.6744 -31.6742 -31.6617 -31.6572
    -9.0117  -8.1204  -8.1203  -7.9447   4.1129   4.1129   4.2850   5.0186
     5.7908   5.9952   5.9955   6.4320   6.4320   6.5171   7.1050   7.4405

          k = 0.2500 0.0000-0.5000 (  5178 PWs)   bands (ev):

   -64.9177 -64.9172 -64.9143 -64.9137 -31.7040 -31.7039 -31.6977 -31.6976
   -31.6925 -31.6922 -31.6719 -31.6718 -31.6713 -31.6711 -31.6640 -31.6639
    -8.5611  -8.5608  -8.0033  -8.0032   4.3715   4.3718   4.7014   4.7016
     5.0457   5.0461   6.4867   6.4870   6.5120   6.5123   7.0333   7.0334

          k = 0.2500 0.2507 0.0000 (  5181 PWs)   bands (ev):

   -64.9203 -64.9148 -64.9144 -64.9134 -31.7077 -31.7068 -31.7067 -31.6939
   -31.6820 -31.6815 -31.6797 -31.6745 -31.6743 -31.6731 -31.6637 -31.6562
    -9.0102  -8.1202  -8.1150  -7.9482   4.1111   4.1134   4.2785   5.0187
     5.7823   5.9927   6.0062   6.4188   6.4235   6.5265   7.1111   7.4394

          k = 0.2500 0.2507 0.2500 (  5176 PWs)   bands (ev):

   -64.9193 -64.9148 -64.9148 -64.9140 -31.7118 -31.7116 -31.7108 -31.6932
   -31.6807 -31.6806 -31.6803 -31.6720 -31.6709 -31.6709 -31.6604 -31.6586
    -8.8428  -8.0873  -8.0872  -8.0835   3.9519   3.9530   3.9531   5.0317
     5.7883   5.7885   5.7928   6.6392   6.6472   6.6474   7.2900   7.2911

          k = 0.2500 0.2507-0.5000 (  5160 PWs)   bands (ev):

   -64.9172 -64.9168 -64.9148 -64.9142 -31.7146 -31.7145 -31.7076 -31.7075
   -31.6796 -31.6794 -31.6687 -31.6687 -31.6659 -31.6658 -31.6644 -31.6642
    -8.4513  -8.4510  -8.0528  -8.0527   3.7752   3.7752   4.1484   4.1485
     5.7745   5.7745   6.6803   6.6806   6.8062   6.8063   6.9550   6.9552

          k = 0.2500-0.5014 0.0000 (  5178 PWs)   bands (ev):

   -64.9176 -64.9172 -64.9143 -64.9137 -31.7037 -31.7035 -31.6964 -31.6964
   -31.6940 -31.6938 -31.6736 -31.6734 -31.6705 -31.6704 -31.6634 -31.6632
    -8.5568  -8.5567  -8.0041  -8.0040   4.3673   4.3675   4.6925   4.6928
     5.0466   5.0468   6.4846   6.4848   6.5131   6.5131   7.0315   7.0316

          k = 0.2500-0.5014 0.2500 (  5162 PWs)   bands (ev):

   -64.9171 -64.9167 -64.9148 -64.9142 -31.7148 -31.7146 -31.7073 -31.7072
   -31.6805 -31.6803 -31.6674 -31.6674 -31.6662 -31.6660 -31.6648 -31.6647
    -8.4485  -8.4484  -8.0537  -8.0536   3.7745   3.7745   4.1439   4.1441
     5.7749   5.7749   6.6780   6.6783   6.8102   6.8104   6.9503   6.9503

          k = 0.2500-0.5014-0.5000 (  5168 PWs)   bands (ev):

   -64.9160 -64.9160 -64.9160 -64.9149 -31.7179 -31.7177 -31.7177 -31.7177
   -31.6711 -31.6709 -31.6709 -31.6708 -31.6627 -31.6625 -31.6623 -31.6623
    -8.2217  -8.2216  -8.2215  -8.2214   3.5925   3.5926   3.5927   3.5927
     6.4637   6.4638   6.4641   6.4641   7.0037   7.0039   7.0039   7.0041

          k =-0.5000 0.0000 0.0000 (  5174 PWs)   bands (ev):

   -64.9184 -64.9179 -64.9136 -64.9130 -31.6985 -31.6983 -31.6952 -31.6949
   -31.6891 -31.6890 -31.6821 -31.6820 -31.6681 -31.6679 -31.6667 -31.6665
    -8.6956  -8.6956  -7.9131  -7.9130   4.7915   4.7915   4.7996   4.7996
     5.0667   5.0669   5.9194   5.9197   6.9005   6.9005   6.9137   6.9138

          k =-0.5000 0.0000 0.2500 (  5178 PWs)   bands (ev):

   -64.9177 -64.9172 -64.9143 -64.9137 -31.7040 -31.7039 -31.6977 -31.6976
   -31.6925 -31.6922 -31.6719 -31.6718 -31.6713 -31.6711 -31.6640 -31.6639
    -8.5610  -8.5609  -8.0033  -8.0032   4.3716   4.3717   4.7014   4.7016
     5.0459   5.0459   6.4867   6.4869   6.5121   6.5121   7.0333   7.0334

          k =-0.5000 0.0000-0.5000 (  5216 PWs)   bands (ev):

   -64.9160 -64.9160 -64.9160 -64.9150 -31.7057 -31.7055 -31.7054 -31.7054
   -31.6833 -31.6831 -31.6831 -31.6828 -31.6650 -31.6648 -31.6647 -31.6647
    -8.2601  -8.2600  -8.2599  -8.2598   4.2496   4.2497   4.2497   4.2499
     5.7109   5.7110   5.7114   5.7114   6.9984   6.9986   6.9986   6.9988

          k =-0.5000 0.2507 0.0000 (  5180 PWs)   bands (ev):

   -64.9177 -64.9172 -64.9143 -64.9137 -31.7034 -31.7032 -31.6969 -31.6969
   -31.6945 -31.6943 -31.6731 -31.6729 -31.6715 -31.6715 -31.6624 -31.6622
    -8.5601  -8.5600  -8.0023  -8.0022   4.3675   4.3676   4.6947   4.6950
     5.0411   5.0411   6.4928   6.4931   6.5209   6.5209   7.0285   7.0285

          k =-0.5000 0.2507 0.2500 (  5160 PWs)   bands (ev):

   -64.9172 -64.9168 -64.9148 -64.9142 -31.7146 -31.7145 -31.7076 -31.7075
   -31.6796 -31.6794 -31.6687 -31.6687 -31.6659 -31.6658 -31.6644 -31.6642
    -8.4511  -8.4511  -8.0528  -8.0527   3.7752   3.7752   4.1484   4.1485
     5.7745   5.7745   6.6803   6.6805   6.8062   6.8063   6.9551   6.9551

          k =-0.5000 0.2507-0.5000 (  5180 PWs)   bands (ev):

   -64.9160 -64.9160 -64.9160 -64.9149 -31.7184 -31.7181 -31.7181 -31.7181
   -31.6701 -31.6699 -31.6699 -31.6697 -31.6639 -31.6637 -31.6636 -31.6636
    -8.2227  -8.2226  -8.2225  -8.2224   3.5960   3.5962   3.5962   3.5962
     6.4670   6.4670   6.4673   6.4673   6.9995   6.9997   6.9997   6.9999

          k =-0.5000-0.5014 0.0000 (  5216 PWs)   bands (ev):

   -64.9160 -64.9160 -64.9160 -64.9150 -31.7054 -31.7053 -31.7051 -31.7051
   -31.6848 -31.6846 -31.6846 -31.6844 -31.6638 -31.6637 -31.6635 -31.6635
    -8.2582  -8.2580  -8.2580  -8.2580   4.2387   4.2388   4.2389   4.2391
     5.7121   5.7122   5.7125   5.7126   7.0027   7.0028   7.0028   7.0030

          k =-0.5000-0.5014 0.2500 (  5168 PWs)   bands (ev):

   -64.9160 -64.9160 -64.9160 -64.9149 -31.7179 -31.7177 -31.7177 -31.7176
   -31.6712 -31.6709 -31.6709 -31.6708 -31.6627 -31.6625 -31.6623 -31.6623
    -8.2217  -8.2215  -8.2215  -8.2215   3.5925   3.5926   3.5927   3.5927
     6.4637   6.4638   6.4640   6.4640   7.0038   7.0039   7.0039   7.0041

          k =-0.5000-0.5014-0.5000 (  5232 PWs)   bands (ev):

   -64.9160 -64.9160 -64.9160 -64.9149 -31.7273 -31.7270 -31.7270 -31.7270
   -31.6647 -31.6645 -31.6644 -31.6644 -31.6632 -31.6630 -31.6630 -31.6628
    -8.1847  -8.1846  -8.1845  -8.1845   3.1734   3.1736   3.1736   3.1736
     7.0002   7.0003   7.0003   7.0005   7.0056   7.0057   7.0059   7.0059

     highest occupied level (ev):     7.6069

!    total energy              =    -608.39261843 Ry
     Harris-Foulkes estimate   =    -608.39261843 Ry
     estimated scf accuracy    <          8.8E-11 Ry

     The total energy is the sum of the following terms:

     one-electron contribution =    -304.66316414 Ry
     hartree contribution      =     168.43664123 Ry
     xc contribution           =     -97.82308275 Ry
     ewald contribution        =    -374.34301277 Ry

     convergence has been achieved in   4 iterations

     Forces acting on atoms (cartesian axes, Ry/au):

     atom    1 type  1   force =     0.00000000    0.00001979    0.00000000
     atom    2 type  1   force =     0.00000000   -0.00006789    0.00000000
     atom    3 type  1   force =     0.00000000    0.00008083    0.00000000
     atom    4 type  1   force =     0.00000000   -0.00006767    0.00000000
     atom    5 type  2   force =     0.00000000   -0.00005222    0.00000000
     atom    6 type  2   force =     0.00000000    0.00006437    0.00000000
     atom    7 type  2   force =     0.00000000   -0.00005146    0.00000000
     atom    8 type  2   force =     0.00000000    0.00007426    0.00000000

     Total force =     0.000176     Total SCF correction =     0.000014


     Computing stress (Cartesian axis) and pressure

          total   stress  (Ry/bohr**3)                   (kbar)     P=  -76.18
  -0.00052871   0.00000000   0.00000000        -77.78      0.00      0.00
   0.00000000  -0.00049626   0.00000000          0.00    -73.00      0.00
   0.00000000   0.00000000  -0.00052857          0.00      0.00    -77.76


     bfgs converged in   5 scf cycles and   4 bfgs steps
     (criteria: energy <  1.0E-05 Ry, force <  1.0E-04 Ry/Bohr)

     End of BFGS Geometry Optimization

     Final energy   =    -608.3926184276 Ry
Begin final coordinates

ATOMIC_POSITIONS (alat)
Mg       0.000000000   0.000649542   0.000000000
Mg       0.000000000   0.499338597   0.500000000
Mg       0.500000000   0.000681863   0.500000000
Mg       0.500000000   0.499338953   0.000000000
O        0.500000000   0.000724786   0.000000000
O        0.000000000   0.499272209   0.000000000
O        0.000000000   0.000723221   0.500000000
O        0.500000000   0.499270829   0.500000000
End final coordinates



     Writing output data file diamond.8.06773385075.70.4.save
 
     init_run     :      0.51s CPU      0.52s WALL (       1 calls)
     electrons    :     34.42s CPU     35.36s WALL (       5 calls)
     update_pot   :      0.48s CPU      0.49s WALL (       4 calls)
     forces       :      0.77s CPU      0.77s WALL (       5 calls)
     stress       :      1.78s CPU      1.79s WALL (       5 calls)

     Called by init_run:
     wfcinit      :      0.38s CPU      0.40s WALL (       1 calls)
     potinit      :      0.05s CPU      0.05s WALL (       1 calls)

     Called by electrons:
     c_bands      :     29.94s CPU     30.78s WALL (      30 calls)
     sum_band     :      4.29s CPU      4.38s WALL (      30 calls)
     v_of_rho     :      0.16s CPU      0.16s WALL (      31 calls)
     mix_rho      :      0.02s CPU      0.02s WALL (      30 calls)

     Called by c_bands:
     init_us_2    :      0.45s CPU      0.48s WALL (    1917 calls)
     cegterg      :     27.90s CPU     28.66s WALL (     810 calls)

     Called by sum_band:

     Called by *egterg:
     h_psi        :     20.61s CPU     21.11s WALL (    2641 calls)
     g_psi        :      0.16s CPU      0.16s WALL (    1804 calls)
     cdiaghg      :      3.88s CPU      3.88s WALL (    2398 calls)

     Called by h_psi:
     h_psi:pot    :     20.53s CPU     20.99s WALL (    2641 calls)
     h_psi:calbec :      1.16s CPU      1.17s WALL (    2641 calls)
     vloc_psi     :     18.39s CPU     18.83s WALL (    2641 calls)
     add_vuspsi   :      0.97s CPU      0.98s WALL (    2641 calls)

     General routines
     calbec       :      1.53s CPU      1.54s WALL (    3316 calls)
     fft          :      0.18s CPU      0.18s WALL (     473 calls)
     fftw         :     20.94s CPU     20.68s WALL (  161328 calls)
     davcio       :      0.00s CPU      0.00s WALL (      27 calls)
 
     Parallel routines
     fft_scatter  :      5.48s CPU      5.42s WALL (  161801 calls)
 
     PWSCF        :    38.34s CPU        39.44s WALL

 
   This run was terminated on:  14:56:30  22Apr2018            

=------------------------------------------------------------------------------=
   JOB DONE.
=------------------------------------------------------------------------------=
