
     Program PWSCF v.6.1 (svn rev. 13369) starts on 22Apr2018 at 14:58:58 

     This program is part of the open-source Quantum ESPRESSO suite
     for quantum simulation of materials; please cite
         "P. Giannozzi et al., J. Phys.:Condens. Matter 21 395502 (2009);
          URL http://www.quantum-espresso.org", 
     in publications or presentations arising from this work. More details at
     http://www.quantum-espresso.org/quote

     Parallel version (MPI), running on     8 processors
     R & G space division:  proc/nbgrp/npool/nimage =       8
     Waiting for input...
     Reading input from standard input
Warning: card       &CELL ignored
Warning: card       CELL_DYNAMICS = 'BFGS' ignored
Warning: card       PRESS = 0.0D0 ignored
Warning: card       PRESS_CONV_THR = 0.01D0 ignored
Warning: card       / ignored

     Current dimensions of program PWSCF are:
     Max number of different atomic species (ntypx) = 10
     Max number of k-points (npk) =  40000
     Max angular momentum in pseudopotentials (lmaxx) =  3

     Subspace diagonalization in iterative solution of the eigenvalue problem:
     a serial algorithm will be used

 
     Parallelization info
     --------------------
     sticks:   dense  smooth     PW     G-vecs:    dense   smooth      PW
     Min         181     181     52                 5217     5217     824
     Max         182     182     53                 5220     5220     829
     Sum        1453    1453    421                41755    41755    6619
 


     bravais-lattice index     =            8
     lattice parameter (alat)  =       8.0907  a.u.
     unit-cell volume          =     526.6070 (a.u.)^3
     number of atoms/cell      =            8
     number of atomic types    =            2
     number of electrons       =        64.00
     number of Kohn-Sham states=           32
     kinetic-energy cutoff     =      70.0000  Ry
     charge density cutoff     =     280.0000  Ry
     convergence threshold     =      1.0E-08
     mixing beta               =       0.7000
     number of iterations used =            8  plain     mixing
     Exchange-correlation      = PBE ( 1  4  3  4 0 0)
     nstep                     =           50


     celldm(1)=   8.090718  celldm(2)=   0.994286  celldm(3)=   1.000033
     celldm(4)=   0.000000  celldm(5)=   0.000000  celldm(6)=   0.000000

     crystal axes: (cart. coord. in units of alat)
               a(1) = (   1.000000   0.000000   0.000000 )  
               a(2) = (   0.000000   0.994286   0.000000 )  
               a(3) = (   0.000000   0.000000   1.000033 )  

     reciprocal axes: (cart. coord. in units 2 pi/alat)
               b(1) = (  1.000000  0.000000  0.000000 )  
               b(2) = (  0.000000  1.005747  0.000000 )  
               b(3) = (  0.000000  0.000000  0.999967 )  


     PseudoPot. # 1 for Mg read from file:
     ../pseudo/Mg.pbe.UPF
     MD5 check sum: 4c04d8c6e0476e83eaecaf72fa8acc4d
     Pseudo is Norm-conserving, Zval = 10.0
     Generated using ONCVPSP code by D. R. Hamann
     Using radial grid of 1510 points,  4 beta functions with: 
                l(1) =   0
                l(2) =   0
                l(3) =   1
                l(4) =   1

     PseudoPot. # 2 for O  read from file:
     ../pseudo/O.pbe.UPF
     MD5 check sum: 3e3f909f7470e8921608ab6b1f57bbae
     Pseudo is Norm-conserving + core correction, Zval =  6.0
     Generated using ONCVPSP code by D. R. Hamann
     Using radial grid of  936 points,  5 beta functions with: 
                l(1) =   0
                l(2) =   0
                l(3) =   1
                l(4) =   1
                l(5) =   2

     atomic species   valence    mass     pseudopotential
        Mg            10.00    24.30500     Mg( 1.00)
        O              6.00    15.99940     O ( 1.00)

      2 Sym. Ops. (no inversion) found



   Cartesian axes

     site n.     atom                  positions (alat units)
         1           Mg  tau(   1) = (   0.0000000   0.0000000   0.0000000  )
         2           Mg  tau(   2) = (   0.0000000   0.5000000   0.5000000  )
         3           Mg  tau(   3) = (   0.5000000   0.0000000   0.5000000  )
         4           Mg  tau(   4) = (   0.5000000   0.5000000   0.0000000  )
         5           O   tau(   5) = (   0.5000000   0.0000000   0.0000000  )
         6           O   tau(   6) = (   0.0000000   0.5000000   0.0000000  )
         7           O   tau(   7) = (   0.0000000   0.0000000   0.5000000  )
         8           O   tau(   8) = (   0.5000000   0.5000000   0.5000000  )

     number of k points=    30
                       cart. coord. in units 2pi/alat
        k(    1) = (   0.0000000   0.0000000   0.0000000), wk =   0.0312500
        k(    2) = (   0.0000000   0.0000000   0.2499918), wk =   0.0625000
        k(    3) = (   0.0000000   0.0000000  -0.4999837), wk =   0.0312500
        k(    4) = (   0.0000000   0.2514367   0.0000000), wk =   0.0625000
        k(    5) = (   0.0000000   0.2514367   0.2499918), wk =   0.0625000
        k(    6) = (   0.0000000   0.2514367  -0.4999837), wk =   0.0625000
        k(    7) = (   0.0000000  -0.5028734   0.0000000), wk =   0.0312500
        k(    8) = (   0.0000000  -0.5028734   0.2499918), wk =   0.0625000
        k(    9) = (   0.0000000  -0.5028734  -0.4999837), wk =   0.0312500
        k(   10) = (   0.2500000   0.0000000   0.0000000), wk =   0.0625000
        k(   11) = (   0.2500000   0.0000000   0.2499918), wk =   0.1250000
        k(   12) = (   0.2500000   0.0000000  -0.4999837), wk =   0.0625000
        k(   13) = (   0.2500000   0.2514367   0.0000000), wk =   0.1250000
        k(   14) = (   0.2500000   0.2514367   0.2499918), wk =   0.1250000
        k(   15) = (   0.2500000   0.2514367  -0.4999837), wk =   0.1250000
        k(   16) = (   0.2500000  -0.5028734   0.0000000), wk =   0.0625000
        k(   17) = (   0.2500000  -0.5028734   0.2499918), wk =   0.1250000
        k(   18) = (   0.2500000  -0.5028734  -0.4999837), wk =   0.0625000
        k(   19) = (  -0.5000000   0.0000000   0.0000000), wk =   0.0312500
        k(   20) = (  -0.5000000   0.0000000   0.2499918), wk =   0.0625000
        k(   21) = (  -0.5000000   0.0000000  -0.4999837), wk =   0.0312500
        k(   22) = (  -0.5000000   0.2514367   0.0000000), wk =   0.0625000
        k(   23) = (  -0.5000000   0.2514367   0.2499918), wk =   0.0625000
        k(   24) = (  -0.5000000   0.2514367  -0.4999837), wk =   0.0625000
        k(   25) = (  -0.5000000  -0.5028734   0.0000000), wk =   0.0312500
        k(   26) = (  -0.5000000  -0.5028734   0.2499918), wk =   0.0625000
        k(   27) = (  -0.5000000  -0.5028734  -0.4999837), wk =   0.0312500
        k(   28) = (   0.0000000   0.2514367  -0.2499918), wk =   0.0625000
        k(   29) = (  -0.2500000   0.2514367  -0.2499918), wk =   0.1250000
        k(   30) = (   0.5000000   0.2514367  -0.2499918), wk =   0.0625000

     Dense  grid:    41755 G-vectors     FFT dimensions: (  45,  45,  45)

     Estimated max dynamical RAM per process >      15.51MB

     Estimated total allocated dynamical RAM >     124.04MB

     Check: negative/imaginary core charge=   -0.000007    0.000000

     Initial potential from superposition of free atoms

     starting charge   63.99678, renormalised to   64.00000
     Starting wfc are   36 randomized atomic wfcs

     total cpu time spent up to now is        0.7 secs

     per-process dynamical memory:    51.3 Mb

     Self-consistent Calculation

     iteration #  1     ecut=    70.00 Ry     beta=0.70
     Davidson diagonalization with overlap
     ethr =  1.00E-02,  avg # of iterations =  2.0

     total cpu time spent up to now is        1.9 secs

     total energy              =    -607.71408026 Ry
     Harris-Foulkes estimate   =    -608.84324044 Ry
     estimated scf accuracy    <       1.56811618 Ry

     iteration #  2     ecut=    70.00 Ry     beta=0.70
     Davidson diagonalization with overlap
     ethr =  2.45E-03,  avg # of iterations =  2.9

     total cpu time spent up to now is        3.3 secs

     total energy              =    -608.09798211 Ry
     Harris-Foulkes estimate   =    -608.81161038 Ry
     estimated scf accuracy    <       1.48708852 Ry

     iteration #  3     ecut=    70.00 Ry     beta=0.70
     Davidson diagonalization with overlap
     ethr =  2.32E-03,  avg # of iterations =  2.0

     total cpu time spent up to now is        4.6 secs

     total energy              =    -608.39057908 Ry
     Harris-Foulkes estimate   =    -608.39127822 Ry
     estimated scf accuracy    <       0.00689225 Ry

     iteration #  4     ecut=    70.00 Ry     beta=0.70
     Davidson diagonalization with overlap
     ethr =  1.08E-05,  avg # of iterations =  2.0

     total cpu time spent up to now is        5.8 secs

     total energy              =    -608.39211405 Ry
     Harris-Foulkes estimate   =    -608.39216084 Ry
     estimated scf accuracy    <       0.00011585 Ry

     iteration #  5     ecut=    70.00 Ry     beta=0.70
     Davidson diagonalization with overlap
     ethr =  1.81E-07,  avg # of iterations =  1.7

     total cpu time spent up to now is        6.9 secs

     total energy              =    -608.39212186 Ry
     Harris-Foulkes estimate   =    -608.39212029 Ry
     estimated scf accuracy    <       0.00001053 Ry

     iteration #  6     ecut=    70.00 Ry     beta=0.70
     Davidson diagonalization with overlap
     ethr =  1.65E-08,  avg # of iterations =  2.0

     total cpu time spent up to now is        8.3 secs

     total energy              =    -608.39212338 Ry
     Harris-Foulkes estimate   =    -608.39212382 Ry
     estimated scf accuracy    <       0.00000103 Ry

     iteration #  7     ecut=    70.00 Ry     beta=0.70
     Davidson diagonalization with overlap
     ethr =  1.61E-09,  avg # of iterations =  2.0

     total cpu time spent up to now is        9.5 secs

     total energy              =    -608.39212342 Ry
     Harris-Foulkes estimate   =    -608.39212351 Ry
     estimated scf accuracy    <       0.00000025 Ry

     iteration #  8     ecut=    70.00 Ry     beta=0.70
     Davidson diagonalization with overlap
     ethr =  3.89E-10,  avg # of iterations =  2.0

     total cpu time spent up to now is       10.6 secs

     total energy              =    -608.39212341 Ry
     Harris-Foulkes estimate   =    -608.39212344 Ry
     estimated scf accuracy    <       0.00000005 Ry

     iteration #  9     ecut=    70.00 Ry     beta=0.70
     Davidson diagonalization with overlap
     ethr =  8.27E-11,  avg # of iterations =  2.0

     total cpu time spent up to now is       12.1 secs

     End of self-consistent calculation

          k = 0.0000 0.0000 0.0000 (  5193 PWs)   bands (ev):

   -65.0099 -65.0010 -65.0009 -65.0002 -31.8027 -31.8027 -31.7998 -31.7677
   -31.7676 -31.7663 -31.7663 -31.7641 -31.7641 -31.7422 -31.7422 -31.7381
    -9.4456  -8.0308  -8.0307  -8.0160   3.6616   3.6617   3.6805   6.2455
     6.2457   6.2504   6.2508   6.2863   6.2864   7.5283   7.5416   7.5417

          k = 0.0000 0.0000 0.2500 (  5198 PWs)   bands (ev):

   -65.0086 -65.0022 -65.0009 -65.0003 -31.7970 -31.7947 -31.7940 -31.7732
   -31.7688 -31.7682 -31.7671 -31.7629 -31.7605 -31.7541 -31.7461 -31.7430
    -9.2425  -8.2406  -8.0017  -7.9912   3.9486   3.9662   3.9941   5.7318
     5.7411   6.0469   6.0745   6.4122   6.4450   6.5318   7.3093   7.3274

          k = 0.0000 0.0000-0.5000 (  5214 PWs)   bands (ev):

   -65.0056 -65.0051 -65.0009 -65.0004 -31.7860 -31.7858 -31.7815 -31.7813
   -31.7750 -31.7750 -31.7691 -31.7691 -31.7544 -31.7542 -31.7517 -31.7514
    -8.7453  -8.7451  -7.9694  -7.9693   4.7357   4.7359   4.7503   4.7506
     5.0112   5.0115   5.8665   5.8668   6.8332   6.8334   6.8596   6.8597

          k = 0.0000 0.2514 0.0000 (  5193 PWs)   bands (ev):

   -65.0086 -65.0020 -65.0010 -65.0004 -31.7968 -31.7968 -31.7901 -31.7720
   -31.7720 -31.7649 -31.7648 -31.7640 -31.7640 -31.7493 -31.7470 -31.7469
    -9.2394  -8.2263  -8.0022  -8.0021   3.9523   3.9524   4.0047   5.7636
     5.7636   6.0383   6.0386   6.4086   6.4088   6.5200   7.3191   7.3192

          k = 0.0000 0.2514 0.2500 (  5215 PWs)   bands (ev):

   -65.0074 -65.0021 -65.0017 -65.0008 -31.7948 -31.7924 -31.7914 -31.7793
   -31.7699 -31.7691 -31.7655 -31.7616 -31.7601 -31.7585 -31.7504 -31.7424
    -9.0545  -8.1765  -8.1659  -8.0060   4.0607   4.0658   4.2286   4.9665
     5.7179   5.9294   5.9569   6.3526   6.3627   6.4705   7.0499   7.3736

          k = 0.0000 0.2514-0.5000 (  5216 PWs)   bands (ev):

   -65.0049 -65.0045 -65.0016 -65.0010 -31.7891 -31.7890 -31.7833 -31.7833
   -31.7810 -31.7808 -31.7600 -31.7597 -31.7580 -31.7579 -31.7481 -31.7480
    -8.6106  -8.6105  -8.0574  -8.0573   4.3166   4.3168   4.6386   4.6388
     4.9858   4.9861   6.4380   6.4383   6.4666   6.4668   6.9632   6.9633

          k = 0.0000-0.5029 0.0000 (  5190 PWs)   bands (ev):

   -65.0056 -65.0050 -65.0010 -65.0005 -31.7857 -31.7857 -31.7844 -31.7844
   -31.7730 -31.7713 -31.7629 -31.7629 -31.7554 -31.7554 -31.7545 -31.7544
    -8.7506  -8.7200  -7.9733  -7.9733   4.7271   4.7272   4.7755   4.7756
     4.9959   5.0155   5.8387   5.8390   6.8212   6.8213   6.8509   6.8510

          k = 0.0000-0.5029 0.2500 (  5198 PWs)   bands (ev):

   -65.0049 -65.0044 -65.0017 -65.0011 -31.7899 -31.7890 -31.7818 -31.7810
   -31.7809 -31.7796 -31.7609 -31.7598 -31.7562 -31.7556 -31.7498 -31.7497
    -8.6174  -8.5904  -8.0636  -8.0583   4.3071   4.3261   4.6238   4.6454
     4.9740   5.0210   6.4131   6.4306   6.4340   6.4684   6.9649   6.9739

          k = 0.0000-0.5029-0.5000 (  5232 PWs)   bands (ev):

   -65.0033 -65.0033 -65.0032 -65.0022 -31.7912 -31.7911 -31.7905 -31.7904
   -31.7717 -31.7714 -31.7705 -31.7702 -31.7500 -31.7499 -31.7493 -31.7492
    -8.3192  -8.3191  -8.3022  -8.3021   4.1805   4.1807   4.1887   4.1889
     5.6368   5.6370   5.6788   5.6791   6.9353   6.9355   6.9494   6.9496

          k = 0.2500 0.0000 0.0000 (  5198 PWs)   bands (ev):

   -65.0086 -65.0022 -65.0009 -65.0003 -31.7970 -31.7947 -31.7940 -31.7732
   -31.7688 -31.7682 -31.7671 -31.7630 -31.7605 -31.7541 -31.7461 -31.7430
    -9.2425  -8.2406  -8.0017  -7.9912   3.9485   3.9662   3.9941   5.7319
     5.7413   6.0467   6.0745   6.4120   6.4450   6.5317   7.3092   7.3274

          k = 0.2500 0.0000 0.2500 (  5213 PWs)   bands (ev):

   -65.0074 -65.0021 -65.0018 -65.0007 -31.7949 -31.7948 -31.7891 -31.7808
   -31.7665 -31.7655 -31.7655 -31.7625 -31.7616 -31.7615 -31.7472 -31.7444
    -9.0573  -8.1768  -8.1767  -7.9989   4.0643   4.0644   4.2419   4.9661
     5.7350   5.9354   5.9357   6.3796   6.3797   6.4510   7.0366   7.3761

          k = 0.2500 0.0000-0.5000 (  5214 PWs)   bands (ev):

   -65.0049 -65.0045 -65.0016 -65.0010 -31.7907 -31.7906 -31.7834 -31.7834
   -31.7773 -31.7771 -31.7597 -31.7597 -31.7565 -31.7562 -31.7513 -31.7511
    -8.6123  -8.6122  -8.0595  -8.0594   4.3245   4.3247   4.6519   4.6522
     4.9962   4.9964   6.4229   6.4231   6.4514   6.4516   6.9731   6.9732

          k = 0.2500 0.2514 0.0000 (  5215 PWs)   bands (ev):

   -65.0074 -65.0021 -65.0017 -65.0008 -31.7948 -31.7924 -31.7914 -31.7793
   -31.7699 -31.7691 -31.7655 -31.7616 -31.7601 -31.7585 -31.7504 -31.7424
    -9.0545  -8.1764  -8.1659  -8.0060   4.0607   4.0658   4.2286   4.9665
     5.7178   5.9295   5.9569   6.3525   6.3626   6.4706   7.0499   7.3736

          k = 0.2500 0.2514 0.2500 (  5206 PWs)   bands (ev):

   -65.0065 -65.0021 -65.0021 -65.0013 -31.7975 -31.7974 -31.7961 -31.7790
   -31.7670 -31.7669 -31.7665 -31.7593 -31.7566 -31.7566 -31.7479 -31.7448
    -8.8894  -8.1436  -8.1436  -8.1360   3.9035   3.9059   3.9059   4.9747
     5.7312   5.7313   5.7399   6.5730   6.5896   6.5897   7.2255   7.2271

          k = 0.2500 0.2514-0.5000 (  5192 PWs)   bands (ev):

   -65.0044 -65.0040 -65.0021 -65.0015 -31.8000 -31.7998 -31.7930 -31.7929
   -31.7659 -31.7657 -31.7559 -31.7558 -31.7531 -31.7529 -31.7500 -31.7498
    -8.5031  -8.5030  -8.1081  -8.1081   3.7291   3.7292   4.0993   4.0994
     5.7188   5.7188   6.6204   6.6207   6.7440   6.7442   6.8946   6.8948

          k = 0.2500-0.5029 0.0000 (  5198 PWs)   bands (ev):

   -65.0049 -65.0044 -65.0017 -65.0011 -31.7899 -31.7890 -31.7818 -31.7811
   -31.7809 -31.7796 -31.7610 -31.7598 -31.7562 -31.7556 -31.7498 -31.7497
    -8.6174  -8.5904  -8.0636  -8.0583   4.3070   4.3260   4.6238   4.6453
     4.9740   5.0209   6.4132   6.4306   6.4341   6.4685   6.9648   6.9739

          k = 0.2500-0.5029 0.2500 (  5200 PWs)   bands (ev):

   -65.0044 -65.0039 -65.0021 -65.0015 -31.8005 -31.8004 -31.7929 -31.7926
   -31.7680 -31.7678 -31.7538 -31.7531 -31.7530 -31.7530 -31.7510 -31.7506
    -8.5092  -8.4862  -8.1101  -8.1100   3.7278   3.7278   4.0791   4.1015
     5.7195   5.7195   6.6164   6.6166   6.7471   6.7567   6.8742   6.8957

          k = 0.2500-0.5029-0.5000 (  5208 PWs)   bands (ev):

   -65.0033 -65.0033 -65.0032 -65.0022 -31.8034 -31.8032 -31.8031 -31.8030
   -31.7586 -31.7584 -31.7580 -31.7579 -31.7490 -31.7489 -31.7485 -31.7484
    -8.2813  -8.2812  -8.2691  -8.2690   3.5395   3.5396   3.5509   3.5510
     6.3912   6.3914   6.4157   6.4158   6.9385   6.9387   6.9484   6.9486

          k =-0.5000 0.0000 0.0000 (  5214 PWs)   bands (ev):

   -65.0056 -65.0051 -65.0009 -65.0004 -31.7860 -31.7858 -31.7815 -31.7813
   -31.7750 -31.7750 -31.7691 -31.7691 -31.7544 -31.7542 -31.7517 -31.7514
    -8.7452  -8.7451  -7.9694  -7.9693   4.7358   4.7358   4.7505   4.7505
     5.0112   5.0114   5.8664   5.8667   6.8331   6.8331   6.8597   6.8597

          k =-0.5000 0.0000 0.2500 (  5214 PWs)   bands (ev):

   -65.0049 -65.0045 -65.0016 -65.0010 -31.7907 -31.7906 -31.7834 -31.7833
   -31.7773 -31.7771 -31.7597 -31.7596 -31.7565 -31.7562 -31.7513 -31.7512
    -8.6123  -8.6122  -8.0595  -8.0594   4.3246   4.3247   4.6519   4.6521
     4.9963   4.9964   6.4228   6.4230   6.4514   6.4514   6.9732   6.9733

          k =-0.5000 0.0000-0.5000 (  5248 PWs)   bands (ev):

   -65.0033 -65.0033 -65.0033 -65.0022 -31.7921 -31.7919 -31.7918 -31.7918
   -31.7681 -31.7679 -31.7679 -31.7676 -31.7523 -31.7521 -31.7520 -31.7520
    -8.3146  -8.3145  -8.3145  -8.3144   4.2058   4.2059   4.2059   4.2060
     5.6556   5.6556   5.6559   5.6560   6.9338   6.9340   6.9340   6.9342

          k =-0.5000 0.2514 0.0000 (  5220 PWs)   bands (ev):

   -65.0049 -65.0045 -65.0016 -65.0010 -31.7891 -31.7890 -31.7833 -31.7833
   -31.7810 -31.7808 -31.7603 -31.7601 -31.7580 -31.7579 -31.7482 -31.7481
    -8.6105  -8.6105  -8.0574  -8.0573   4.3166   4.3167   4.6385   4.6387
     4.9859   4.9860   6.4380   6.4382   6.4667   6.4667   6.9632   6.9632

          k =-0.5000 0.2514 0.2500 (  5192 PWs)   bands (ev):

   -65.0044 -65.0040 -65.0021 -65.0015 -31.8000 -31.7998 -31.7930 -31.7929
   -31.7660 -31.7657 -31.7558 -31.7558 -31.7531 -31.7530 -31.7499 -31.7498
    -8.5031  -8.5030  -8.1081  -8.1081   3.7291   3.7292   4.0992   4.0994
     5.7188   5.7188   6.6204   6.6206   6.7441   6.7442   6.8947   6.8947

          k =-0.5000 0.2514-0.5000 (  5216 PWs)   bands (ev):

   -65.0032 -65.0032 -65.0032 -65.0022 -31.8036 -31.8034 -31.8034 -31.8033
   -31.7556 -31.7554 -31.7554 -31.7552 -31.7519 -31.7516 -31.7516 -31.7516
    -8.2772  -8.2771  -8.2771  -8.2770   3.5522   3.5524   3.5524   3.5525
     6.4101   6.4102   6.4104   6.4104   6.9350   6.9351   6.9351   6.9353

          k =-0.5000-0.5029 0.0000 (  5232 PWs)   bands (ev):

   -65.0033 -65.0033 -65.0032 -65.0022 -31.7912 -31.7911 -31.7905 -31.7904
   -31.7717 -31.7715 -31.7705 -31.7702 -31.7500 -31.7499 -31.7493 -31.7492
    -8.3191  -8.3191  -8.3021  -8.3021   4.1804   4.1805   4.1886   4.1887
     5.6369   5.6369   5.6790   5.6790   6.9354   6.9356   6.9495   6.9497

          k =-0.5000-0.5029 0.2500 (  5208 PWs)   bands (ev):

   -65.0033 -65.0033 -65.0032 -65.0022 -31.8034 -31.8032 -31.8031 -31.8030
   -31.7586 -31.7584 -31.7581 -31.7579 -31.7490 -31.7489 -31.7485 -31.7484
    -8.2812  -8.2812  -8.2691  -8.2690   3.5395   3.5396   3.5509   3.5509
     6.3913   6.3913   6.4157   6.4157   6.9386   6.9387   6.9485   6.9487

          k =-0.5000-0.5029-0.5000 (  5232 PWs)   bands (ev):

   -65.0032 -65.0032 -65.0032 -65.0022 -31.8118 -31.8115 -31.8115 -31.8115
   -31.7516 -31.7513 -31.7513 -31.7513 -31.7486 -31.7484 -31.7484 -31.7482
    -8.2392  -8.2391  -8.2391  -8.2391   3.1301   3.1303   3.1303   3.1303
     6.9360   6.9362   6.9362   6.9364   6.9469   6.9470   6.9471   6.9471

          k = 0.0000 0.2514-0.2500 (  5215 PWs)   bands (ev):

   -65.0074 -65.0021 -65.0017 -65.0008 -31.7948 -31.7924 -31.7914 -31.7793
   -31.7699 -31.7691 -31.7655 -31.7616 -31.7601 -31.7585 -31.7504 -31.7424
    -9.0545  -8.1765  -8.1659  -8.0060   4.0607   4.0658   4.2286   4.9665
     5.7179   5.9294   5.9569   6.3526   6.3627   6.4705   7.0499   7.3736

          k =-0.2500 0.2514-0.2500 (  5206 PWs)   bands (ev):

   -65.0065 -65.0021 -65.0021 -65.0013 -31.7975 -31.7974 -31.7961 -31.7790
   -31.7670 -31.7669 -31.7665 -31.7593 -31.7566 -31.7566 -31.7479 -31.7448
    -8.8894  -8.1436  -8.1436  -8.1360   3.9035   3.9059   3.9059   4.9747
     5.7312   5.7313   5.7399   6.5730   6.5896   6.5897   7.2255   7.2271

          k = 0.5000 0.2514-0.2500 (  5192 PWs)   bands (ev):

   -65.0044 -65.0040 -65.0021 -65.0015 -31.8000 -31.7998 -31.7930 -31.7929
   -31.7660 -31.7657 -31.7558 -31.7558 -31.7531 -31.7530 -31.7500 -31.7498
    -8.5031  -8.5030  -8.1081  -8.1081   3.7291   3.7292   4.0992   4.0994
     5.7188   5.7188   6.6204   6.6206   6.7441   6.7442   6.8947   6.8947

     highest occupied level (ev):     7.5417

!    total energy              =    -608.39212342 Ry
     Harris-Foulkes estimate   =    -608.39212342 Ry
     estimated scf accuracy    <          2.8E-09 Ry

     The total energy is the sum of the following terms:

     one-electron contribution =    -305.79503980 Ry
     hartree contribution      =     168.82005119 Ry
     xc contribution           =     -97.80035396 Ry
     ewald contribution        =    -373.61678085 Ry

     convergence has been achieved in   9 iterations

     Forces acting on atoms (cartesian axes, Ry/au):

     atom    1 type  1   force =     0.00000000    0.00311854   -0.00001652
     atom    2 type  1   force =     0.00000000   -0.00306300    0.00001620
     atom    3 type  1   force =     0.00000000    0.00311952    0.00001608
     atom    4 type  1   force =     0.00000000   -0.00306261   -0.00001636
     atom    5 type  2   force =     0.00000000    0.00355783   -0.00001925
     atom    6 type  2   force =     0.00000000   -0.00360779   -0.00001945
     atom    7 type  2   force =     0.00000000    0.00355844    0.00001968
     atom    8 type  2   force =     0.00000000   -0.00362094    0.00001962

     Total force =     0.009469     Total SCF correction =     0.000058


     Computing stress (Cartesian axis) and pressure

          total   stress  (Ry/bohr**3)                   (kbar)     P=  -83.63
  -0.00059032   0.00000000   0.00000000        -86.84      0.00      0.00
   0.00000000  -0.00052448  -0.00000000          0.00    -77.15     -0.00
   0.00000000  -0.00000000  -0.00059068          0.00     -0.00    -86.89


     BFGS Geometry Optimization

     number of scf cycles    =   1
     number of bfgs steps    =   0

     energy   new            =    -608.3921234216 Ry

     new trust radius        =       0.0036209921 bohr
     new conv_thr            =       0.0000000100 Ry


ATOMIC_POSITIONS (alat)
Mg       0.000000000   0.000385447  -0.000002041
Mg       0.000000000   0.499621418   0.500002002
Mg       0.500000000   0.000385568   0.500001987
Mg       0.500000000   0.499621466  -0.000002022
O        0.500000000   0.000439742  -0.000002380
O        0.000000000   0.499554083  -0.000002404
O        0.000000000   0.000439818   0.500002432
O        0.500000000   0.499552458   0.500002425



     Writing output data file diamond.8.09071770150.70.4.save
     NEW-OLD atomic charge density approx. for the potential

     Check: negative/imaginary core charge=   -0.000007    0.000000

     total cpu time spent up to now is       12.8 secs

     per-process dynamical memory:    56.0 Mb

     Self-consistent Calculation

     iteration #  1     ecut=    70.00 Ry     beta=0.70
     Davidson diagonalization with overlap
     ethr =  1.00E-06,  avg # of iterations =  3.0

     Threshold (ethr) on eigenvalues was too large:
     Diagonalizing with lowered threshold

     Davidson diagonalization with overlap
     ethr =  2.51E-08,  avg # of iterations =  1.2

     total cpu time spent up to now is       15.6 secs

     total energy              =    -608.39219405 Ry
     Harris-Foulkes estimate   =    -608.39220595 Ry
     estimated scf accuracy    <       0.00001625 Ry

     iteration #  2     ecut=    70.00 Ry     beta=0.70
     Davidson diagonalization with overlap
     ethr =  2.54E-08,  avg # of iterations =  2.2

     total cpu time spent up to now is       16.9 secs

     total energy              =    -608.39219896 Ry
     Harris-Foulkes estimate   =    -608.39220060 Ry
     estimated scf accuracy    <       0.00000273 Ry

     iteration #  3     ecut=    70.00 Ry     beta=0.70
     Davidson diagonalization with overlap
     ethr =  4.27E-09,  avg # of iterations =  2.0

     total cpu time spent up to now is       18.1 secs

     total energy              =    -608.39219955 Ry
     Harris-Foulkes estimate   =    -608.39219954 Ry
     estimated scf accuracy    <       0.00000002 Ry

     iteration #  4     ecut=    70.00 Ry     beta=0.70
     Davidson diagonalization with overlap
     ethr =  3.11E-11,  avg # of iterations =  2.7

     total cpu time spent up to now is       19.5 secs

     End of self-consistent calculation

          k = 0.0000 0.0000 0.0000 (  5193 PWs)   bands (ev):

   -65.0103 -65.0014 -65.0013 -65.0005 -31.8030 -31.8029 -31.8000 -31.7679
   -31.7679 -31.7666 -31.7666 -31.7644 -31.7644 -31.7425 -31.7424 -31.7384
    -9.4455  -8.0307  -8.0306  -8.0160   3.6617   3.6618   3.6804   6.2456
     6.2458   6.2504   6.2508   6.2863   6.2863   7.5284   7.5416   7.5416

          k = 0.0000 0.0000 0.2500 (  5198 PWs)   bands (ev):

   -65.0089 -65.0025 -65.0013 -65.0007 -31.7973 -31.7950 -31.7943 -31.7734
   -31.7691 -31.7685 -31.7674 -31.7632 -31.7608 -31.7544 -31.7464 -31.7433
    -9.2424  -8.2406  -8.0016  -7.9912   3.9487   3.9661   3.9942   5.7319
     5.7411   6.0470   6.0747   6.4120   6.4450   6.5318   7.3093   7.3273

          k = 0.0000 0.0000-0.5000 (  5214 PWs)   bands (ev):

   -65.0059 -65.0055 -65.0013 -65.0007 -31.7863 -31.7861 -31.7817 -31.7815
   -31.7753 -31.7753 -31.7694 -31.7694 -31.7547 -31.7545 -31.7520 -31.7517
    -8.7452  -8.7451  -7.9693  -7.9693   4.7358   4.7360   4.7503   4.7505
     5.0112   5.0114   5.8667   5.8670   6.8331   6.8332   6.8595   6.8597

          k = 0.0000 0.2514 0.0000 (  5193 PWs)   bands (ev):

   -65.0089 -65.0024 -65.0014 -65.0008 -31.7971 -31.7971 -31.7904 -31.7723
   -31.7723 -31.7652 -31.7651 -31.7643 -31.7643 -31.7496 -31.7473 -31.7472
    -9.2392  -8.2264  -8.0021  -8.0021   3.9524   3.9525   4.0046   5.7634
     5.7635   6.0383   6.0386   6.4087   6.4089   6.5201   7.3191   7.3192

          k = 0.0000 0.2514 0.2500 (  5215 PWs)   bands (ev):

   -65.0078 -65.0025 -65.0021 -65.0011 -31.7951 -31.7927 -31.7916 -31.7796
   -31.7702 -31.7694 -31.7658 -31.7619 -31.7603 -31.7588 -31.7507 -31.7427
    -9.0544  -8.1764  -8.1659  -8.0059   4.0608   4.0657   4.2288   4.9665
     5.7180   5.9296   5.9568   6.3529   6.3627   6.4702   7.0498   7.3736

          k = 0.0000 0.2514-0.5000 (  5216 PWs)   bands (ev):

   -65.0052 -65.0048 -65.0020 -65.0014 -31.7894 -31.7892 -31.7836 -31.7836
   -31.7813 -31.7811 -31.7603 -31.7600 -31.7583 -31.7582 -31.7484 -31.7482
    -8.6105  -8.6104  -8.0573  -8.0573   4.3166   4.3167   4.6386   4.6388
     4.9860   4.9862   6.4381   6.4383   6.4665   6.4667   6.9631   6.9632

          k = 0.0000-0.5029 0.0000 (  5190 PWs)   bands (ev):

   -65.0059 -65.0053 -65.0014 -65.0008 -31.7858 -31.7858 -31.7848 -31.7848
   -31.7730 -31.7718 -31.7632 -31.7631 -31.7555 -31.7555 -31.7549 -31.7548
    -8.7460  -8.7246  -7.9733  -7.9733   4.7344   4.7344   4.7683   4.7684
     4.9989   5.0125   5.8387   5.8389   6.8257   6.8259   6.8464   6.8466

          k = 0.0000-0.5029 0.2500 (  5198 PWs)   bands (ev):

   -65.0052 -65.0047 -65.0020 -65.0014 -31.7901 -31.7894 -31.7820 -31.7813
   -31.7811 -31.7801 -31.7611 -31.7602 -31.7564 -31.7559 -31.7501 -31.7500
    -8.6133  -8.5944  -8.0628  -8.0591   4.3099   4.3233   4.6272   4.6421
     4.9811   5.0140   6.4157   6.4279   6.4392   6.4633   6.9663   6.9726

          k = 0.0000-0.5029-0.5000 (  5232 PWs)   bands (ev):

   -65.0037 -65.0036 -65.0035 -65.0026 -31.7914 -31.7913 -31.7908 -31.7908
   -31.7718 -31.7716 -31.7709 -31.7707 -31.7502 -31.7501 -31.7497 -31.7496
    -8.3166  -8.3165  -8.3047  -8.3046   4.1819   4.1820   4.1874   4.1875
     5.6431   5.6433   5.6726   5.6728   6.9375   6.9377   6.9473   6.9475

          k = 0.2500 0.0000 0.0000 (  5198 PWs)   bands (ev):

   -65.0089 -65.0025 -65.0013 -65.0007 -31.7973 -31.7950 -31.7943 -31.7734
   -31.7691 -31.7685 -31.7674 -31.7633 -31.7608 -31.7544 -31.7464 -31.7433
    -9.2424  -8.2405  -8.0017  -7.9912   3.9486   3.9661   3.9942   5.7320
     5.7412   6.0468   6.0747   6.4118   6.4449   6.5317   7.3093   7.3274

          k = 0.2500 0.0000 0.2500 (  5213 PWs)   bands (ev):

   -65.0078 -65.0025 -65.0021 -65.0010 -31.7952 -31.7951 -31.7894 -31.7810
   -31.7668 -31.7658 -31.7657 -31.7628 -31.7619 -31.7618 -31.7475 -31.7447
    -9.0572  -8.1767  -8.1767  -7.9989   4.0645   4.0645   4.2418   4.9662
     5.7350   5.9354   5.9357   6.3795   6.3796   6.4511   7.0366   7.3761

          k = 0.2500 0.0000-0.5000 (  5214 PWs)   bands (ev):

   -65.0052 -65.0048 -65.0020 -65.0014 -31.7910 -31.7908 -31.7836 -31.7836
   -31.7776 -31.7774 -31.7600 -31.7599 -31.7568 -31.7565 -31.7516 -31.7514
    -8.6122  -8.6121  -8.0594  -8.0594   4.3247   4.3248   4.6521   4.6523
     4.9960   4.9961   6.4243   6.4245   6.4500   6.4501   6.9731   6.9733

          k = 0.2500 0.2514 0.0000 (  5215 PWs)   bands (ev):

   -65.0078 -65.0025 -65.0021 -65.0011 -31.7950 -31.7927 -31.7916 -31.7796
   -31.7702 -31.7694 -31.7658 -31.7619 -31.7603 -31.7588 -31.7507 -31.7427
    -9.0544  -8.1764  -8.1659  -8.0060   4.0608   4.0657   4.2288   4.9665
     5.7179   5.9297   5.9568   6.3528   6.3626   6.4703   7.0499   7.3736

          k = 0.2500 0.2514 0.2500 (  5206 PWs)   bands (ev):

   -65.0068 -65.0025 -65.0024 -65.0017 -31.7978 -31.7977 -31.7964 -31.7792
   -31.7673 -31.7672 -31.7668 -31.7596 -31.7569 -31.7569 -31.7482 -31.7451
    -8.8893  -8.1436  -8.1435  -8.1361   3.9035   3.9060   3.9060   4.9747
     5.7313   5.7313   5.7399   6.5731   6.5895   6.5896   7.2255   7.2271

          k = 0.2500 0.2514-0.5000 (  5192 PWs)   bands (ev):

   -65.0048 -65.0044 -65.0024 -65.0018 -31.8003 -31.8001 -31.7933 -31.7932
   -31.7662 -31.7660 -31.7561 -31.7561 -31.7534 -31.7532 -31.7502 -31.7501
    -8.5030  -8.5029  -8.1081  -8.1081   3.7291   3.7292   4.0993   4.0994
     5.7188   5.7188   6.6206   6.6208   6.7440   6.7441   6.8945   6.8947

          k = 0.2500-0.5029 0.0000 (  5198 PWs)   bands (ev):

   -65.0052 -65.0047 -65.0020 -65.0014 -31.7901 -31.7894 -31.7820 -31.7813
   -31.7812 -31.7801 -31.7611 -31.7602 -31.7564 -31.7559 -31.7501 -31.7500
    -8.6133  -8.5944  -8.0627  -8.0591   4.3099   4.3233   4.6271   4.6420
     4.9810   5.0139   6.4158   6.4280   6.4393   6.4634   6.9662   6.9726

          k = 0.2500-0.5029 0.2500 (  5200 PWs)   bands (ev):

   -65.0047 -65.0043 -65.0025 -65.0019 -31.8008 -31.8007 -31.7931 -31.7929
   -31.7682 -31.7681 -31.7540 -31.7535 -31.7533 -31.7533 -31.7512 -31.7510
    -8.5057  -8.4896  -8.1100  -8.1100   3.7278   3.7279   4.0826   4.0981
     5.7196   5.7196   6.6163   6.6165   6.7485   6.7553   6.8775   6.8925

          k = 0.2500-0.5029-0.5000 (  5208 PWs)   bands (ev):

   -65.0036 -65.0036 -65.0035 -65.0026 -31.8036 -31.8034 -31.8034 -31.8033
   -31.7588 -31.7586 -31.7584 -31.7582 -31.7493 -31.7491 -31.7488 -31.7487
    -8.2793  -8.2793  -8.2708  -8.2708   3.5413   3.5414   3.5491   3.5492
     6.3949   6.3951   6.4120   6.4122   6.9400   6.9402   6.9469   6.9471

          k =-0.5000 0.0000 0.0000 (  5214 PWs)   bands (ev):

   -65.0059 -65.0055 -65.0013 -65.0007 -31.7863 -31.7861 -31.7817 -31.7815
   -31.7753 -31.7753 -31.7694 -31.7694 -31.7547 -31.7545 -31.7520 -31.7517
    -8.7451  -8.7451  -7.9694  -7.9693   4.7359   4.7359   4.7505   4.7505
     5.0111   5.0114   5.8666   5.8669   6.8330   6.8330   6.8596   6.8596

          k =-0.5000 0.0000 0.2500 (  5214 PWs)   bands (ev):

   -65.0052 -65.0048 -65.0020 -65.0014 -31.7910 -31.7909 -31.7836 -31.7836
   -31.7776 -31.7774 -31.7600 -31.7599 -31.7568 -31.7565 -31.7516 -31.7515
    -8.6122  -8.6121  -8.0595  -8.0594   4.3247   4.3248   4.6521   4.6523
     4.9961   4.9961   6.4242   6.4244   6.4500   6.4500   6.9732   6.9733

          k =-0.5000 0.0000-0.5000 (  5248 PWs)   bands (ev):

   -65.0036 -65.0036 -65.0036 -65.0026 -31.7924 -31.7922 -31.7921 -31.7921
   -31.7684 -31.7682 -31.7682 -31.7679 -31.7526 -31.7524 -31.7523 -31.7523
    -8.3145  -8.3145  -8.3144  -8.3144   4.2058   4.2060   4.2060   4.2061
     5.6555   5.6555   5.6558   5.6558   6.9339   6.9341   6.9341   6.9342

          k =-0.5000 0.2514 0.0000 (  5220 PWs)   bands (ev):

   -65.0052 -65.0048 -65.0020 -65.0014 -31.7894 -31.7892 -31.7836 -31.7836
   -31.7813 -31.7811 -31.7606 -31.7604 -31.7582 -31.7582 -31.7485 -31.7484
    -8.6104  -8.6104  -8.0574  -8.0573   4.3166   4.3167   4.6385   4.6387
     4.9861   4.9861   6.4381   6.4383   6.4666   6.4666   6.9631   6.9631

          k =-0.5000 0.2514 0.2500 (  5192 PWs)   bands (ev):

   -65.0048 -65.0044 -65.0024 -65.0018 -31.8003 -31.8001 -31.7933 -31.7932
   -31.7662 -31.7660 -31.7561 -31.7561 -31.7534 -31.7533 -31.7502 -31.7501
    -8.5030  -8.5029  -8.1081  -8.1081   3.7292   3.7292   4.0992   4.0994
     5.7188   5.7188   6.6206   6.6208   6.7440   6.7442   6.8945   6.8946

          k =-0.5000 0.2514-0.5000 (  5216 PWs)   bands (ev):

   -65.0036 -65.0036 -65.0036 -65.0026 -31.8039 -31.8036 -31.8036 -31.8036
   -31.7559 -31.7557 -31.7557 -31.7555 -31.7522 -31.7519 -31.7519 -31.7519
    -8.2771  -8.2770  -8.2770  -8.2770   3.5523   3.5524   3.5524   3.5525
     6.4100   6.4102   6.4103   6.4103   6.9350   6.9352   6.9352   6.9353

          k =-0.5000-0.5029 0.0000 (  5232 PWs)   bands (ev):

   -65.0037 -65.0036 -65.0035 -65.0026 -31.7914 -31.7913 -31.7908 -31.7908
   -31.7718 -31.7716 -31.7709 -31.7707 -31.7502 -31.7501 -31.7497 -31.7496
    -8.3165  -8.3165  -8.3046  -8.3046   4.1817   4.1819   4.1873   4.1874
     5.6432   5.6433   5.6727   5.6727   6.9376   6.9377   6.9473   6.9475

          k =-0.5000-0.5029 0.2500 (  5208 PWs)   bands (ev):

   -65.0036 -65.0036 -65.0035 -65.0026 -31.8036 -31.8034 -31.8034 -31.8033
   -31.7588 -31.7586 -31.7584 -31.7582 -31.7492 -31.7491 -31.7488 -31.7487
    -8.2793  -8.2793  -8.2708  -8.2708   3.5413   3.5414   3.5491   3.5492
     6.3949   6.3950   6.4120   6.4121   6.9401   6.9403   6.9470   6.9471

          k =-0.5000-0.5029-0.5000 (  5232 PWs)   bands (ev):

   -65.0036 -65.0036 -65.0036 -65.0026 -31.8121 -31.8118 -31.8118 -31.8118
   -31.7519 -31.7516 -31.7516 -31.7516 -31.7489 -31.7487 -31.7487 -31.7485
    -8.2391  -8.2391  -8.2391  -8.2390   3.1301   3.1303   3.1303   3.1303
     6.9361   6.9363   6.9363   6.9364   6.9469   6.9470   6.9471   6.9472

          k = 0.0000 0.2514-0.2500 (  5215 PWs)   bands (ev):

   -65.0078 -65.0025 -65.0021 -65.0011 -31.7951 -31.7927 -31.7916 -31.7796
   -31.7702 -31.7694 -31.7658 -31.7619 -31.7603 -31.7588 -31.7507 -31.7427
    -9.0544  -8.1764  -8.1659  -8.0059   4.0608   4.0657   4.2288   4.9665
     5.7180   5.9296   5.9568   6.3529   6.3627   6.4702   7.0498   7.3736

          k =-0.2500 0.2514-0.2500 (  5206 PWs)   bands (ev):

   -65.0068 -65.0025 -65.0024 -65.0017 -31.7978 -31.7977 -31.7964 -31.7792
   -31.7673 -31.7672 -31.7668 -31.7596 -31.7569 -31.7569 -31.7482 -31.7451
    -8.8893  -8.1436  -8.1435  -8.1361   3.9035   3.9060   3.9060   4.9747
     5.7313   5.7313   5.7399   6.5731   6.5895   6.5896   7.2255   7.2271

          k = 0.5000 0.2514-0.2500 (  5192 PWs)   bands (ev):

   -65.0048 -65.0044 -65.0024 -65.0018 -31.8003 -31.8001 -31.7933 -31.7932
   -31.7662 -31.7660 -31.7561 -31.7561 -31.7534 -31.7533 -31.7502 -31.7501
    -8.5030  -8.5029  -8.1081  -8.1081   3.7291   3.7292   4.0992   4.0994
     5.7188   5.7188   6.6206   6.6208   6.7440   6.7442   6.8945   6.8946

     highest occupied level (ev):     7.5416

!    total energy              =    -608.39219955 Ry
     Harris-Foulkes estimate   =    -608.39219956 Ry
     estimated scf accuracy    <          4.0E-09 Ry

     The total energy is the sum of the following terms:

     one-electron contribution =    -305.78178057 Ry
     hartree contribution      =     168.81357213 Ry
     xc contribution           =     -97.80030401 Ry
     ewald contribution        =    -373.62368710 Ry

     convergence has been achieved in   4 iterations

     Forces acting on atoms (cartesian axes, Ry/au):

     atom    1 type  1   force =     0.00000000    0.00221318   -0.00001210
     atom    2 type  1   force =     0.00000000   -0.00222264    0.00001197
     atom    3 type  1   force =     0.00000000    0.00227805    0.00001216
     atom    4 type  1   force =     0.00000000   -0.00222264   -0.00001247
     atom    5 type  2   force =     0.00000000    0.00243517   -0.00001326
     atom    6 type  2   force =     0.00000000   -0.00245299   -0.00001320
     atom    7 type  2   force =     0.00000000    0.00243574    0.00001340
     atom    8 type  2   force =     0.00000000   -0.00246386    0.00001351

     Total force =     0.006627     Total SCF correction =     0.000346


     Computing stress (Cartesian axis) and pressure

          total   stress  (Ry/bohr**3)                   (kbar)     P=  -83.58
  -0.00058955   0.00000000   0.00000000        -86.73      0.00      0.00
   0.00000000  -0.00052511   0.00000000          0.00    -77.25      0.00
   0.00000000   0.00000000  -0.00058991          0.00      0.00    -86.78


     number of scf cycles    =   2
     number of bfgs steps    =   1

     energy   old            =    -608.3921234216 Ry
     energy   new            =    -608.3921995534 Ry

     CASE: energy  _new < energy  _old

     new trust radius        =       0.0039830913 bohr
     new conv_thr            =       0.0000000008 Ry


ATOMIC_POSITIONS (alat)
Mg       0.000000000   0.000827617  -0.000004459
Mg       0.000000000   0.499177377   0.500004393
Mg       0.500000000   0.000840672   0.500004415
Mg       0.500000000   0.499177426  -0.000004512
O        0.500000000   0.000926300  -0.000005029
O        0.000000000   0.499063958  -0.000005042
O        0.000000000   0.000926489   0.500005110
O        0.500000000   0.499060161   0.500005124



     Writing output data file diamond.8.09071770150.70.4.save
     NEW-OLD atomic charge density approx. for the potential

     Check: negative/imaginary core charge=   -0.000007    0.000000

     total cpu time spent up to now is       20.3 secs

     per-process dynamical memory:    56.0 Mb

     Self-consistent Calculation

     iteration #  1     ecut=    70.00 Ry     beta=0.70
     Davidson diagonalization with overlap
     ethr =  1.00E-06,  avg # of iterations =  3.0

     Threshold (ethr) on eigenvalues was too large:
     Diagonalizing with lowered threshold

     Davidson diagonalization with overlap
     ethr =  3.12E-08,  avg # of iterations =  1.2

     total cpu time spent up to now is       23.2 secs

     total energy              =    -608.39224665 Ry
     Harris-Foulkes estimate   =    -608.39226136 Ry
     estimated scf accuracy    <       0.00002011 Ry

     iteration #  2     ecut=    70.00 Ry     beta=0.70
     Davidson diagonalization with overlap
     ethr =  3.14E-08,  avg # of iterations =  2.2

     total cpu time spent up to now is       24.4 secs

     total energy              =    -608.39225272 Ry
     Harris-Foulkes estimate   =    -608.39225477 Ry
     estimated scf accuracy    <       0.00000340 Ry

     iteration #  3     ecut=    70.00 Ry     beta=0.70
     Davidson diagonalization with overlap
     ethr =  5.31E-09,  avg # of iterations =  2.0

     total cpu time spent up to now is       25.6 secs

     total energy              =    -608.39225346 Ry
     Harris-Foulkes estimate   =    -608.39225345 Ry
     estimated scf accuracy    <       0.00000003 Ry

     iteration #  4     ecut=    70.00 Ry     beta=0.70
     Davidson diagonalization with overlap
     ethr =  4.11E-11,  avg # of iterations =  2.8

     total cpu time spent up to now is       27.1 secs

     total energy              =    -608.39225347 Ry
     Harris-Foulkes estimate   =    -608.39225347 Ry
     estimated scf accuracy    <          7.6E-09 Ry

     iteration #  5     ecut=    70.00 Ry     beta=0.70
     Davidson diagonalization with overlap
     ethr =  1.18E-11,  avg # of iterations =  2.3

     total cpu time spent up to now is       28.4 secs

     End of self-consistent calculation

          k = 0.0000 0.0000 0.0000 (  5193 PWs)   bands (ev):

   -65.0104 -65.0015 -65.0014 -65.0006 -31.8030 -31.8030 -31.8001 -31.7680
   -31.7680 -31.7667 -31.7667 -31.7645 -31.7644 -31.7426 -31.7425 -31.7385
    -9.4453  -8.0306  -8.0304  -8.0158   3.6619   3.6620   3.6804   6.2458
     6.2460   6.2505   6.2509   6.2863   6.2864   7.5287   7.5417   7.5418

          k = 0.0000 0.0000 0.2500 (  5198 PWs)   bands (ev):

   -65.0090 -65.0026 -65.0014 -65.0008 -31.7974 -31.7951 -31.7944 -31.7735
   -31.7692 -31.7686 -31.7675 -31.7633 -31.7608 -31.7545 -31.7465 -31.7434
    -9.2422  -8.2404  -8.0014  -7.9910   3.9489   3.9661   3.9944   5.7321
     5.7411   6.0473   6.0750   6.4119   6.4450   6.5319   7.3095   7.3275

          k = 0.0000 0.0000-0.5000 (  5214 PWs)   bands (ev):

   -65.0060 -65.0056 -65.0014 -65.0008 -31.7864 -31.7861 -31.7818 -31.7816
   -31.7755 -31.7754 -31.7695 -31.7694 -31.7548 -31.7546 -31.7521 -31.7518
    -8.7450  -8.7449  -7.9692  -7.9691   4.7361   4.7362   4.7505   4.7506
     5.0112   5.0115   5.8669   5.8673   6.8331   6.8332   6.8597   6.8598

          k = 0.0000 0.2514 0.0000 (  5193 PWs)   bands (ev):

   -65.0090 -65.0025 -65.0015 -65.0009 -31.7972 -31.7972 -31.7904 -31.7724
   -31.7724 -31.7652 -31.7652 -31.7644 -31.7644 -31.7497 -31.7474 -31.7473
    -9.2390  -8.2263  -8.0020  -8.0018   3.9527   3.9528   4.0047   5.7635
     5.7635   6.0383   6.0387   6.4090   6.4092   6.5203   7.3192   7.3193

          k = 0.0000 0.2514 0.2500 (  5215 PWs)   bands (ev):

   -65.0079 -65.0026 -65.0022 -65.0012 -31.7951 -31.7928 -31.7917 -31.7797
   -31.7703 -31.7695 -31.7658 -31.7620 -31.7604 -31.7589 -31.7508 -31.7428
    -9.0541  -8.1762  -8.1658  -8.0057   4.0610   4.0658   4.2291   4.9666
     5.7182   5.9298   5.9568   6.3532   6.3628   6.4701   7.0499   7.3738

          k = 0.0000 0.2514-0.5000 (  5216 PWs)   bands (ev):

   -65.0053 -65.0049 -65.0021 -65.0015 -31.7894 -31.7893 -31.7837 -31.7837
   -31.7814 -31.7812 -31.7604 -31.7601 -31.7583 -31.7583 -31.7485 -31.7483
    -8.6103  -8.6102  -8.0573  -8.0571   4.3167   4.3168   4.6387   4.6390
     4.9863   4.9864   6.4383   6.4386   6.4666   6.4667   6.9632   6.9632

          k = 0.0000-0.5029 0.0000 (  5190 PWs)   bands (ev):

   -65.0059 -65.0055 -65.0015 -65.0009 -31.7857 -31.7857 -31.7851 -31.7851
   -31.7728 -31.7721 -31.7633 -31.7632 -31.7555 -31.7555 -31.7551 -31.7551
    -8.7407  -8.7295  -7.9731  -7.9730   4.7426   4.7426   4.7604   4.7604
     5.0023   5.0092   5.8387   5.8391   6.8309   6.8310   6.8416   6.8417

          k = 0.0000-0.5029 0.2500 (  5198 PWs)   bands (ev):

   -65.0053 -65.0048 -65.0021 -65.0015 -31.7900 -31.7896 -31.7819 -31.7816
   -31.7810 -31.7804 -31.7610 -31.7605 -31.7564 -31.7561 -31.7502 -31.7501
    -8.6086  -8.5988  -8.0617  -8.0598   4.3132   4.3203   4.6309   4.6384
     4.9890   5.0063   6.4188   6.4251   6.4451   6.4577   6.9679   6.9713

          k = 0.0000-0.5029-0.5000 (  5232 PWs)   bands (ev):

   -65.0037 -65.0037 -65.0037 -65.0027 -31.7914 -31.7913 -31.7910 -31.7910
   -31.7717 -31.7715 -31.7712 -31.7709 -31.7502 -31.7501 -31.7498 -31.7498
    -8.3135  -8.3134  -8.3074  -8.3072   4.1834   4.1835   4.1860   4.1861
     5.6503   5.6505   5.6657   5.6659   6.9401   6.9402   6.9451   6.9452

          k = 0.2500 0.0000 0.0000 (  5198 PWs)   bands (ev):

   -65.0090 -65.0026 -65.0014 -65.0008 -31.7974 -31.7951 -31.7944 -31.7735
   -31.7692 -31.7685 -31.7675 -31.7634 -31.7609 -31.7545 -31.7465 -31.7434
    -9.2422  -8.2403  -8.0015  -7.9910   3.9488   3.9661   3.9944   5.7322
     5.7413   6.0471   6.0749   6.4117   6.4450   6.5318   7.3094   7.3275

          k = 0.2500 0.0000 0.2500 (  5213 PWs)   bands (ev):

   -65.0079 -65.0026 -65.0022 -65.0011 -31.7953 -31.7952 -31.7895 -31.7811
   -31.7669 -31.7659 -31.7658 -31.7629 -31.7620 -31.7619 -31.7476 -31.7448
    -9.0570  -8.1766  -8.1764  -7.9987   4.0646   4.0647   4.2418   4.9664
     5.7351   5.9354   5.9358   6.3796   6.3797   6.4513   7.0367   7.3763

          k = 0.2500 0.0000-0.5000 (  5214 PWs)   bands (ev):

   -65.0053 -65.0049 -65.0021 -65.0015 -31.7911 -31.7909 -31.7837 -31.7836
   -31.7778 -31.7775 -31.7601 -31.7600 -31.7569 -31.7566 -31.7517 -31.7515
    -8.6121  -8.6119  -8.0593  -8.0592   4.3249   4.3250   4.6523   4.6526
     4.9959   4.9960   6.4255   6.4257   6.4491   6.4492   6.9733   6.9734

          k = 0.2500 0.2514 0.0000 (  5215 PWs)   bands (ev):

   -65.0079 -65.0026 -65.0022 -65.0012 -31.7951 -31.7928 -31.7917 -31.7797
   -31.7703 -31.7695 -31.7658 -31.7620 -31.7604 -31.7589 -31.7508 -31.7428
    -9.0541  -8.1762  -8.1658  -8.0058   4.0610   4.0658   4.2290   4.9666
     5.7181   5.9299   5.9568   6.3531   6.3627   6.4702   7.0499   7.3738

          k = 0.2500 0.2514 0.2500 (  5206 PWs)   bands (ev):

   -65.0069 -65.0026 -65.0025 -65.0018 -31.7979 -31.7978 -31.7965 -31.7793
   -31.7674 -31.7673 -31.7669 -31.7597 -31.7570 -31.7570 -31.7483 -31.7452
    -8.8891  -8.1434  -8.1433  -8.1359   3.9036   3.9061   3.9061   4.9749
     5.7314   5.7315   5.7400   6.5734   6.5895   6.5897   7.2256   7.2273

          k = 0.2500 0.2514-0.5000 (  5192 PWs)   bands (ev):

   -65.0049 -65.0045 -65.0025 -65.0019 -31.8004 -31.8002 -31.7934 -31.7933
   -31.7663 -31.7661 -31.7562 -31.7562 -31.7535 -31.7533 -31.7503 -31.7501
    -8.5028  -8.5027  -8.1080  -8.1078   3.7293   3.7293   4.0994   4.0995
     5.7189   5.7190   6.6208   6.6211   6.7441   6.7442   6.8946   6.8947

          k = 0.2500-0.5029 0.0000 (  5198 PWs)   bands (ev):

   -65.0053 -65.0048 -65.0021 -65.0015 -31.7900 -31.7896 -31.7819 -31.7815
   -31.7810 -31.7804 -31.7610 -31.7605 -31.7564 -31.7561 -31.7502 -31.7501
    -8.6086  -8.5988  -8.0617  -8.0597   4.3131   4.3202   4.6309   4.6384
     4.9890   5.0062   6.4188   6.4252   6.4453   6.4578   6.9679   6.9712

          k = 0.2500-0.5029 0.2500 (  5200 PWs)   bands (ev):

   -65.0048 -65.0044 -65.0026 -65.0020 -31.8009 -31.8007 -31.7932 -31.7930
   -31.7683 -31.7681 -31.7540 -31.7537 -31.7534 -31.7534 -31.7513 -31.7511
    -8.5016  -8.4933  -8.1099  -8.1097   3.7280   3.7280   4.0865   4.0943
     5.7197   5.7198   6.6164   6.6166   6.7502   6.7539   6.8813   6.8891

          k = 0.2500-0.5029-0.5000 (  5208 PWs)   bands (ev):

   -65.0037 -65.0037 -65.0037 -65.0027 -31.8037 -31.8035 -31.8034 -31.8034
   -31.7589 -31.7586 -31.7586 -31.7584 -31.7493 -31.7491 -31.7490 -31.7489
    -8.2772  -8.2770  -8.2727  -8.2726   3.5433   3.5434   3.5473   3.5473
     6.3992   6.3993   6.4081   6.4082   6.9419   6.9420   6.9454   6.9456

          k =-0.5000 0.0000 0.0000 (  5214 PWs)   bands (ev):

   -65.0060 -65.0056 -65.0014 -65.0008 -31.7864 -31.7862 -31.7818 -31.7816
   -31.7754 -31.7754 -31.7695 -31.7694 -31.7548 -31.7546 -31.7521 -31.7518
    -8.7449  -8.7448  -7.9692  -7.9691   4.7361   4.7362   4.7506   4.7506
     5.0112   5.0115   5.8668   5.8672   6.8330   6.8330   6.8597   6.8597

          k =-0.5000 0.0000 0.2500 (  5214 PWs)   bands (ev):

   -65.0053 -65.0049 -65.0021 -65.0015 -31.7911 -31.7909 -31.7837 -31.7836
   -31.7778 -31.7775 -31.7601 -31.7600 -31.7569 -31.7566 -31.7517 -31.7516
    -8.6120  -8.6119  -8.0593  -8.0592   4.3249   4.3250   4.6523   4.6525
     4.9960   4.9961   6.4254   6.4256   6.4490   6.4490   6.9734   6.9734

          k =-0.5000 0.0000-0.5000 (  5248 PWs)   bands (ev):

   -65.0037 -65.0037 -65.0037 -65.0027 -31.7925 -31.7923 -31.7922 -31.7922
   -31.7685 -31.7683 -31.7683 -31.7680 -31.7527 -31.7525 -31.7524 -31.7524
    -8.3144  -8.3142  -8.3142  -8.3142   4.2061   4.2061   4.2061   4.2063
     5.6554   5.6555   5.6558   5.6558   6.9341   6.9342   6.9342   6.9345

          k =-0.5000 0.2514 0.0000 (  5220 PWs)   bands (ev):

   -65.0053 -65.0049 -65.0021 -65.0015 -31.7894 -31.7893 -31.7837 -31.7837
   -31.7814 -31.7812 -31.7607 -31.7605 -31.7583 -31.7583 -31.7486 -31.7485
    -8.6102  -8.6101  -8.0572  -8.0571   4.3167   4.3167   4.6386   4.6389
     4.9863   4.9864   6.4383   6.4385   6.4667   6.4667   6.9631   6.9632

          k =-0.5000 0.2514 0.2500 (  5192 PWs)   bands (ev):

   -65.0049 -65.0045 -65.0025 -65.0019 -31.8004 -31.8002 -31.7934 -31.7933
   -31.7663 -31.7661 -31.7562 -31.7561 -31.7535 -31.7534 -31.7503 -31.7502
    -8.5028  -8.5027  -8.1080  -8.1079   3.7293   3.7293   4.0993   4.0995
     5.7189   5.7189   6.6208   6.6211   6.7441   6.7443   6.8946   6.8946

          k =-0.5000 0.2514-0.5000 (  5216 PWs)   bands (ev):

   -65.0037 -65.0037 -65.0037 -65.0027 -31.8040 -31.8037 -31.8037 -31.8037
   -31.7560 -31.7558 -31.7558 -31.7556 -31.7523 -31.7521 -31.7520 -31.7520
    -8.2770  -8.2768  -8.2768  -8.2768   3.5524   3.5525   3.5525   3.5526
     6.4102   6.4102   6.4104   6.4105   6.9352   6.9353   6.9353   6.9356

          k =-0.5000-0.5029 0.0000 (  5232 PWs)   bands (ev):

   -65.0037 -65.0037 -65.0037 -65.0027 -31.7914 -31.7913 -31.7910 -31.7909
   -31.7717 -31.7715 -31.7712 -31.7709 -31.7502 -31.7501 -31.7498 -31.7498
    -8.3135  -8.3134  -8.3073  -8.3072   4.1833   4.1834   4.1859   4.1860
     5.6504   5.6504   5.6658   5.6659   6.9401   6.9403   6.9451   6.9453

          k =-0.5000-0.5029 0.2500 (  5208 PWs)   bands (ev):

   -65.0037 -65.0037 -65.0037 -65.0027 -31.8037 -31.8035 -31.8034 -31.8034
   -31.7589 -31.7587 -31.7586 -31.7584 -31.7493 -31.7491 -31.7489 -31.7489
    -8.2771  -8.2770  -8.2727  -8.2726   3.5433   3.5434   3.5472   3.5473
     6.3992   6.3992   6.4081   6.4081   6.9419   6.9421   6.9454   6.9456

          k =-0.5000-0.5029-0.5000 (  5232 PWs)   bands (ev):

   -65.0037 -65.0037 -65.0037 -65.0027 -31.8122 -31.8119 -31.8119 -31.8119
   -31.7520 -31.7517 -31.7517 -31.7517 -31.7490 -31.7488 -31.7488 -31.7486
    -8.2391  -8.2388  -8.2388  -8.2388   3.1302   3.1303   3.1303   3.1303
     6.9363   6.9364   6.9364   6.9367   6.9471   6.9471   6.9473   6.9473

          k = 0.0000 0.2514-0.2500 (  5215 PWs)   bands (ev):

   -65.0079 -65.0026 -65.0022 -65.0012 -31.7951 -31.7928 -31.7917 -31.7797
   -31.7703 -31.7695 -31.7658 -31.7620 -31.7604 -31.7589 -31.7508 -31.7428
    -9.0541  -8.1762  -8.1658  -8.0057   4.0610   4.0658   4.2291   4.9666
     5.7182   5.9298   5.9568   6.3532   6.3628   6.4701   7.0499   7.3738

          k =-0.2500 0.2514-0.2500 (  5206 PWs)   bands (ev):

   -65.0069 -65.0026 -65.0025 -65.0018 -31.7979 -31.7978 -31.7965 -31.7793
   -31.7674 -31.7673 -31.7669 -31.7597 -31.7570 -31.7570 -31.7483 -31.7452
    -8.8891  -8.1434  -8.1433  -8.1359   3.9036   3.9061   3.9061   4.9749
     5.7314   5.7315   5.7400   6.5734   6.5895   6.5897   7.2256   7.2273

          k = 0.5000 0.2514-0.2500 (  5192 PWs)   bands (ev):

   -65.0049 -65.0045 -65.0025 -65.0019 -31.8004 -31.8002 -31.7934 -31.7933
   -31.7663 -31.7661 -31.7562 -31.7561 -31.7535 -31.7534 -31.7503 -31.7502
    -8.5028  -8.5027  -8.1080  -8.1079   3.7293   3.7293   4.0993   4.0995
     5.7189   5.7189   6.6208   6.6211   6.7441   6.7443   6.8946   6.8946

     highest occupied level (ev):     7.5418

!    total energy              =    -608.39225347 Ry
     Harris-Foulkes estimate   =    -608.39225347 Ry
     estimated scf accuracy    <          6.2E-10 Ry

     The total energy is the sum of the following terms:

     one-electron contribution =    -305.77165794 Ry
     hartree contribution      =     168.80824155 Ry
     xc contribution           =     -97.80008758 Ry
     ewald contribution        =    -373.62874951 Ry

     convergence has been achieved in   5 iterations

     Forces acting on atoms (cartesian axes, Ry/au):

     atom    1 type  1   force =     0.00000000    0.00117086   -0.00000681
     atom    2 type  1   force =     0.00000000   -0.00124112    0.00000711
     atom    3 type  1   force =     0.00000000    0.00128878    0.00000719
     atom    4 type  1   force =     0.00000000   -0.00124139   -0.00000746
     atom    5 type  2   force =     0.00000000    0.00120892   -0.00000706
     atom    6 type  2   force =     0.00000000   -0.00119690   -0.00000705
     atom    7 type  2   force =     0.00000000    0.00120860    0.00000700
     atom    8 type  2   force =     0.00000000   -0.00119775    0.00000708

     Total force =     0.003450     Total SCF correction =     0.000179


     Computing stress (Cartesian axis) and pressure

          total   stress  (Ry/bohr**3)                   (kbar)     P=  -83.70
  -0.00059002   0.00000000   0.00000000        -86.80      0.00      0.00
   0.00000000  -0.00052659   0.00000000          0.00    -77.46      0.00
   0.00000000   0.00000000  -0.00059038          0.00      0.00    -86.85


     number of scf cycles    =   3
     number of bfgs steps    =   2

     energy   old            =    -608.3921995534 Ry
     energy   new            =    -608.3922534670 Ry

     CASE: energy  _new < energy  _old

     new trust radius        =       0.0042111358 bohr
     new conv_thr            =       0.0000000005 Ry


ATOMIC_POSITIONS (alat)
Mg       0.000000000   0.001312444  -0.000007213
Mg       0.000000000   0.498673739   0.500007214
Mg       0.500000000   0.001361154   0.500007272
Mg       0.500000000   0.498673717  -0.000007465
O        0.500000000   0.001439424  -0.000007946
O        0.000000000   0.498552431  -0.000007950
O        0.000000000   0.001439577   0.500008024
O        0.500000000   0.498547515   0.500008066



     Writing output data file diamond.8.09071770150.70.4.save
     NEW-OLD atomic charge density approx. for the potential

     Check: negative/imaginary core charge=   -0.000007    0.000000

     total cpu time spent up to now is       29.1 secs

     per-process dynamical memory:    56.0 Mb

     Self-consistent Calculation

     iteration #  1     ecut=    70.00 Ry     beta=0.70
     Davidson diagonalization with overlap
     ethr =  1.00E-06,  avg # of iterations =  3.0

     Threshold (ethr) on eigenvalues was too large:
     Diagonalizing with lowered threshold

     Davidson diagonalization with overlap
     ethr =  3.52E-08,  avg # of iterations =  1.2

     total cpu time spent up to now is       32.0 secs

     total energy              =    -608.39226582 Ry
     Harris-Foulkes estimate   =    -608.39228246 Ry
     estimated scf accuracy    <       0.00002275 Ry

     iteration #  2     ecut=    70.00 Ry     beta=0.70
     Davidson diagonalization with overlap
     ethr =  3.55E-08,  avg # of iterations =  2.2

     total cpu time spent up to now is       33.2 secs

     total energy              =    -608.39227271 Ry
     Harris-Foulkes estimate   =    -608.39227501 Ry
     estimated scf accuracy    <       0.00000384 Ry

     iteration #  3     ecut=    70.00 Ry     beta=0.70
     Davidson diagonalization with overlap
     ethr =  5.99E-09,  avg # of iterations =  2.0

     total cpu time spent up to now is       34.4 secs

     total energy              =    -608.39227354 Ry
     Harris-Foulkes estimate   =    -608.39227353 Ry
     estimated scf accuracy    <       0.00000003 Ry

     iteration #  4     ecut=    70.00 Ry     beta=0.70
     Davidson diagonalization with overlap
     ethr =  4.36E-11,  avg # of iterations =  2.5

     total cpu time spent up to now is       35.8 secs

     total energy              =    -608.39227355 Ry
     Harris-Foulkes estimate   =    -608.39227355 Ry
     estimated scf accuracy    <          3.6E-09 Ry

     iteration #  5     ecut=    70.00 Ry     beta=0.70
     Davidson diagonalization with overlap
     ethr =  5.60E-12,  avg # of iterations =  2.7

     total cpu time spent up to now is       37.1 secs

     End of self-consistent calculation

          k = 0.0000 0.0000 0.0000 (  5193 PWs)   bands (ev):

   -65.0104 -65.0015 -65.0014 -65.0007 -31.8031 -31.8030 -31.8001 -31.7680
   -31.7680 -31.7668 -31.7667 -31.7645 -31.7644 -31.7426 -31.7426 -31.7385
    -9.4452  -8.0305  -8.0304  -8.0158   3.6619   3.6620   3.6804   6.2458
     6.2460   6.2505   6.2509   6.2863   6.2864   7.5287   7.5417   7.5418

          k = 0.0000 0.0000 0.2500 (  5198 PWs)   bands (ev):

   -65.0090 -65.0027 -65.0014 -65.0008 -31.7974 -31.7951 -31.7944 -31.7735
   -31.7692 -31.7686 -31.7675 -31.7634 -31.7609 -31.7545 -31.7465 -31.7434
    -9.2422  -8.2403  -8.0014  -7.9910   3.9489   3.9661   3.9944   5.7322
     5.7411   6.0473   6.0750   6.4119   6.4450   6.5319   7.3095   7.3275

          k = 0.0000 0.0000-0.5000 (  5214 PWs)   bands (ev):

   -65.0060 -65.0056 -65.0014 -65.0009 -31.7864 -31.7862 -31.7818 -31.7815
   -31.7755 -31.7755 -31.7695 -31.7695 -31.7548 -31.7546 -31.7521 -31.7518
    -8.7449  -8.7449  -7.9691  -7.9691   4.7362   4.7362   4.7505   4.7505
     5.0112   5.0115   5.8670   5.8673   6.8331   6.8331   6.8597   6.8597

          k = 0.0000 0.2514 0.0000 (  5193 PWs)   bands (ev):

   -65.0090 -65.0025 -65.0015 -65.0009 -31.7972 -31.7972 -31.7904 -31.7724
   -31.7724 -31.7652 -31.7652 -31.7644 -31.7644 -31.7497 -31.7474 -31.7474
    -9.2390  -8.2263  -8.0019  -8.0019   3.9527   3.9528   4.0046   5.7634
     5.7635   6.0383   6.0387   6.4090   6.4092   6.5203   7.3192   7.3193

          k = 0.0000 0.2514 0.2500 (  5215 PWs)   bands (ev):

   -65.0079 -65.0026 -65.0022 -65.0012 -31.7951 -31.7928 -31.7917 -31.7797
   -31.7703 -31.7695 -31.7658 -31.7621 -31.7604 -31.7589 -31.7508 -31.7428
    -9.0541  -8.1762  -8.1658  -8.0057   4.0610   4.0658   4.2291   4.9665
     5.7182   5.9299   5.9568   6.3532   6.3628   6.4700   7.0499   7.3738

          k = 0.0000 0.2514-0.5000 (  5216 PWs)   bands (ev):

   -65.0054 -65.0049 -65.0021 -65.0015 -31.7894 -31.7893 -31.7837 -31.7837
   -31.7814 -31.7812 -31.7604 -31.7602 -31.7584 -31.7583 -31.7485 -31.7484
    -8.6102  -8.6102  -8.0572  -8.0572   4.3167   4.3168   4.6388   4.6390
     4.9864   4.9864   6.4384   6.4386   6.4666   6.4667   6.9632   6.9633

          k = 0.0000-0.5029 0.0000 (  5190 PWs)   bands (ev):

   -65.0060 -65.0055 -65.0015 -65.0009 -31.7855 -31.7855 -31.7853 -31.7853
   -31.7725 -31.7724 -31.7633 -31.7632 -31.7554 -31.7554 -31.7552 -31.7552
    -8.7352  -8.7350  -7.9730  -7.9730   4.7512   4.7513   4.7517   4.7518
     5.0056   5.0059   5.8388   5.8390   6.8362   6.8363   6.8364   6.8364

          k = 0.0000-0.5029 0.2500 (  5198 PWs)   bands (ev):

   -65.0053 -65.0049 -65.0021 -65.0016 -31.7899 -31.7898 -31.7818 -31.7817
   -31.7808 -31.7806 -31.7609 -31.7607 -31.7563 -31.7563 -31.7502 -31.7501
    -8.6038  -8.6036  -8.0607  -8.0607   4.3165   4.3169   4.6345   4.6348
     4.9974   4.9979   6.4218   6.4220   6.4513   6.4515   6.9695   6.9697

          k = 0.0000-0.5029-0.5000 (  5232 PWs)   bands (ev):

   -65.0037 -65.0037 -65.0037 -65.0027 -31.7914 -31.7912 -31.7910 -31.7910
   -31.7716 -31.7714 -31.7714 -31.7711 -31.7502 -31.7500 -31.7499 -31.7499
    -8.3104  -8.3104  -8.3103  -8.3103   4.1846   4.1846   4.1849   4.1851
     5.6578   5.6579   5.6584   5.6584   6.9425   6.9427   6.9427   6.9428

          k = 0.2500 0.0000 0.0000 (  5198 PWs)   bands (ev):

   -65.0090 -65.0027 -65.0014 -65.0008 -31.7974 -31.7951 -31.7944 -31.7736
   -31.7692 -31.7686 -31.7675 -31.7634 -31.7609 -31.7545 -31.7465 -31.7434
    -9.2422  -8.2403  -8.0015  -7.9910   3.9488   3.9661   3.9945   5.7323
     5.7413   6.0471   6.0750   6.4117   6.4450   6.5319   7.3094   7.3275

          k = 0.2500 0.0000 0.2500 (  5213 PWs)   bands (ev):

   -65.0079 -65.0026 -65.0022 -65.0012 -31.7953 -31.7952 -31.7895 -31.7811
   -31.7669 -31.7659 -31.7658 -31.7629 -31.7621 -31.7619 -31.7476 -31.7448
    -9.0569  -8.1765  -8.1764  -7.9987   4.0647   4.0647   4.2418   4.9665
     5.7351   5.9355   5.9358   6.3796   6.3796   6.4513   7.0367   7.3763

          k = 0.2500 0.0000-0.5000 (  5214 PWs)   bands (ev):

   -65.0054 -65.0049 -65.0021 -65.0015 -31.7911 -31.7910 -31.7837 -31.7836
   -31.7778 -31.7776 -31.7601 -31.7600 -31.7569 -31.7567 -31.7517 -31.7516
    -8.6120  -8.6119  -8.0592  -8.0592   4.3249   4.3250   4.6524   4.6526
     4.9959   4.9959   6.4259   6.4261   6.4487   6.4487   6.9733   6.9734

          k = 0.2500 0.2514 0.0000 (  5215 PWs)   bands (ev):

   -65.0079 -65.0026 -65.0022 -65.0012 -31.7951 -31.7928 -31.7917 -31.7797
   -31.7703 -31.7695 -31.7658 -31.7621 -31.7604 -31.7589 -31.7508 -31.7428
    -9.0541  -8.1761  -8.1658  -8.0058   4.0610   4.0657   4.2290   4.9665
     5.7181   5.9300   5.9568   6.3531   6.3627   6.4701   7.0499   7.3738

          k = 0.2500 0.2514 0.2500 (  5206 PWs)   bands (ev):

   -65.0069 -65.0026 -65.0025 -65.0018 -31.7979 -31.7978 -31.7965 -31.7793
   -31.7674 -31.7673 -31.7669 -31.7597 -31.7570 -31.7570 -31.7483 -31.7452
    -8.8891  -8.1433  -8.1433  -8.1359   3.9036   3.9061   3.9062   4.9749
     5.7314   5.7315   5.7400   6.5734   6.5895   6.5897   7.2256   7.2273

          k = 0.2500 0.2514-0.5000 (  5192 PWs)   bands (ev):

   -65.0049 -65.0045 -65.0025 -65.0020 -31.8004 -31.8002 -31.7934 -31.7933
   -31.7663 -31.7661 -31.7562 -31.7562 -31.7535 -31.7534 -31.7504 -31.7502
    -8.5027  -8.5027  -8.1079  -8.1079   3.7293   3.7294   4.0994   4.0995
     5.7189   5.7189   6.6209   6.6211   6.7441   6.7442   6.8946   6.8947

          k = 0.2500-0.5029 0.0000 (  5198 PWs)   bands (ev):

   -65.0053 -65.0049 -65.0021 -65.0016 -31.7899 -31.7898 -31.7818 -31.7817
   -31.7809 -31.7806 -31.7609 -31.7607 -31.7563 -31.7562 -31.7502 -31.7501
    -8.6037  -8.6036  -8.0607  -8.0607   4.3165   4.3169   4.6345   4.6348
     4.9974   4.9979   6.4219   6.4221   6.4514   6.4516   6.9695   6.9696

          k = 0.2500-0.5029 0.2500 (  5200 PWs)   bands (ev):

   -65.0048 -65.0044 -65.0026 -65.0020 -31.8009 -31.8008 -31.7932 -31.7931
   -31.7684 -31.7682 -31.7540 -31.7538 -31.7534 -31.7534 -31.7512 -31.7512
    -8.4975  -8.4974  -8.1098  -8.1098   3.7280   3.7280   4.0903   4.0905
     5.7198   5.7198   6.6164   6.6166   6.7519   6.7522   6.8852   6.8853

          k = 0.2500-0.5029-0.5000 (  5208 PWs)   bands (ev):

   -65.0037 -65.0037 -65.0037 -65.0027 -31.8037 -31.8035 -31.8035 -31.8034
   -31.7588 -31.7586 -31.7586 -31.7585 -31.7493 -31.7491 -31.7490 -31.7489
    -8.2749  -8.2749  -8.2748  -8.2748   3.5452   3.5453   3.5454   3.5455
     6.4035   6.4036   6.4039   6.4039   6.9436   6.9437   6.9437   6.9439

          k =-0.5000 0.0000 0.0000 (  5214 PWs)   bands (ev):

   -65.0060 -65.0056 -65.0014 -65.0009 -31.7864 -31.7862 -31.7818 -31.7815
   -31.7755 -31.7755 -31.7695 -31.7694 -31.7549 -31.7546 -31.7521 -31.7518
    -8.7449  -8.7448  -7.9692  -7.9691   4.7362   4.7362   4.7506   4.7506
     5.0112   5.0115   5.8669   5.8672   6.8330   6.8330   6.8597   6.8597

          k =-0.5000 0.0000 0.2500 (  5214 PWs)   bands (ev):

   -65.0054 -65.0049 -65.0021 -65.0015 -31.7911 -31.7910 -31.7837 -31.7836
   -31.7778 -31.7776 -31.7601 -31.7600 -31.7569 -31.7567 -31.7517 -31.7516
    -8.6120  -8.6119  -8.0593  -8.0592   4.3249   4.3250   4.6524   4.6526
     4.9960   4.9960   6.4258   6.4260   6.4486   6.4486   6.9734   6.9734

          k =-0.5000 0.0000-0.5000 (  5248 PWs)   bands (ev):

   -65.0037 -65.0037 -65.0037 -65.0027 -31.7925 -31.7923 -31.7922 -31.7922
   -31.7685 -31.7683 -31.7683 -31.7680 -31.7527 -31.7525 -31.7524 -31.7524
    -8.3143  -8.3142  -8.3142  -8.3142   4.2061   4.2062   4.2062   4.2063
     5.6555   5.6555   5.6557   5.6558   6.9341   6.9343   6.9343   6.9344

          k =-0.5000 0.2514 0.0000 (  5220 PWs)   bands (ev):

   -65.0054 -65.0049 -65.0021 -65.0015 -31.7894 -31.7893 -31.7837 -31.7837
   -31.7814 -31.7812 -31.7607 -31.7605 -31.7583 -31.7583 -31.7486 -31.7485
    -8.6102  -8.6101  -8.0572  -8.0572   4.3167   4.3167   4.6387   4.6389
     4.9864   4.9864   6.4383   6.4386   6.4667   6.4667   6.9631   6.9632

          k =-0.5000 0.2514 0.2500 (  5192 PWs)   bands (ev):

   -65.0049 -65.0045 -65.0025 -65.0020 -31.8004 -31.8002 -31.7934 -31.7933
   -31.7663 -31.7661 -31.7562 -31.7562 -31.7535 -31.7534 -31.7504 -31.7502
    -8.5027  -8.5027  -8.1079  -8.1079   3.7293   3.7293   4.0994   4.0995
     5.7189   5.7189   6.6209   6.6211   6.7441   6.7443   6.8946   6.8946

          k =-0.5000 0.2514-0.5000 (  5216 PWs)   bands (ev):

   -65.0037 -65.0037 -65.0037 -65.0027 -31.8040 -31.8037 -31.8037 -31.8037
   -31.7560 -31.7558 -31.7558 -31.7556 -31.7523 -31.7521 -31.7520 -31.7520
    -8.2769  -8.2768  -8.2768  -8.2768   3.5524   3.5525   3.5525   3.5526
     6.4102   6.4103   6.4104   6.4104   6.9352   6.9354   6.9354   6.9356

          k =-0.5000-0.5029 0.0000 (  5232 PWs)   bands (ev):

   -65.0037 -65.0037 -65.0037 -65.0027 -31.7914 -31.7912 -31.7910 -31.7910
   -31.7716 -31.7714 -31.7714 -31.7711 -31.7502 -31.7500 -31.7499 -31.7498
    -8.3104  -8.3104  -8.3103  -8.3102   4.1844   4.1845   4.1847   4.1849
     5.6579   5.6579   5.6583   5.6584   6.9425   6.9427   6.9427   6.9429

          k =-0.5000-0.5029 0.2500 (  5208 PWs)   bands (ev):

   -65.0037 -65.0037 -65.0037 -65.0027 -31.8037 -31.8035 -31.8035 -31.8034
   -31.7588 -31.7586 -31.7586 -31.7585 -31.7493 -31.7491 -31.7490 -31.7489
    -8.2749  -8.2749  -8.2748  -8.2748   3.5452   3.5453   3.5454   3.5454
     6.4035   6.4036   6.4038   6.4039   6.9436   6.9438   6.9438   6.9439

          k =-0.5000-0.5029-0.5000 (  5232 PWs)   bands (ev):

   -65.0037 -65.0037 -65.0037 -65.0027 -31.8122 -31.8119 -31.8119 -31.8119
   -31.7520 -31.7518 -31.7517 -31.7517 -31.7490 -31.7488 -31.7488 -31.7486
    -8.2389  -8.2388  -8.2388  -8.2388   3.1302   3.1303   3.1303   3.1303
     6.9363   6.9365   6.9365   6.9366   6.9470   6.9472   6.9473   6.9473

          k = 0.0000 0.2514-0.2500 (  5215 PWs)   bands (ev):

   -65.0079 -65.0026 -65.0022 -65.0012 -31.7951 -31.7928 -31.7917 -31.7797
   -31.7703 -31.7695 -31.7658 -31.7621 -31.7604 -31.7589 -31.7508 -31.7428
    -9.0541  -8.1762  -8.1658  -8.0057   4.0610   4.0658   4.2291   4.9665
     5.7182   5.9299   5.9568   6.3532   6.3628   6.4700   7.0499   7.3738

          k =-0.2500 0.2514-0.2500 (  5206 PWs)   bands (ev):

   -65.0069 -65.0026 -65.0025 -65.0018 -31.7979 -31.7978 -31.7965 -31.7793
   -31.7674 -31.7673 -31.7669 -31.7597 -31.7570 -31.7570 -31.7483 -31.7452
    -8.8891  -8.1433  -8.1433  -8.1359   3.9036   3.9061   3.9062   4.9749
     5.7314   5.7315   5.7400   6.5734   6.5895   6.5897   7.2256   7.2273

          k = 0.5000 0.2514-0.2500 (  5192 PWs)   bands (ev):

   -65.0049 -65.0045 -65.0025 -65.0020 -31.8004 -31.8002 -31.7934 -31.7933
   -31.7663 -31.7661 -31.7562 -31.7562 -31.7535 -31.7534 -31.7504 -31.7502
    -8.5027  -8.5027  -8.1079  -8.1079   3.7293   3.7293   4.0994   4.0995
     5.7189   5.7189   6.6209   6.6211   6.7441   6.7443   6.8946   6.8946

     highest occupied level (ev):     7.5418

!    total energy              =    -608.39227355 Ry
     Harris-Foulkes estimate   =    -608.39227355 Ry
     estimated scf accuracy    <          5.0E-10 Ry

     The total energy is the sum of the following terms:

     one-electron contribution =    -305.76750916 Ry
     hartree contribution      =     168.80615308 Ry
     xc contribution           =     -97.80004524 Ry
     ewald contribution        =    -373.63087222 Ry

     convergence has been achieved in   5 iterations

     Forces acting on atoms (cartesian axes, Ry/au):

     atom    1 type  1   force =     0.00000000    0.00001454   -0.00000068
     atom    2 type  1   force =     0.00000000   -0.00012667    0.00000133
     atom    3 type  1   force =     0.00000000    0.00015766    0.00000132
     atom    4 type  1   force =     0.00000000   -0.00012682   -0.00000149
     atom    5 type  2   force =     0.00000000   -0.00007624   -0.00000018
     atom    6 type  2   force =     0.00000000    0.00010760   -0.00000016
     atom    7 type  2   force =     0.00000000   -0.00007738   -0.00000003
     atom    8 type  2   force =     0.00000000    0.00012731   -0.00000012

     Total force =     0.000311     Total SCF correction =     0.000207
     SCF correction compared to forces is large: reduce conv_thr to get better values


     Computing stress (Cartesian axis) and pressure

          total   stress  (Ry/bohr**3)                   (kbar)     P=  -83.72
  -0.00059003   0.00000000   0.00000000        -86.80      0.00      0.00
   0.00000000  -0.00052702   0.00000000          0.00    -77.53      0.00
   0.00000000   0.00000000  -0.00059039          0.00      0.00    -86.85


     number of scf cycles    =   4
     number of bfgs steps    =   3

     energy   old            =    -608.3922534670 Ry
     energy   new            =    -608.3922735463 Ry

     CASE: energy  _new < energy  _old

     new trust radius        =       0.0001756312 bohr
     new conv_thr            =       0.0000000002 Ry


ATOMIC_POSITIONS (alat)
Mg       0.000000000   0.001316310  -0.000007309
Mg       0.000000000   0.498655933   0.500007391
Mg       0.500000000   0.001382861   0.500007448
Mg       0.500000000   0.498655891  -0.000007661
O        0.500000000   0.001432222  -0.000007982
O        0.000000000   0.498563514  -0.000007982
O        0.000000000   0.001432234   0.500008033
O        0.500000000   0.498561036   0.500008064



     Writing output data file diamond.8.09071770150.70.4.save
     NEW-OLD atomic charge density approx. for the potential

     Check: negative/imaginary core charge=   -0.000007    0.000000

     total cpu time spent up to now is       37.9 secs

     per-process dynamical memory:    56.0 Mb

     Self-consistent Calculation

     iteration #  1     ecut=    70.00 Ry     beta=0.70
     Davidson diagonalization with overlap
     ethr =  1.00E-06,  avg # of iterations =  1.9

     Threshold (ethr) on eigenvalues was too large:
     Diagonalizing with lowered threshold

     Davidson diagonalization with overlap
     ethr =  1.16E-11,  avg # of iterations =  3.5

     total cpu time spent up to now is       40.9 secs

     total energy              =    -608.39227363 Ry
     Harris-Foulkes estimate   =    -608.39227363 Ry
     estimated scf accuracy    <          5.1E-09 Ry

     iteration #  2     ecut=    70.00 Ry     beta=0.70
     Davidson diagonalization with overlap
     ethr =  7.94E-12,  avg # of iterations =  3.0

     total cpu time spent up to now is       42.2 secs

     total energy              =    -608.39227363 Ry
     Harris-Foulkes estimate   =    -608.39227363 Ry
     estimated scf accuracy    <          3.1E-09 Ry

     iteration #  3     ecut=    70.00 Ry     beta=0.70
     Davidson diagonalization with overlap
     ethr =  4.92E-12,  avg # of iterations =  3.0

     total cpu time spent up to now is       43.6 secs

     total energy              =    -608.39227363 Ry
     Harris-Foulkes estimate   =    -608.39227363 Ry
     estimated scf accuracy    <          4.3E-10 Ry

     iteration #  4     ecut=    70.00 Ry     beta=0.70
     Davidson diagonalization with overlap
     ethr =  6.68E-13,  avg # of iterations =  2.7

     total cpu time spent up to now is       44.9 secs

     End of self-consistent calculation

          k = 0.0000 0.0000 0.0000 (  5193 PWs)   bands (ev):

   -65.0104 -65.0015 -65.0014 -65.0007 -31.8031 -31.8030 -31.8001 -31.7680
   -31.7680 -31.7668 -31.7667 -31.7645 -31.7644 -31.7426 -31.7426 -31.7385
    -9.4452  -8.0305  -8.0304  -8.0158   3.6619   3.6620   3.6804   6.2458
     6.2460   6.2505   6.2509   6.2863   6.2864   7.5287   7.5417   7.5418

          k = 0.0000 0.0000 0.2500 (  5198 PWs)   bands (ev):

   -65.0090 -65.0027 -65.0014 -65.0008 -31.7974 -31.7951 -31.7944 -31.7735
   -31.7692 -31.7686 -31.7675 -31.7634 -31.7609 -31.7545 -31.7465 -31.7434
    -9.2422  -8.2404  -8.0014  -7.9910   3.9489   3.9661   3.9944   5.7321
     5.7411   6.0473   6.0750   6.4119   6.4450   6.5319   7.3095   7.3275

          k = 0.0000 0.0000-0.5000 (  5214 PWs)   bands (ev):

   -65.0060 -65.0056 -65.0014 -65.0009 -31.7864 -31.7862 -31.7818 -31.7815
   -31.7755 -31.7755 -31.7695 -31.7695 -31.7548 -31.7546 -31.7521 -31.7518
    -8.7450  -8.7449  -7.9692  -7.9691   4.7361   4.7362   4.7505   4.7505
     5.0112   5.0115   5.8670   5.8674   6.8331   6.8331   6.8597   6.8597

          k = 0.0000 0.2514 0.0000 (  5193 PWs)   bands (ev):

   -65.0090 -65.0025 -65.0015 -65.0009 -31.7972 -31.7972 -31.7904 -31.7724
   -31.7724 -31.7652 -31.7652 -31.7644 -31.7644 -31.7497 -31.7474 -31.7474
    -9.2390  -8.2263  -8.0019  -8.0018   3.9527   3.9528   4.0046   5.7634
     5.7635   6.0383   6.0387   6.4090   6.4092   6.5203   7.3191   7.3193

          k = 0.0000 0.2514 0.2500 (  5215 PWs)   bands (ev):

   -65.0079 -65.0026 -65.0022 -65.0012 -31.7951 -31.7928 -31.7917 -31.7797
   -31.7703 -31.7695 -31.7658 -31.7621 -31.7604 -31.7589 -31.7508 -31.7428
    -9.0541  -8.1762  -8.1658  -8.0057   4.0610   4.0658   4.2291   4.9665
     5.7182   5.9299   5.9568   6.3532   6.3628   6.4700   7.0499   7.3738

          k = 0.0000 0.2514-0.5000 (  5216 PWs)   bands (ev):

   -65.0054 -65.0049 -65.0021 -65.0015 -31.7894 -31.7893 -31.7837 -31.7837
   -31.7814 -31.7812 -31.7604 -31.7602 -31.7584 -31.7583 -31.7485 -31.7484
    -8.6102  -8.6102  -8.0572  -8.0571   4.3167   4.3168   4.6388   4.6390
     4.9864   4.9864   6.4383   6.4386   6.4666   6.4667   6.9632   6.9632

          k = 0.0000-0.5029 0.0000 (  5190 PWs)   bands (ev):

   -65.0060 -65.0055 -65.0015 -65.0009 -31.7855 -31.7855 -31.7853 -31.7853
   -31.7725 -31.7724 -31.7633 -31.7632 -31.7554 -31.7554 -31.7552 -31.7552
    -8.7352  -8.7349  -7.9731  -7.9730   4.7512   4.7512   4.7518   4.7519
     5.0056   5.0059   5.8387   5.8390   6.8362   6.8363   6.8363   6.8365

          k = 0.0000-0.5029 0.2500 (  5198 PWs)   bands (ev):

   -65.0053 -65.0049 -65.0021 -65.0016 -31.7899 -31.7898 -31.7818 -31.7817
   -31.7808 -31.7806 -31.7609 -31.7607 -31.7563 -31.7563 -31.7502 -31.7501
    -8.6038  -8.6035  -8.0607  -8.0606   4.3165   4.3169   4.6346   4.6348
     4.9974   4.9980   6.4218   6.4220   6.4513   6.4516   6.9695   6.9697

          k = 0.0000-0.5029-0.5000 (  5232 PWs)   bands (ev):

   -65.0037 -65.0037 -65.0037 -65.0027 -31.7914 -31.7912 -31.7910 -31.7910
   -31.7716 -31.7714 -31.7714 -31.7711 -31.7502 -31.7500 -31.7499 -31.7499
    -8.3105  -8.3104  -8.3103  -8.3102   4.1846   4.1847   4.1848   4.1850
     5.6578   5.6578   5.6584   5.6584   6.9425   6.9426   6.9427   6.9428

          k = 0.2500 0.0000 0.0000 (  5198 PWs)   bands (ev):

   -65.0090 -65.0026 -65.0014 -65.0008 -31.7974 -31.7951 -31.7944 -31.7736
   -31.7692 -31.7686 -31.7675 -31.7634 -31.7609 -31.7545 -31.7465 -31.7434
    -9.2422  -8.2403  -8.0015  -7.9910   3.9488   3.9661   3.9945   5.7323
     5.7413   6.0471   6.0750   6.4117   6.4450   6.5319   7.3094   7.3275

          k = 0.2500 0.0000 0.2500 (  5213 PWs)   bands (ev):

   -65.0079 -65.0026 -65.0022 -65.0012 -31.7953 -31.7952 -31.7895 -31.7811
   -31.7669 -31.7659 -31.7658 -31.7629 -31.7621 -31.7619 -31.7476 -31.7448
    -9.0570  -8.1765  -8.1764  -7.9987   4.0647   4.0647   4.2418   4.9665
     5.7351   5.9355   5.9358   6.3796   6.3796   6.4513   7.0367   7.3763

          k = 0.2500 0.0000-0.5000 (  5214 PWs)   bands (ev):

   -65.0054 -65.0049 -65.0021 -65.0015 -31.7911 -31.7910 -31.7837 -31.7836
   -31.7778 -31.7776 -31.7601 -31.7600 -31.7569 -31.7567 -31.7517 -31.7516
    -8.6120  -8.6119  -8.0593  -8.0592   4.3249   4.3250   4.6524   4.6526
     4.9959   4.9959   6.4259   6.4261   6.4487   6.4487   6.9733   6.9734

          k = 0.2500 0.2514 0.0000 (  5215 PWs)   bands (ev):

   -65.0079 -65.0026 -65.0022 -65.0012 -31.7951 -31.7928 -31.7917 -31.7797
   -31.7703 -31.7695 -31.7658 -31.7621 -31.7604 -31.7589 -31.7508 -31.7428
    -9.0541  -8.1761  -8.1658  -8.0058   4.0610   4.0657   4.2290   4.9665
     5.7181   5.9300   5.9568   6.3531   6.3627   6.4701   7.0499   7.3738

          k = 0.2500 0.2514 0.2500 (  5206 PWs)   bands (ev):

   -65.0069 -65.0026 -65.0025 -65.0018 -31.7979 -31.7978 -31.7965 -31.7793
   -31.7674 -31.7673 -31.7669 -31.7597 -31.7570 -31.7570 -31.7483 -31.7452
    -8.8891  -8.1434  -8.1433  -8.1359   3.9036   3.9061   3.9062   4.9749
     5.7314   5.7315   5.7399   6.5734   6.5895   6.5897   7.2256   7.2273

          k = 0.2500 0.2514-0.5000 (  5192 PWs)   bands (ev):

   -65.0049 -65.0045 -65.0025 -65.0020 -31.8004 -31.8002 -31.7934 -31.7933
   -31.7663 -31.7661 -31.7562 -31.7562 -31.7535 -31.7534 -31.7504 -31.7502
    -8.5028  -8.5027  -8.1079  -8.1079   3.7293   3.7293   4.0994   4.0995
     5.7189   5.7189   6.6209   6.6211   6.7441   6.7442   6.8946   6.8947

          k = 0.2500-0.5029 0.0000 (  5198 PWs)   bands (ev):

   -65.0053 -65.0049 -65.0021 -65.0016 -31.7899 -31.7898 -31.7818 -31.7817
   -31.7809 -31.7806 -31.7609 -31.7607 -31.7563 -31.7562 -31.7502 -31.7501
    -8.6038  -8.6035  -8.0607  -8.0606   4.3165   4.3169   4.6345   4.6347
     4.9973   4.9979   6.4219   6.4221   6.4514   6.4517   6.9695   6.9696

          k = 0.2500-0.5029 0.2500 (  5200 PWs)   bands (ev):

   -65.0048 -65.0044 -65.0026 -65.0020 -31.8009 -31.8008 -31.7932 -31.7931
   -31.7684 -31.7682 -31.7540 -31.7538 -31.7534 -31.7534 -31.7512 -31.7512
    -8.4976  -8.4973  -8.1098  -8.1097   3.7280   3.7280   4.0903   4.0905
     5.7198   5.7198   6.6164   6.6166   6.7519   6.7522   6.8852   6.8853

          k = 0.2500-0.5029-0.5000 (  5208 PWs)   bands (ev):

   -65.0037 -65.0037 -65.0037 -65.0027 -31.8037 -31.8035 -31.8035 -31.8034
   -31.7588 -31.7586 -31.7586 -31.7585 -31.7493 -31.7491 -31.7490 -31.7489
    -8.2750  -8.2749  -8.2748  -8.2748   3.5452   3.5453   3.5454   3.5454
     6.4035   6.4036   6.4039   6.4039   6.9436   6.9437   6.9437   6.9439

          k =-0.5000 0.0000 0.0000 (  5214 PWs)   bands (ev):

   -65.0060 -65.0056 -65.0014 -65.0009 -31.7864 -31.7862 -31.7818 -31.7815
   -31.7755 -31.7755 -31.7695 -31.7694 -31.7549 -31.7546 -31.7521 -31.7518
    -8.7449  -8.7448  -7.9692  -7.9691   4.7362   4.7362   4.7506   4.7506
     5.0112   5.0115   5.8669   5.8672   6.8330   6.8330   6.8597   6.8597

          k =-0.5000 0.0000 0.2500 (  5214 PWs)   bands (ev):

   -65.0054 -65.0049 -65.0021 -65.0015 -31.7911 -31.7910 -31.7837 -31.7836
   -31.7778 -31.7776 -31.7601 -31.7600 -31.7569 -31.7567 -31.7517 -31.7516
    -8.6120  -8.6119  -8.0593  -8.0592   4.3249   4.3250   4.6524   4.6526
     4.9960   4.9960   6.4258   6.4260   6.4486   6.4486   6.9734   6.9734

          k =-0.5000 0.0000-0.5000 (  5248 PWs)   bands (ev):

   -65.0037 -65.0037 -65.0037 -65.0027 -31.7925 -31.7923 -31.7922 -31.7922
   -31.7685 -31.7683 -31.7683 -31.7680 -31.7527 -31.7525 -31.7524 -31.7524
    -8.3144  -8.3142  -8.3142  -8.3142   4.2061   4.2062   4.2062   4.2063
     5.6554   5.6555   5.6558   5.6558   6.9341   6.9343   6.9343   6.9345

          k =-0.5000 0.2514 0.0000 (  5220 PWs)   bands (ev):

   -65.0054 -65.0049 -65.0021 -65.0015 -31.7894 -31.7893 -31.7837 -31.7837
   -31.7814 -31.7812 -31.7607 -31.7605 -31.7583 -31.7583 -31.7486 -31.7485
[...]
   -31.7674 -31.7673 -31.7669 -31.7597 -31.7570 -31.7570 -31.7483 -31.7452
    -8.8891  -8.1434  -8.1433  -8.1359   3.9036   3.9061   3.9062   4.9749
     5.7314   5.7315   5.7399   6.5734   6.5895   6.5897   7.2256   7.2273

          k = 0.5000 0.2514-0.2500 (  5192 PWs)   bands (ev):

   -65.0049 -65.0045 -65.0025 -65.0020 -31.8004 -31.8002 -31.7934 -31.7933
   -31.7663 -31.7661 -31.7562 -31.7562 -31.7535 -31.7534 -31.7504 -31.7502
    -8.5027  -8.5027  -8.1080  -8.1079   3.7293   3.7293   4.0994   4.0995
     5.7189   5.7189   6.6209   6.6211   6.7441   6.7443   6.8946   6.8946

     highest occupied level (ev):     7.5418

!    total energy              =    -608.39227363 Ry
     Harris-Foulkes estimate   =    -608.39227363 Ry
     estimated scf accuracy    <          5.0E-12 Ry

     The total energy is the sum of the following terms:

     one-electron contribution =    -305.76751380 Ry
     hartree contribution      =     168.80616463 Ry
     xc contribution           =     -97.80004992 Ry
     ewald contribution        =    -373.63087454 Ry

     convergence has been achieved in   4 iterations

     Forces acting on atoms (cartesian axes, Ry/au):

     atom    1 type  1   force =     0.00000000   -0.00000763   -0.00000039
     atom    2 type  1   force =     0.00000000   -0.00008607    0.00000096
     atom    3 type  1   force =     0.00000000    0.00011256    0.00000094
     atom    4 type  1   force =     0.00000000   -0.00008612   -0.00000109
     atom    5 type  2   force =     0.00000000   -0.00005380   -0.00000012
     atom    6 type  2   force =     0.00000000    0.00007552   -0.00000013
     atom    7 type  2   force =     0.00000000   -0.00005351   -0.00000003
     atom    8 type  2   force =     0.00000000    0.00009905   -0.00000014

     Total force =     0.000221     Total SCF correction =     0.000008


     Computing stress (Cartesian axis) and pressure

          total   stress  (Ry/bohr**3)                   (kbar)     P=  -83.72
  -0.00059001   0.00000000   0.00000000        -86.79      0.00      0.00
   0.00000000  -0.00052700   0.00000000          0.00    -77.52      0.00
   0.00000000   0.00000000  -0.00059037          0.00      0.00    -86.85


     number of scf cycles    =   5
     number of bfgs steps    =   4

     energy   old            =    -608.3922735463 Ry
     energy   new            =    -608.3922736293 Ry

     CASE: energy  _new < energy  _old

     new trust radius        =       0.0001931943 bohr
     new conv_thr            =            1.0E-10 Ry


ATOMIC_POSITIONS (alat)
Mg       0.000000000   0.001315588  -0.000007394
Mg       0.000000000   0.498637488   0.500007592
Mg       0.500000000   0.001406739   0.500007646
Mg       0.500000000   0.498637436  -0.000007889
O        0.500000000   0.001421989  -0.000008011
O        0.000000000   0.498578206  -0.000008014
O        0.000000000   0.001422052   0.500008032
O        0.500000000   0.498580503   0.500008039



     Writing output data file diamond.8.09071770150.70.4.save
     NEW-OLD atomic charge density approx. for the potential

     Check: negative/imaginary core charge=   -0.000007    0.000000

     total cpu time spent up to now is       45.6 secs

     per-process dynamical memory:    56.0 Mb

     Self-consistent Calculation

     iteration #  1     ecut=    70.00 Ry     beta=0.70
     Davidson diagonalization with overlap
     ethr =  1.00E-06,  avg # of iterations =  1.9

     Threshold (ethr) on eigenvalues was too large:
     Diagonalizing with lowered threshold

     Davidson diagonalization with overlap
     ethr =  1.65E-11,  avg # of iterations =  3.6

     total cpu time spent up to now is       48.6 secs

     total energy              =    -608.39227369 Ry
     Harris-Foulkes estimate   =    -608.39227369 Ry
     estimated scf accuracy    <          7.0E-09 Ry

     iteration #  2     ecut=    70.00 Ry     beta=0.70
     Davidson diagonalization with overlap
     ethr =  1.10E-11,  avg # of iterations =  2.0

     total cpu time spent up to now is       49.8 secs

     total energy              =    -608.39227369 Ry
     Harris-Foulkes estimate   =    -608.39227369 Ry
     estimated scf accuracy    <          1.0E-09 Ry

     iteration #  3     ecut=    70.00 Ry     beta=0.70
     Davidson diagonalization with overlap
     ethr =  1.61E-12,  avg # of iterations =  2.0

     total cpu time spent up to now is       51.0 secs

     End of self-consistent calculation

          k = 0.0000 0.0000 0.0000 (  5193 PWs)   bands (ev):

   -65.0104 -65.0015 -65.0014 -65.0007 -31.8031 -31.8030 -31.8001 -31.7680
   -31.7680 -31.7668 -31.7667 -31.7645 -31.7644 -31.7426 -31.7426 -31.7385
    -9.4452  -8.0305  -8.0304  -8.0158   3.6619   3.6620   3.6804   6.2458
     6.2460   6.2505   6.2509   6.2863   6.2864   7.5287   7.5417   7.5418

          k = 0.0000 0.0000 0.2500 (  5198 PWs)   bands (ev):

   -65.0090 -65.0027 -65.0014 -65.0008 -31.7974 -31.7951 -31.7944 -31.7735
   -31.7692 -31.7686 -31.7675 -31.7634 -31.7609 -31.7545 -31.7465 -31.7434
    -9.2422  -8.2404  -8.0014  -7.9910   3.9489   3.9661   3.9944   5.7321
     5.7411   6.0473   6.0750   6.4119   6.4450   6.5319   7.3095   7.3275

          k = 0.0000 0.0000-0.5000 (  5214 PWs)   bands (ev):

   -65.0060 -65.0056 -65.0014 -65.0009 -31.7864 -31.7862 -31.7818 -31.7815
   -31.7755 -31.7755 -31.7695 -31.7695 -31.7548 -31.7546 -31.7521 -31.7518
    -8.7450  -8.7449  -7.9692  -7.9691   4.7361   4.7362   4.7505   4.7505
     5.0112   5.0115   5.8670   5.8674   6.8331   6.8331   6.8597   6.8597

          k = 0.0000 0.2514 0.0000 (  5193 PWs)   bands (ev):

   -65.0090 -65.0025 -65.0015 -65.0009 -31.7972 -31.7972 -31.7904 -31.7724
   -31.7724 -31.7652 -31.7652 -31.7644 -31.7644 -31.7497 -31.7474 -31.7474
    -9.2390  -8.2263  -8.0020  -8.0018   3.9527   3.9528   4.0046   5.7634
     5.7635   6.0383   6.0387   6.4090   6.4092   6.5203   7.3192   7.3193

          k = 0.0000 0.2514 0.2500 (  5215 PWs)   bands (ev):

   -65.0079 -65.0026 -65.0022 -65.0012 -31.7951 -31.7928 -31.7917 -31.7797
   -31.7703 -31.7695 -31.7658 -31.7621 -31.7604 -31.7589 -31.7508 -31.7428
    -9.0541  -8.1762  -8.1658  -8.0057   4.0610   4.0658   4.2291   4.9665
     5.7182   5.9299   5.9568   6.3532   6.3628   6.4700   7.0499   7.3738

          k = 0.0000 0.2514-0.5000 (  5216 PWs)   bands (ev):

   -65.0054 -65.0049 -65.0021 -65.0015 -31.7894 -31.7893 -31.7837 -31.7837
   -31.7814 -31.7812 -31.7604 -31.7602 -31.7584 -31.7583 -31.7485 -31.7484
    -8.6102  -8.6102  -8.0572  -8.0571   4.3167   4.3168   4.6388   4.6390
     4.9864   4.9864   6.4383   6.4386   6.4666   6.4667   6.9632   6.9632

          k = 0.0000-0.5029 0.0000 (  5190 PWs)   bands (ev):

   -65.0060 -65.0055 -65.0015 -65.0009 -31.7855 -31.7855 -31.7853 -31.7853
   -31.7725 -31.7724 -31.7633 -31.7632 -31.7554 -31.7554 -31.7552 -31.7552
    -8.7353  -8.7348  -7.9731  -7.9730   4.7511   4.7511   4.7519   4.7520
     5.0056   5.0059   5.8387   5.8391   6.8361   6.8362   6.8364   6.8366

          k = 0.0000-0.5029 0.2500 (  5198 PWs)   bands (ev):

   -65.0053 -65.0049 -65.0021 -65.0016 -31.7899 -31.7898 -31.7818 -31.7817
   -31.7808 -31.7806 -31.7609 -31.7607 -31.7563 -31.7563 -31.7502 -31.7501
    -8.6039  -8.6035  -8.0607  -8.0606   4.3165   4.3169   4.6346   4.6348
     4.9973   4.9981   6.4218   6.4221   6.4512   6.4517   6.9695   6.9697

          k = 0.0000-0.5029-0.5000 (  5232 PWs)   bands (ev):

   -65.0037 -65.0037 -65.0037 -65.0027 -31.7914 -31.7912 -31.7910 -31.7910
   -31.7716 -31.7714 -31.7714 -31.7711 -31.7502 -31.7500 -31.7499 -31.7499
    -8.3105  -8.3105  -8.3103  -8.3102   4.1847   4.1847   4.1848   4.1849
     5.6577   5.6577   5.6585   5.6585   6.9425   6.9426   6.9427   6.9428

          k = 0.2500 0.0000 0.0000 (  5198 PWs)   bands (ev):

   -65.0090 -65.0026 -65.0014 -65.0008 -31.7974 -31.7951 -31.7944 -31.7736
   -31.7692 -31.7686 -31.7675 -31.7634 -31.7609 -31.7545 -31.7465 -31.7434
    -9.2422  -8.2403  -8.0015  -7.9910   3.9488   3.9661   3.9945   5.7323
     5.7413   6.0471   6.0750   6.4117   6.4450   6.5319   7.3094   7.3275

          k = 0.2500 0.0000 0.2500 (  5213 PWs)   bands (ev):

   -65.0079 -65.0026 -65.0022 -65.0012 -31.7953 -31.7952 -31.7895 -31.7811
   -31.7669 -31.7659 -31.7658 -31.7629 -31.7621 -31.7619 -31.7476 -31.7448
    -9.0570  -8.1765  -8.1764  -7.9987   4.0647   4.0647   4.2418   4.9665
     5.7351   5.9355   5.9358   6.3796   6.3796   6.4513   7.0367   7.3763

          k = 0.2500 0.0000-0.5000 (  5214 PWs)   bands (ev):

   -65.0054 -65.0049 -65.0021 -65.0015 -31.7911 -31.7910 -31.7837 -31.7836
   -31.7778 -31.7776 -31.7601 -31.7600 -31.7569 -31.7566 -31.7517 -31.7516
    -8.6120  -8.6119  -8.0593  -8.0592   4.3249   4.3250   4.6524   4.6526
     4.9959   4.9959   6.4259   6.4261   6.4487   6.4487   6.9733   6.9734

          k = 0.2500 0.2514 0.0000 (  5215 PWs)   bands (ev):

   -65.0079 -65.0026 -65.0022 -65.0012 -31.7951 -31.7928 -31.7917 -31.7797
   -31.7703 -31.7695 -31.7658 -31.7621 -31.7604 -31.7589 -31.7508 -31.7428
    -9.0541  -8.1761  -8.1658  -8.0058   4.0610   4.0657   4.2290   4.9665
     5.7181   5.9300   5.9568   6.3531   6.3627   6.4701   7.0499   7.3738

          k = 0.2500 0.2514 0.2500 (  5206 PWs)   bands (ev):

   -65.0069 -65.0026 -65.0025 -65.0018 -31.7979 -31.7978 -31.7965 -31.7793
   -31.7674 -31.7673 -31.7669 -31.7597 -31.7570 -31.7570 -31.7483 -31.7452
    -8.8891  -8.1434  -8.1433  -8.1359   3.9036   3.9061   3.9062   4.9749
     5.7314   5.7315   5.7399   6.5734   6.5895   6.5897   7.2256   7.2273

          k = 0.2500 0.2514-0.5000 (  5192 PWs)   bands (ev):

   -65.0049 -65.0045 -65.0025 -65.0020 -31.8004 -31.8002 -31.7934 -31.7933
   -31.7663 -31.7661 -31.7562 -31.7562 -31.7535 -31.7534 -31.7504 -31.7502
    -8.5028  -8.5027  -8.1079  -8.1079   3.7293   3.7293   4.0994   4.0995
     5.7189   5.7189   6.6209   6.6211   6.7441   6.7442   6.8946   6.8947

          k = 0.2500-0.5029 0.0000 (  5198 PWs)   bands (ev):

   -65.0053 -65.0049 -65.0021 -65.0016 -31.7899 -31.7898 -31.7818 -31.7817
   -31.7809 -31.7806 -31.7609 -31.7607 -31.7563 -31.7562 -31.7502 -31.7501
    -8.6039  -8.6035  -8.0607  -8.0606   4.3165   4.3169   4.6345   4.6347
     4.9972   4.9980   6.4218   6.4221   6.4513   6.4518   6.9695   6.9697

          k = 0.2500-0.5029 0.2500 (  5200 PWs)   bands (ev):

   -65.0048 -65.0044 -65.0026 -65.0020 -31.8009 -31.8008 -31.7932 -31.7931
   -31.7684 -31.7682 -31.7540 -31.7538 -31.7534 -31.7534 -31.7512 -31.7512
    -8.4976  -8.4973  -8.1098  -8.1097   3.7280   3.7280   4.0903   4.0905
     5.7198   5.7198   6.6164   6.6166   6.7519   6.7522   6.8851   6.8854

          k = 0.2500-0.5029-0.5000 (  5208 PWs)   bands (ev):

   -65.0037 -65.0037 -65.0037 -65.0027 -31.8037 -31.8035 -31.8035 -31.8034
   -31.7588 -31.7586 -31.7586 -31.7585 -31.7493 -31.7491 -31.7490 -31.7489
    -8.2750  -8.2749  -8.2748  -8.2747   3.5452   3.5454   3.5454   3.5454
     6.4035   6.4035   6.4039   6.4040   6.9436   6.9437   6.9437   6.9439

          k =-0.5000 0.0000 0.0000 (  5214 PWs)   bands (ev):

   -65.0060 -65.0056 -65.0014 -65.0009 -31.7864 -31.7862 -31.7818 -31.7815
   -31.7755 -31.7755 -31.7695 -31.7694 -31.7549 -31.7546 -31.7521 -31.7518
    -8.7449  -8.7448  -7.9692  -7.9691   4.7362   4.7362   4.7506   4.7506
     5.0112   5.0115   5.8669   5.8672   6.8330   6.8330   6.8597   6.8597

          k =-0.5000 0.0000 0.2500 (  5214 PWs)   bands (ev):

   -65.0054 -65.0049 -65.0021 -65.0015 -31.7911 -31.7910 -31.7837 -31.7836
   -31.7778 -31.7776 -31.7601 -31.7600 -31.7569 -31.7567 -31.7517 -31.7516
    -8.6120  -8.6119  -8.0593  -8.0592   4.3249   4.3250   4.6524   4.6526
     4.9960   4.9960   6.4258   6.4260   6.4486   6.4486   6.9734   6.9734

          k =-0.5000 0.0000-0.5000 (  5248 PWs)   bands (ev):

   -65.0037 -65.0037 -65.0037 -65.0027 -31.7925 -31.7923 -31.7922 -31.7922
   -31.7685 -31.7683 -31.7683 -31.7680 -31.7527 -31.7525 -31.7524 -31.7524
    -8.3144  -8.3142  -8.3142  -8.3142   4.2061   4.2062   4.2062   4.2063
     5.6554   5.6555   5.6558   5.6558   6.9341   6.9343   6.9343   6.9345

          k =-0.5000 0.2514 0.0000 (  5220 PWs)   bands (ev):

   -65.0054 -65.0049 -65.0021 -65.0015 -31.7894 -31.7893 -31.7837 -31.7837
   -31.7814 -31.7812 -31.7607 -31.7605 -31.7583 -31.7583 -31.7486 -31.7485
    -8.6102  -8.6101  -8.0572  -8.0571   4.3167   4.3167   4.6387   4.6389
     4.9864   4.9864   6.4383   6.4386   6.4666   6.4667   6.9631   6.9632

          k =-0.5000 0.2514 0.2500 (  5192 PWs)   bands (ev):

   -65.0049 -65.0045 -65.0025 -65.0020 -31.8004 -31.8002 -31.7934 -31.7933
   -31.7663 -31.7661 -31.7562 -31.7562 -31.7535 -31.7534 -31.7504 -31.7502
    -8.5027  -8.5027  -8.1080  -8.1079   3.7293   3.7293   4.0994   4.0995
     5.7189   5.7189   6.6209   6.6211   6.7441   6.7443   6.8946   6.8946

          k =-0.5000 0.2514-0.5000 (  5216 PWs)   bands (ev):

   -65.0037 -65.0037 -65.0037 -65.0027 -31.8040 -31.8037 -31.8037 -31.8037
   -31.7560 -31.7558 -31.7558 -31.7556 -31.7523 -31.7521 -31.7520 -31.7520
    -8.2769  -8.2768  -8.2768  -8.2768   3.5524   3.5525   3.5525   3.5526
     6.4102   6.4102   6.4104   6.4104   6.9352   6.9354   6.9354   6.9356

          k =-0.5000-0.5029 0.0000 (  5232 PWs)   bands (ev):

   -65.0037 -65.0037 -65.0037 -65.0027 -31.7914 -31.7912 -31.7910 -31.7910
   -31.7716 -31.7714 -31.7714 -31.7711 -31.7502 -31.7500 -31.7499 -31.7498
    -8.3105  -8.3104  -8.3102  -8.3102   4.1845   4.1846   4.1846   4.1848
     5.6578   5.6578   5.6585   5.6585   6.9425   6.9427   6.9427   6.9429

          k =-0.5000-0.5029 0.2500 (  5208 PWs)   bands (ev):

   -65.0037 -65.0037 -65.0037 -65.0027 -31.8037 -31.8035 -31.8035 -31.8034
   -31.7588 -31.7586 -31.7586 -31.7585 -31.7493 -31.7491 -31.7490 -31.7489
    -8.2750  -8.2749  -8.2748  -8.2747   3.5452   3.5453   3.5453   3.5454
     6.4034   6.4035   6.4039   6.4039   6.9436   6.9438   6.9438   6.9440

          k =-0.5000-0.5029-0.5000 (  5232 PWs)   bands (ev):

   -65.0037 -65.0037 -65.0037 -65.0027 -31.8122 -31.8119 -31.8119 -31.8119
   -31.7520 -31.7518 -31.7517 -31.7517 -31.7490 -31.7488 -31.7488 -31.7486
    -8.2390  -8.2388  -8.2388  -8.2388   3.1302   3.1303   3.1303   3.1303
     6.9363   6.9365   6.9365   6.9367   6.9471   6.9471   6.9473   6.9473

          k = 0.0000 0.2514-0.2500 (  5215 PWs)   bands (ev):

   -65.0079 -65.0026 -65.0022 -65.0012 -31.7951 -31.7928 -31.7917 -31.7797
   -31.7703 -31.7695 -31.7658 -31.7621 -31.7604 -31.7589 -31.7508 -31.7428
    -9.0541  -8.1762  -8.1658  -8.0057   4.0610   4.0658   4.2291   4.9665
     5.7182   5.9299   5.9568   6.3532   6.3628   6.4700   7.0499   7.3738

          k =-0.2500 0.2514-0.2500 (  5206 PWs)   bands (ev):

   -65.0069 -65.0026 -65.0025 -65.0018 -31.7979 -31.7978 -31.7965 -31.7793
   -31.7674 -31.7673 -31.7669 -31.7597 -31.7570 -31.7570 -31.7483 -31.7452
    -8.8891  -8.1434  -8.1433  -8.1359   3.9036   3.9061   3.9062   4.9749
     5.7314   5.7315   5.7399   6.5734   6.5895   6.5897   7.2256   7.2273

          k = 0.5000 0.2514-0.2500 (  5192 PWs)   bands (ev):

   -65.0049 -65.0045 -65.0025 -65.0020 -31.8004 -31.8002 -31.7934 -31.7933
   -31.7663 -31.7661 -31.7562 -31.7562 -31.7535 -31.7534 -31.7504 -31.7502
    -8.5027  -8.5027  -8.1080  -8.1079   3.7293   3.7293   4.0994   4.0995
     5.7189   5.7189   6.6209   6.6211   6.7441   6.7443   6.8946   6.8946

     highest occupied level (ev):     7.5418

!    total energy              =    -608.39227369 Ry
     Harris-Foulkes estimate   =    -608.39227369 Ry
     estimated scf accuracy    <          1.4E-11 Ry

     The total energy is the sum of the following terms:

     one-electron contribution =    -305.76751208 Ry
     hartree contribution      =     168.80616371 Ry
     xc contribution           =     -97.80004985 Ry
     ewald contribution        =    -373.63087546 Ry

     convergence has been achieved in   3 iterations

     Forces acting on atoms (cartesian axes, Ry/au):

     atom    1 type  1   force =     0.00000000   -0.00001836   -0.00000006
     atom    2 type  1   force =     0.00000000   -0.00004893    0.00000050
     atom    3 type  1   force =     0.00000000    0.00006896    0.00000049
     atom    4 type  1   force =     0.00000000   -0.00004890   -0.00000060
     atom    5 type  2   force =     0.00000000   -0.00002097   -0.00000012
     atom    6 type  2   force =     0.00000000    0.00003131   -0.00000013
     atom    7 type  2   force =     0.00000000   -0.00002081    0.00000003
     atom    8 type  2   force =     0.00000000    0.00005770   -0.00000011

     Total force =     0.000123     Total SCF correction =     0.000006


     Computing stress (Cartesian axis) and pressure

          total   stress  (Ry/bohr**3)                   (kbar)     P=  -83.72
  -0.00059001   0.00000000   0.00000000        -86.79      0.00      0.00
   0.00000000  -0.00052700   0.00000000          0.00    -77.52      0.00
   0.00000000   0.00000000  -0.00059037          0.00      0.00    -86.85


     bfgs converged in   6 scf cycles and   5 bfgs steps
     (criteria: energy <  1.0E-05 Ry, force <  1.0E-04 Ry/Bohr)

     End of BFGS Geometry Optimization

     Final energy   =    -608.3922736900 Ry
Begin final coordinates

ATOMIC_POSITIONS (alat)
Mg       0.000000000   0.001315588  -0.000007394
Mg       0.000000000   0.498637488   0.500007592
Mg       0.500000000   0.001406739   0.500007646
Mg       0.500000000   0.498637436  -0.000007889
O        0.500000000   0.001421989  -0.000008011
O        0.000000000   0.498578206  -0.000008014
O        0.000000000   0.001422052   0.500008032
O        0.500000000   0.498580503   0.500008039
End final coordinates



     Writing output data file diamond.8.09071770150.70.4.save
 
     init_run     :      0.55s CPU      0.56s WALL (       1 calls)
     electrons    :     45.80s CPU     46.54s WALL (       6 calls)
     update_pot   :      0.61s CPU      0.62s WALL (       5 calls)
     forces       :      1.02s CPU      1.02s WALL (       6 calls)
     stress       :      2.28s CPU      2.28s WALL (       6 calls)

     Called by init_run:
     wfcinit      :      0.42s CPU      0.44s WALL (       1 calls)
     potinit      :      0.05s CPU      0.05s WALL (       1 calls)

     Called by electrons:
     c_bands      :     40.02s CPU     40.64s WALL (      35 calls)
     sum_band     :      5.56s CPU      5.67s WALL (      35 calls)
     v_of_rho     :      0.19s CPU      0.19s WALL (      36 calls)
     mix_rho      :      0.02s CPU      0.03s WALL (      35 calls)

     Called by c_bands:
     init_us_2    :      0.61s CPU      0.63s WALL (    2490 calls)
     cegterg      :     37.19s CPU     37.76s WALL (    1050 calls)

     Called by sum_band:

     Called by *egterg:
     h_psi        :     27.35s CPU     27.90s WALL (    3493 calls)
     g_psi        :      0.21s CPU      0.21s WALL (    2413 calls)
     cdiaghg      :      5.25s CPU      5.25s WALL (    3163 calls)

     Called by h_psi:
     h_psi:pot    :     27.24s CPU     27.76s WALL (    3493 calls)
     h_psi:calbec :      1.55s CPU      1.55s WALL (    3493 calls)
     vloc_psi     :     24.38s CPU     24.89s WALL (    3493 calls)
     add_vuspsi   :      1.30s CPU      1.31s WALL (    3493 calls)

     General routines
     calbec       :      2.04s CPU      2.04s WALL (    4393 calls)
     fft          :      0.20s CPU      0.20s WALL (     555 calls)
     fftw         :     27.20s CPU     27.27s WALL (  210984 calls)
     davcio       :      0.00s CPU      0.01s WALL (      30 calls)
 
     Parallel routines
     fft_scatter  :      7.59s CPU      7.36s WALL (  211539 calls)
 
     PWSCF        :    50.71s CPU        51.66s WALL

 
   This run was terminated on:  14:59:50  22Apr2018            

=------------------------------------------------------------------------------=
   JOB DONE.
=------------------------------------------------------------------------------=
