
     Program PWSCF v.6.1 (svn rev. 13369) starts on 22Apr2018 at 14:59:50 

     This program is part of the open-source Quantum ESPRESSO suite
     for quantum simulation of materials; please cite
         "P. Giannozzi et al., J. Phys.:Condens. Matter 21 395502 (2009);
          URL http://www.quantum-espresso.org", 
     in publications or presentations arising from this work. More details at
     http://www.quantum-espresso.org/quote

     Parallel version (MPI), running on     8 processors
     R & G space division:  proc/nbgrp/npool/nimage =       8
     Waiting for input...
     Reading input from standard input
Warning: card       &CELL ignored
Warning: card       CELL_DYNAMICS = 'BFGS' ignored
Warning: card       PRESS = 0.0D0 ignored
Warning: card       PRESS_CONV_THR = 0.01D0 ignored
Warning: card       / ignored

     Current dimensions of program PWSCF are:
     Max number of different atomic species (ntypx) = 10
     Max number of k-points (npk) =  40000
     Max angular momentum in pseudopotentials (lmaxx) =  3

     Subspace diagonalization in iterative solution of the eigenvalue problem:
     a serial algorithm will be used

 
     Parallelization info
     --------------------
     sticks:   dense  smooth     PW     G-vecs:    dense   smooth      PW
     Min         182     182     52                 5222     5222     824
     Max         183     183     53                 5224     5224     829
     Sum        1457    1457    421                41779    41779    6619
 


     bravais-lattice index     =            8
     lattice parameter (alat)  =       8.0965  a.u.
     unit-cell volume          =     527.3561 (a.u.)^3
     number of atoms/cell      =            8
     number of atomic types    =            2
     number of electrons       =        64.00
     number of Kohn-Sham states=           32
     kinetic-energy cutoff     =      70.0000  Ry
     charge density cutoff     =     280.0000  Ry
     convergence threshold     =      1.0E-08
     mixing beta               =       0.7000
     number of iterations used =            8  plain     mixing
     Exchange-correlation      = PBE ( 1  4  3  4 0 0)
     nstep                     =           50


     celldm(1)=   8.096470  celldm(2)=   0.993571  celldm(3)=   1.000041
     celldm(4)=   0.000000  celldm(5)=   0.000000  celldm(6)=   0.000000

     crystal axes: (cart. coord. in units of alat)
               a(1) = (   1.000000   0.000000   0.000000 )  
               a(2) = (   0.000000   0.993571   0.000000 )  
               a(3) = (   0.000000   0.000000   1.000041 )  

     reciprocal axes: (cart. coord. in units 2 pi/alat)
               b(1) = (  1.000000  0.000000  0.000000 )  
               b(2) = (  0.000000  1.006471  0.000000 )  
               b(3) = (  0.000000  0.000000  0.999959 )  


     PseudoPot. # 1 for Mg read from file:
     ../pseudo/Mg.pbe.UPF
     MD5 check sum: 4c04d8c6e0476e83eaecaf72fa8acc4d
     Pseudo is Norm-conserving, Zval = 10.0
     Generated using ONCVPSP code by D. R. Hamann
     Using radial grid of 1510 points,  4 beta functions with: 
                l(1) =   0
                l(2) =   0
                l(3) =   1
                l(4) =   1

     PseudoPot. # 2 for O  read from file:
     ../pseudo/O.pbe.UPF
     MD5 check sum: 3e3f909f7470e8921608ab6b1f57bbae
     Pseudo is Norm-conserving + core correction, Zval =  6.0
     Generated using ONCVPSP code by D. R. Hamann
     Using radial grid of  936 points,  5 beta functions with: 
                l(1) =   0
                l(2) =   0
                l(3) =   1
                l(4) =   1
                l(5) =   2

     atomic species   valence    mass     pseudopotential
        Mg            10.00    24.30500     Mg( 1.00)
        O              6.00    15.99940     O ( 1.00)

      2 Sym. Ops. (no inversion) found



   Cartesian axes

     site n.     atom                  positions (alat units)
         1           Mg  tau(   1) = (   0.0000000   0.0000000   0.0000000  )
         2           Mg  tau(   2) = (   0.0000000   0.5000000   0.5000000  )
         3           Mg  tau(   3) = (   0.5000000   0.0000000   0.5000000  )
         4           Mg  tau(   4) = (   0.5000000   0.5000000   0.0000000  )
         5           O   tau(   5) = (   0.5000000   0.0000000   0.0000000  )
         6           O   tau(   6) = (   0.0000000   0.5000000   0.0000000  )
         7           O   tau(   7) = (   0.0000000   0.0000000   0.5000000  )
         8           O   tau(   8) = (   0.5000000   0.5000000   0.5000000  )

     number of k points=    30
                       cart. coord. in units 2pi/alat
        k(    1) = (   0.0000000   0.0000000   0.0000000), wk =   0.0312500
        k(    2) = (   0.0000000   0.0000000   0.2499897), wk =   0.0625000
        k(    3) = (   0.0000000   0.0000000  -0.4999793), wk =   0.0312500
        k(    4) = (   0.0000000   0.2516176   0.0000000), wk =   0.0625000
        k(    5) = (   0.0000000   0.2516176   0.2499897), wk =   0.0625000
        k(    6) = (   0.0000000   0.2516176  -0.4999793), wk =   0.0625000
        k(    7) = (   0.0000000  -0.5032353   0.0000000), wk =   0.0312500
        k(    8) = (   0.0000000  -0.5032353   0.2499897), wk =   0.0625000
        k(    9) = (   0.0000000  -0.5032353  -0.4999793), wk =   0.0312500
        k(   10) = (   0.2500000   0.0000000   0.0000000), wk =   0.0625000
        k(   11) = (   0.2500000   0.0000000   0.2499897), wk =   0.1250000
        k(   12) = (   0.2500000   0.0000000  -0.4999793), wk =   0.0625000
        k(   13) = (   0.2500000   0.2516176   0.0000000), wk =   0.1250000
        k(   14) = (   0.2500000   0.2516176   0.2499897), wk =   0.1250000
        k(   15) = (   0.2500000   0.2516176  -0.4999793), wk =   0.1250000
        k(   16) = (   0.2500000  -0.5032353   0.0000000), wk =   0.0625000
        k(   17) = (   0.2500000  -0.5032353   0.2499897), wk =   0.1250000
        k(   18) = (   0.2500000  -0.5032353  -0.4999793), wk =   0.0625000
        k(   19) = (  -0.5000000   0.0000000   0.0000000), wk =   0.0312500
        k(   20) = (  -0.5000000   0.0000000   0.2499897), wk =   0.0625000
        k(   21) = (  -0.5000000   0.0000000  -0.4999793), wk =   0.0312500
        k(   22) = (  -0.5000000   0.2516176   0.0000000), wk =   0.0625000
        k(   23) = (  -0.5000000   0.2516176   0.2499897), wk =   0.0625000
        k(   24) = (  -0.5000000   0.2516176  -0.4999793), wk =   0.0625000
        k(   25) = (  -0.5000000  -0.5032353   0.0000000), wk =   0.0312500
        k(   26) = (  -0.5000000  -0.5032353   0.2499897), wk =   0.0625000
        k(   27) = (  -0.5000000  -0.5032353  -0.4999793), wk =   0.0312500
        k(   28) = (   0.0000000   0.2516176  -0.2499897), wk =   0.0625000
        k(   29) = (  -0.2500000   0.2516176  -0.2499897), wk =   0.1250000
        k(   30) = (   0.5000000   0.2516176  -0.2499897), wk =   0.0625000

     Dense  grid:    41779 G-vectors     FFT dimensions: (  45,  45,  45)

     Estimated max dynamical RAM per process >      15.53MB

     Estimated total allocated dynamical RAM >     124.21MB

     Check: negative/imaginary core charge=   -0.000007    0.000000

     Initial potential from superposition of free atoms

     starting charge   63.99678, renormalised to   64.00000
     Starting wfc are   36 randomized atomic wfcs

     total cpu time spent up to now is        0.7 secs

     per-process dynamical memory:    51.3 Mb

     Self-consistent Calculation

     iteration #  1     ecut=    70.00 Ry     beta=0.70
     Davidson diagonalization with overlap
     ethr =  1.00E-02,  avg # of iterations =  2.0

     total cpu time spent up to now is        1.9 secs

     total energy              =    -607.71187379 Ry
     Harris-Foulkes estimate   =    -608.84288655 Ry
     estimated scf accuracy    <       1.57041777 Ry

     iteration #  2     ecut=    70.00 Ry     beta=0.70
     Davidson diagonalization with overlap
     ethr =  2.45E-03,  avg # of iterations =  2.9

     total cpu time spent up to now is        3.3 secs

     total energy              =    -608.09642704 Ry
     Harris-Foulkes estimate   =    -608.81341716 Ry
     estimated scf accuracy    <       1.49508076 Ry

     iteration #  3     ecut=    70.00 Ry     beta=0.70
     Davidson diagonalization with overlap
     ethr =  2.34E-03,  avg # of iterations =  2.0

     total cpu time spent up to now is        4.6 secs

     total energy              =    -608.39036180 Ry
     Harris-Foulkes estimate   =    -608.39105495 Ry
     estimated scf accuracy    <       0.00690391 Ry

     iteration #  4     ecut=    70.00 Ry     beta=0.70
     Davidson diagonalization with overlap
     ethr =  1.08E-05,  avg # of iterations =  2.0

     total cpu time spent up to now is        5.8 secs

     total energy              =    -608.39189935 Ry
     Harris-Foulkes estimate   =    -608.39194779 Ry
     estimated scf accuracy    <       0.00011886 Ry

     iteration #  5     ecut=    70.00 Ry     beta=0.70
     Davidson diagonalization with overlap
     ethr =  1.86E-07,  avg # of iterations =  1.6

     total cpu time spent up to now is        6.9 secs

     total energy              =    -608.39190708 Ry
     Harris-Foulkes estimate   =    -608.39190569 Ry
     estimated scf accuracy    <       0.00001071 Ry

     iteration #  6     ecut=    70.00 Ry     beta=0.70
     Davidson diagonalization with overlap
     ethr =  1.67E-08,  avg # of iterations =  2.0

     total cpu time spent up to now is        8.3 secs

     total energy              =    -608.39190862 Ry
     Harris-Foulkes estimate   =    -608.39190911 Ry
     estimated scf accuracy    <       0.00000113 Ry

     iteration #  7     ecut=    70.00 Ry     beta=0.70
     Davidson diagonalization with overlap
     ethr =  1.76E-09,  avg # of iterations =  2.0

     total cpu time spent up to now is        9.5 secs

     total energy              =    -608.39190868 Ry
     Harris-Foulkes estimate   =    -608.39190878 Ry
     estimated scf accuracy    <       0.00000028 Ry

     iteration #  8     ecut=    70.00 Ry     beta=0.70
     Davidson diagonalization with overlap
     ethr =  4.30E-10,  avg # of iterations =  2.0

     total cpu time spent up to now is       10.6 secs

     total energy              =    -608.39190867 Ry
     Harris-Foulkes estimate   =    -608.39190870 Ry
     estimated scf accuracy    <       0.00000006 Ry

     iteration #  9     ecut=    70.00 Ry     beta=0.70
     Davidson diagonalization with overlap
     ethr =  8.86E-11,  avg # of iterations =  2.0

     total cpu time spent up to now is       12.1 secs

     End of self-consistent calculation

          k = 0.0000 0.0000 0.0000 (  5217 PWs)   bands (ev):

   -65.0318 -65.0230 -65.0228 -65.0221 -31.8240 -31.8240 -31.8208 -31.7893
   -31.7893 -31.7879 -31.7878 -31.7854 -31.7853 -31.7662 -31.7661 -31.7601
    -9.4557  -8.0453  -8.0452  -8.0287   3.6496   3.6497   3.6709   6.2287
     6.2290   6.2343   6.2347   6.2747   6.2748   7.5098   7.5239   7.5240

          k = 0.0000 0.0000 0.2500 (  5198 PWs)   bands (ev):

   -65.0305 -65.0241 -65.0229 -65.0222 -31.8184 -31.8161 -31.8151 -31.7948
   -31.7900 -31.7898 -31.7887 -31.7845 -31.7817 -31.7758 -31.7678 -31.7643
    -9.2533  -8.2546  -8.0161  -8.0044   3.9362   3.9560   3.9817   5.7162
     5.7266   6.0315   6.0626   6.3961   6.4330   6.5161   7.2918   7.3122

          k = 0.0000 0.0000-0.5000 (  5214 PWs)   bands (ev):

   -65.0275 -65.0270 -65.0229 -65.0223 -31.8076 -31.8073 -31.8027 -31.8024
   -31.7965 -31.7965 -31.7907 -31.7907 -31.7761 -31.7758 -31.7729 -31.7727
    -8.7577  -8.7575  -7.9834  -7.9833   4.7219   4.7223   4.7383   4.7387
     4.9974   4.9977   5.8534   5.8537   6.8164   6.8166   6.8461   6.8463

          k = 0.0000 0.2516 0.0000 (  5201 PWs)   bands (ev):

   -65.0304 -65.0239 -65.0230 -65.0224 -31.8186 -31.8185 -31.8112 -31.7940
   -31.7939 -31.7861 -31.7861 -31.7857 -31.7857 -31.7706 -31.7687 -31.7687
    -9.2498  -8.2385  -8.0168  -8.0166   3.9403   3.9404   3.9935   5.7516
     5.7516   6.0218   6.0222   6.3919   6.3921   6.5027   7.3030   7.3031

          k = 0.0000 0.2516 0.2500 (  5223 PWs)   bands (ev):

   -65.0293 -65.0240 -65.0236 -65.0227 -31.8164 -31.8139 -31.8126 -31.8008
   -31.7918 -31.7906 -31.7872 -31.7834 -31.7815 -31.7798 -31.7725 -31.7643
    -9.0655  -8.1905  -8.1785  -8.0203   4.0482   4.0539   4.2163   4.9535
     5.7018   5.9138   5.9449   6.3361   6.3476   6.4566   7.0346   7.3571

          k = 0.0000 0.2516-0.5000 (  5224 PWs)   bands (ev):

   -65.0268 -65.0264 -65.0235 -65.0229 -31.8103 -31.8102 -31.8048 -31.8047
   -31.8026 -31.8024 -31.7819 -31.7817 -31.7798 -31.7798 -31.7696 -31.7695
    -8.6232  -8.6230  -8.0711  -8.0710   4.3041   4.3042   4.6247   4.6249
     4.9720   4.9724   6.4243   6.4246   6.4532   6.4534   6.9470   6.9471

          k = 0.0000-0.5032 0.0000 (  5190 PWs)   bands (ev):

   -65.0275 -65.0268 -65.0230 -65.0224 -31.8072 -31.8072 -31.8058 -31.8057
   -31.7942 -31.7924 -31.7842 -31.7841 -31.7771 -31.7771 -31.7761 -31.7761
    -8.7636  -8.7292  -7.9879  -7.9878   4.7123   4.7124   4.7668   4.7669
     4.9801   5.0022   5.8220   5.8223   6.8029   6.8031   6.8363   6.8365

          k = 0.0000-0.5032 0.2500 (  5204 PWs)   bands (ev):

   -65.0268 -65.0262 -65.0236 -65.0230 -31.8115 -31.8105 -31.8032 -31.8026
   -31.8022 -31.8010 -31.7827 -31.7814 -31.7776 -31.7769 -31.7718 -31.7717
    -8.6308  -8.6005  -8.0781  -8.0722   4.2933   4.3146   4.6080   4.6323
     4.9589   5.0117   6.3964   6.4161   6.4164   6.4552   6.9488   6.9590

          k = 0.0000-0.5032-0.5000 (  5232 PWs)   bands (ev):

   -65.0253 -65.0252 -65.0250 -65.0241 -31.8125 -31.8124 -31.8117 -31.8117
   -31.7934 -31.7931 -31.7920 -31.7917 -31.7715 -31.7714 -31.7708 -31.7706
    -8.3333  -8.3332  -8.3142  -8.3141   4.1666   4.1667   4.1758   4.1759
     5.6206   5.6209   5.6679   5.6682   6.9195   6.9197   6.9353   6.9355

          k = 0.2500 0.0000 0.0000 (  5198 PWs)   bands (ev):

   -65.0305 -65.0241 -65.0229 -65.0223 -31.8184 -31.8161 -31.8151 -31.7948
   -31.7900 -31.7898 -31.7886 -31.7845 -31.7817 -31.7758 -31.7678 -31.7643
    -9.2533  -8.2545  -8.0162  -8.0044   3.9361   3.9561   3.9817   5.7163
     5.7268   6.0312   6.0625   6.3958   6.4329   6.5160   7.2917   7.3122

          k = 0.2500 0.0000 0.2500 (  5215 PWs)   bands (ev):

   -65.0293 -65.0241 -65.0237 -65.0226 -31.8163 -31.8162 -31.8102 -31.8025
   -31.7881 -31.7868 -31.7867 -31.7844 -31.7832 -31.7831 -31.7685 -31.7661
    -9.0686  -8.1908  -8.1907  -8.0124   4.0524   4.0524   4.2311   4.9530
     5.7212   5.9205   5.9208   6.3667   6.3667   6.4345   7.0197   7.3602

          k = 0.2500 0.0000-0.5000 (  5218 PWs)   bands (ev):

   -65.0268 -65.0264 -65.0235 -65.0229 -31.8122 -31.8120 -31.8051 -31.8050
   -31.7984 -31.7982 -31.7814 -31.7813 -31.7778 -31.7776 -31.7732 -31.7730
    -8.6251  -8.6249  -8.0735  -8.0734   4.3129   4.3131   4.6395   4.6398
     4.9838   4.9841   6.4071   6.4073   6.4363   6.4366   6.9582   6.9583

          k = 0.2500 0.2516 0.0000 (  5223 PWs)   bands (ev):

   -65.0293 -65.0240 -65.0236 -65.0227 -31.8164 -31.8139 -31.8126 -31.8007
   -31.7918 -31.7907 -31.7872 -31.7834 -31.7815 -31.7798 -31.7725 -31.7643
    -9.0655  -8.1904  -8.1785  -8.0204   4.0482   4.0539   4.2162   4.9535
     5.7017   5.9140   5.9448   6.3360   6.3474   6.4567   7.0347   7.3571

          k = 0.2500 0.2516 0.2500 (  5220 PWs)   bands (ev):

   -65.0284 -65.0241 -65.0240 -65.0232 -31.8193 -31.8192 -31.8177 -31.8005
   -31.7888 -31.7886 -31.7882 -31.7812 -31.7782 -31.7781 -31.7700 -31.7662
    -8.9011  -8.1577  -8.1576  -8.1491   3.8915   3.8941   3.8941   4.9605
     5.7169   5.7171   5.7268   6.5566   6.5752   6.5754   7.2093   7.2112

          k = 0.2500 0.2516-0.5000 (  5200 PWs)   bands (ev):

   -65.0263 -65.0259 -65.0240 -65.0234 -31.8214 -31.8212 -31.8143 -31.8142
   -31.7877 -31.7875 -31.7779 -31.7778 -31.7748 -31.7747 -31.7713 -31.7711
    -8.5161  -8.5159  -8.1219  -8.1218   3.7177   3.7177   4.0871   4.0873
     5.7048   5.7049   6.6055   6.6057   6.7286   6.7288   6.8796   6.8798

          k = 0.2500-0.5032 0.0000 (  5204 PWs)   bands (ev):

   -65.0268 -65.0262 -65.0236 -65.0230 -31.8115 -31.8105 -31.8032 -31.8026
   -31.8022 -31.8010 -31.7827 -31.7815 -31.7776 -31.7769 -31.7718 -31.7716
    -8.6308  -8.6005  -8.0781  -8.0722   4.2932   4.3146   4.6079   4.6322
     4.9588   5.0117   6.3965   6.4161   6.4166   6.4553   6.9487   6.9589

          k = 0.2500-0.5032 0.2500 (  5208 PWs)   bands (ev):

   -65.0263 -65.0258 -65.0241 -65.0234 -31.8219 -31.8218 -31.8142 -31.8139
   -31.7901 -31.7899 -31.7756 -31.7748 -31.7746 -31.7746 -31.7725 -31.7720
    -8.5229  -8.4970  -8.1241  -8.1240   3.7161   3.7162   4.0644   4.0896
     5.7055   5.7056   6.6010   6.6012   6.7320   6.7428   6.8567   6.8809

          k = 0.2500-0.5032-0.5000 (  5208 PWs)   bands (ev):

   -65.0252 -65.0252 -65.0251 -65.0241 -31.8246 -31.8244 -31.8243 -31.8242
   -31.7803 -31.7801 -31.7797 -31.7795 -31.7705 -31.7703 -31.7699 -31.7698
    -8.2953  -8.2952  -8.2817  -8.2816   3.5271   3.5272   3.5398   3.5400
     6.3747   6.3749   6.4022   6.4024   6.9229   6.9231   6.9341   6.9342

          k =-0.5000 0.0000 0.0000 (  5214 PWs)   bands (ev):

   -65.0275 -65.0270 -65.0229 -65.0223 -31.8076 -31.8073 -31.8027 -31.8024
   -31.7965 -31.7965 -31.7907 -31.7907 -31.7761 -31.7758 -31.7729 -31.7727
    -8.7576  -8.7575  -7.9834  -7.9833   4.7221   4.7221   4.7386   4.7386
     4.9974   4.9976   5.8532   5.8535   6.8164   6.8164   6.8462   6.8462

          k =-0.5000 0.0000 0.2500 (  5218 PWs)   bands (ev):

   -65.0268 -65.0264 -65.0235 -65.0229 -31.8122 -31.8120 -31.8051 -31.8050
   -31.7984 -31.7982 -31.7814 -31.7813 -31.7778 -31.7776 -31.7732 -31.7730
    -8.6250  -8.6250  -8.0735  -8.0734   4.3130   4.3130   4.6395   4.6397
     4.9840   4.9840   6.4070   6.4072   6.4363   6.4364   6.9582   6.9583

          k =-0.5000 0.0000-0.5000 (  5248 PWs)   bands (ev):

   -65.0252 -65.0252 -65.0252 -65.0241 -31.8135 -31.8133 -31.8132 -31.8132
   -31.7893 -31.7891 -31.7891 -31.7888 -31.7741 -31.7738 -31.7738 -31.7738
    -8.3282  -8.3281  -8.3280  -8.3280   4.1950   4.1950   4.1951   4.1952
     5.6417   5.6418   5.6422   5.6422   6.9178   6.9180   6.9180   6.9182

          k =-0.5000 0.2516 0.0000 (  5224 PWs)   bands (ev):

   -65.0268 -65.0264 -65.0235 -65.0229 -31.8103 -31.8102 -31.8048 -31.8047
   -31.8027 -31.8024 -31.7820 -31.7817 -31.7798 -31.7797 -31.7696 -31.7695
    -8.6231  -8.6230  -8.0711  -8.0710   4.3040   4.3041   4.6246   4.6248
     4.9722   4.9722   6.4243   6.4246   6.4533   6.4533   6.9470   6.9470

          k =-0.5000 0.2516 0.2500 (  5200 PWs)   bands (ev):

   -65.0263 -65.0259 -65.0240 -65.0234 -31.8214 -31.8212 -31.8143 -31.8142
   -31.7877 -31.7875 -31.7779 -31.7778 -31.7748 -31.7747 -31.7713 -31.7711
    -8.5160  -8.5159  -8.1219  -8.1218   3.7177   3.7177   4.0870   4.0872
     5.7049   5.7049   6.6054   6.6057   6.7287   6.7288   6.8797   6.8797

          k =-0.5000 0.2516-0.5000 (  5224 PWs)   bands (ev):

   -65.0252 -65.0252 -65.0251 -65.0241 -31.8251 -31.8249 -31.8249 -31.8248
   -31.7771 -31.7769 -31.7769 -31.7767 -31.7737 -31.7734 -31.7734 -31.7734
    -8.2908  -8.2907  -8.2906  -8.2906   3.5413   3.5414   3.5415   3.5415
     6.3959   6.3960   6.3962   6.3962   6.9190   6.9191   6.9191   6.9193

          k =-0.5000-0.5032 0.0000 (  5232 PWs)   bands (ev):

   -65.0253 -65.0252 -65.0250 -65.0241 -31.8125 -31.8124 -31.8117 -31.8117
   -31.7934 -31.7931 -31.7920 -31.7918 -31.7715 -31.7714 -31.7707 -31.7706
    -8.3333  -8.3332  -8.3142  -8.3141   4.1664   4.1666   4.1756   4.1758
     5.6207   5.6208   5.6681   5.6681   6.9195   6.9197   6.9354   6.9355

          k =-0.5000-0.5032 0.2500 (  5212 PWs)   bands (ev):

   -65.0252 -65.0252 -65.0251 -65.0241 -31.8246 -31.8244 -31.8243 -31.8243
   -31.7804 -31.7802 -31.7798 -31.7796 -31.7705 -31.7704 -31.7700 -31.7699
    -8.2953  -8.2952  -8.2816  -8.2816   3.5270   3.5271   3.5398   3.5399
     6.3747   6.3748   6.4022   6.4023   6.9229   6.9231   6.9341   6.9343

          k =-0.5000-0.5032-0.5000 (  5232 PWs)   bands (ev):

   -65.0251 -65.0251 -65.0251 -65.0241 -31.8330 -31.8327 -31.8327 -31.8327
   -31.7733 -31.7731 -31.7730 -31.7730 -31.7700 -31.7698 -31.7698 -31.7696
    -8.2528  -8.2527  -8.2527  -8.2526   3.1194   3.1195   3.1195   3.1195
     6.9201   6.9202   6.9202   6.9204   6.9322   6.9324   6.9325   6.9325

          k = 0.0000 0.2516-0.2500 (  5223 PWs)   bands (ev):

   -65.0293 -65.0240 -65.0236 -65.0227 -31.8164 -31.8139 -31.8126 -31.8008
   -31.7918 -31.7906 -31.7872 -31.7834 -31.7815 -31.7798 -31.7725 -31.7643
    -9.0655  -8.1905  -8.1785  -8.0203   4.0482   4.0539   4.2163   4.9535
     5.7018   5.9138   5.9449   6.3361   6.3476   6.4566   7.0346   7.3571

          k =-0.2500 0.2516-0.2500 (  5220 PWs)   bands (ev):

   -65.0284 -65.0241 -65.0240 -65.0232 -31.8193 -31.8192 -31.8177 -31.8005
   -31.7888 -31.7886 -31.7882 -31.7812 -31.7782 -31.7781 -31.7700 -31.7662
    -8.9011  -8.1577  -8.1576  -8.1491   3.8915   3.8941   3.8941   4.9605
     5.7169   5.7171   5.7268   6.5566   6.5752   6.5754   7.2093   7.2112

          k = 0.5000 0.2516-0.2500 (  5200 PWs)   bands (ev):

   -65.0263 -65.0259 -65.0240 -65.0234 -31.8214 -31.8212 -31.8143 -31.8142
   -31.7877 -31.7875 -31.7779 -31.7778 -31.7748 -31.7747 -31.7713 -31.7711
    -8.5160  -8.5159  -8.1219  -8.1218   3.7177   3.7177   4.0870   4.0872
     5.7049   5.7049   6.6054   6.6057   6.7287   6.7288   6.8797   6.8797

     highest occupied level (ev):     7.5240

!    total energy              =    -608.39190868 Ry
     Harris-Foulkes estimate   =    -608.39190868 Ry
     estimated scf accuracy    <          3.0E-09 Ry

     The total energy is the sum of the following terms:

     one-electron contribution =    -306.07842707 Ry
     hartree contribution      =     168.91625528 Ry
     xc contribution           =     -97.79470719 Ry
     ewald contribution        =    -373.43502971 Ry

     convergence has been achieved in   9 iterations

     Forces acting on atoms (cartesian axes, Ry/au):

     atom    1 type  1   force =     0.00000000    0.00350909   -0.00002096
     atom    2 type  1   force =     0.00000000   -0.00344794    0.00001981
     atom    3 type  1   force =     0.00000000    0.00351139    0.00002061
     atom    4 type  1   force =     0.00000000   -0.00344913   -0.00002042
     atom    5 type  2   force =     0.00000000    0.00400527   -0.00002404
     atom    6 type  2   force =     0.00000000   -0.00405978   -0.00002394
     atom    7 type  2   force =     0.00000000    0.00400586    0.00002443
     atom    8 type  2   force =     0.00000000   -0.00407476    0.00002450

     Total force =     0.010659     Total SCF correction =     0.000057


     Computing stress (Cartesian axis) and pressure

          total   stress  (Ry/bohr**3)                   (kbar)     P=  -85.60
  -0.00060607   0.00000000   0.00000000        -89.16      0.00      0.00
   0.00000000  -0.00053286   0.00000000          0.00    -78.39      0.00
   0.00000000   0.00000000  -0.00060670          0.00      0.00    -89.25


     BFGS Geometry Optimization

     number of scf cycles    =   1
     number of bfgs steps    =   0

     energy   new            =    -608.3919086811 Ry

     new trust radius        =       0.0040748293 bohr
     new conv_thr            =       0.0000000100 Ry


ATOMIC_POSITIONS (alat)
Mg       0.000000000   0.000433409  -0.000002589
Mg       0.000000000   0.499574142   0.500002446
Mg       0.500000000   0.000433694   0.500002546
Mg       0.500000000   0.499573996  -0.000002522
O        0.500000000   0.000494694  -0.000002969
O        0.000000000   0.499498574  -0.000002956
O        0.000000000   0.000494766   0.500003017
O        0.500000000   0.499496724   0.500003027



     Writing output data file diamond.8.09646969775.70.4.save
     NEW-OLD atomic charge density approx. for the potential

     Check: negative/imaginary core charge=   -0.000007    0.000000

     total cpu time spent up to now is       12.8 secs

     per-process dynamical memory:    56.1 Mb

     Self-consistent Calculation

     iteration #  1     ecut=    70.00 Ry     beta=0.70
     Davidson diagonalization with overlap
     ethr =  1.00E-06,  avg # of iterations =  3.0

     Threshold (ethr) on eigenvalues was too large:
     Diagonalizing with lowered threshold

     Davidson diagonalization with overlap
     ethr =  3.19E-08,  avg # of iterations =  1.2

     total cpu time spent up to now is       15.7 secs

     total energy              =    -608.39199819 Ry
     Harris-Foulkes estimate   =    -608.39201324 Ry
     estimated scf accuracy    <       0.00002055 Ry

     iteration #  2     ecut=    70.00 Ry     beta=0.70
     Davidson diagonalization with overlap
     ethr =  3.21E-08,  avg # of iterations =  2.2

     total cpu time spent up to now is       16.9 secs

     total energy              =    -608.39200439 Ry
     Harris-Foulkes estimate   =    -608.39200647 Ry
     estimated scf accuracy    <       0.00000345 Ry

     iteration #  3     ecut=    70.00 Ry     beta=0.70
     Davidson diagonalization with overlap
     ethr =  5.40E-09,  avg # of iterations =  2.0

     total cpu time spent up to now is       18.1 secs

     total energy              =    -608.39200514 Ry
     Harris-Foulkes estimate   =    -608.39200513 Ry
     estimated scf accuracy    <       0.00000003 Ry

     iteration #  4     ecut=    70.00 Ry     beta=0.70
     Davidson diagonalization with overlap
     ethr =  3.98E-11,  avg # of iterations =  2.7

     total cpu time spent up to now is       19.6 secs

     End of self-consistent calculation

          k = 0.0000 0.0000 0.0000 (  5217 PWs)   bands (ev):

   -65.0321 -65.0233 -65.0232 -65.0225 -31.8243 -31.8243 -31.8211 -31.7896
   -31.7896 -31.7882 -31.7882 -31.7857 -31.7856 -31.7665 -31.7665 -31.7604
    -9.4555  -8.0453  -8.0451  -8.0287   3.6498   3.6499   3.6708   6.2289
     6.2291   6.2343   6.2347   6.2747   6.2747   7.5100   7.5238   7.5239

          k = 0.0000 0.0000 0.2500 (  5198 PWs)   bands (ev):

   -65.0308 -65.0245 -65.0232 -65.0226 -31.8187 -31.8164 -31.8154 -31.7951
   -31.7903 -31.7901 -31.7890 -31.7848 -31.7820 -31.7761 -31.7681 -31.7646
    -9.2532  -8.2545  -8.0161  -8.0044   3.9363   3.9559   3.9818   5.7163
     5.7265   6.0317   6.0628   6.3958   6.4329   6.5161   7.2918   7.3121

          k = 0.0000 0.0000-0.5000 (  5214 PWs)   bands (ev):

   -65.0278 -65.0274 -65.0232 -65.0227 -31.8079 -31.8076 -31.8029 -31.8027
   -31.7969 -31.7969 -31.7910 -31.7910 -31.7764 -31.7761 -31.7733 -31.7730
    -8.7576  -8.7574  -7.9833  -7.9833   4.7221   4.7224   4.7383   4.7386
     4.9974   4.9976   5.8537   5.8539   6.8163   6.8164   6.8460   6.8462

          k = 0.0000 0.2516 0.0000 (  5201 PWs)   bands (ev):

   -65.0308 -65.0243 -65.0233 -65.0227 -31.8189 -31.8188 -31.8114 -31.7943
   -31.7943 -31.7864 -31.7864 -31.7860 -31.7860 -31.7709 -31.7690 -31.7690
    -9.2496  -8.2386  -8.0167  -8.0166   3.9405   3.9407   3.9934   5.7514
     5.7515   6.0218   6.0222   6.3921   6.3923   6.5028   7.3029   7.3030

          k = 0.0000 0.2516 0.2500 (  5223 PWs)   bands (ev):

   -65.0297 -65.0244 -65.0240 -65.0231 -31.8167 -31.8142 -31.8128 -31.8011
   -31.7921 -31.7910 -31.7874 -31.7837 -31.7818 -31.7801 -31.7728 -31.7646
    -9.0654  -8.1904  -8.1786  -8.0203   4.0484   4.0538   4.2165   4.9535
     5.7019   5.9140   5.9447   6.3364   6.3476   6.4561   7.0345   7.3571

          k = 0.0000 0.2516-0.5000 (  5224 PWs)   bands (ev):

   -65.0272 -65.0267 -65.0239 -65.0233 -31.8106 -31.8105 -31.8051 -31.8050
   -31.8029 -31.8027 -31.7823 -31.7820 -31.7801 -31.7801 -31.7700 -31.7698
    -8.6231  -8.6229  -8.0711  -8.0710   4.3040   4.3042   4.6247   4.6249
     4.9723   4.9725   6.4245   6.4247   6.4531   6.4532   6.9468   6.9469

          k = 0.0000-0.5032 0.0000 (  5190 PWs)   bands (ev):

   -65.0278 -65.0272 -65.0233 -65.0228 -31.8074 -31.8073 -31.8063 -31.8062
   -31.7943 -31.7929 -31.7844 -31.7844 -31.7773 -31.7773 -31.7765 -31.7765
    -8.7584  -8.7343  -7.9878  -7.9877   4.7205   4.7206   4.7587   4.7588
     4.9835   4.9988   5.8219   5.8223   6.8080   6.8082   6.8313   6.8315

          k = 0.0000-0.5032 0.2500 (  5204 PWs)   bands (ev):

   -65.0271 -65.0266 -65.0240 -65.0234 -31.8117 -31.8109 -31.8033 -31.8027
   -31.8026 -31.8015 -31.7829 -31.7819 -31.7778 -31.7773 -31.7721 -31.7720
    -8.6262  -8.6050  -8.0772  -8.0730   4.2965   4.3115   4.6117   4.6285
     4.9668   5.0039   6.3993   6.4130   6.4223   6.4494   6.9503   6.9575

          k = 0.0000-0.5032-0.5000 (  5232 PWs)   bands (ev):

   -65.0256 -65.0255 -65.0254 -65.0245 -31.8127 -31.8126 -31.8121 -31.8121
   -31.7935 -31.7933 -31.7925 -31.7922 -31.7717 -31.7716 -31.7712 -31.7711
    -8.3304  -8.3303  -8.3170  -8.3169   4.1681   4.1682   4.1743   4.1744
     5.6277   5.6280   5.6609   5.6611   6.9219   6.9221   6.9329   6.9331

          k = 0.2500 0.0000 0.0000 (  5198 PWs)   bands (ev):

   -65.0308 -65.0245 -65.0232 -65.0226 -31.8187 -31.8164 -31.8154 -31.7951
   -31.7903 -31.7901 -31.7890 -31.7848 -31.7820 -31.7761 -31.7681 -31.7646
    -9.2531  -8.2544  -8.0162  -8.0044   3.9362   3.9559   3.9819   5.7165
     5.7267   6.0315   6.0628   6.3955   6.4329   6.5160   7.2917   7.3122

          k = 0.2500 0.0000 0.2500 (  5215 PWs)   bands (ev):

   -65.0297 -65.0244 -65.0241 -65.0230 -31.8166 -31.8165 -31.8105 -31.8028
   -31.7884 -31.7870 -31.7870 -31.7847 -31.7836 -31.7834 -31.7689 -31.7665
    -9.0685  -8.1908  -8.1906  -8.0124   4.0525   4.0525   4.2310   4.9532
     5.7211   5.9205   5.9208   6.3665   6.3666   6.4346   7.0196   7.3602

          k = 0.2500 0.0000-0.5000 (  5218 PWs)   bands (ev):

   -65.0272 -65.0267 -65.0239 -65.0233 -31.8125 -31.8123 -31.8053 -31.8053
   -31.7988 -31.7986 -31.7817 -31.7816 -31.7781 -31.7779 -31.7735 -31.7733
    -8.6250  -8.6249  -8.0734  -8.0734   4.3131   4.3132   4.6398   4.6400
     4.9835   4.9838   6.4088   6.4090   6.4346   6.4348   6.9581   6.9583

          k = 0.2500 0.2516 0.0000 (  5223 PWs)   bands (ev):

   -65.0297 -65.0244 -65.0240 -65.0231 -31.8167 -31.8142 -31.8128 -31.8011
   -31.7921 -31.7910 -31.7874 -31.7837 -31.7818 -31.7801 -31.7728 -31.7646
    -9.0654  -8.1903  -8.1786  -8.0203   4.0484   4.0538   4.2164   4.9535
     5.7018   5.9142   5.9447   6.3363   6.3474   6.4563   7.0345   7.3571

          k = 0.2500 0.2516 0.2500 (  5220 PWs)   bands (ev):

   -65.0287 -65.0244 -65.0244 -65.0236 -31.8196 -31.8195 -31.8180 -31.8008
   -31.7891 -31.7889 -31.7885 -31.7816 -31.7785 -31.7784 -31.7703 -31.7665
    -8.9009  -8.1576  -8.1575  -8.1492   3.8915   3.8941   3.8942   4.9605
     5.7170   5.7171   5.7268   6.5567   6.5751   6.5753   7.2092   7.2113

          k = 0.2500 0.2516-0.5000 (  5200 PWs)   bands (ev):

   -65.0267 -65.0263 -65.0244 -65.0238 -31.8217 -31.8215 -31.8146 -31.8145
   -31.7880 -31.7878 -31.7782 -31.7781 -31.7751 -31.7750 -31.7716 -31.7714
    -8.5160  -8.5158  -8.1219  -8.1218   3.7177   3.7178   4.0871   4.0873
     5.7048   5.7049   6.6057   6.6059   6.7285   6.7287   6.8795   6.8797

          k = 0.2500-0.5032 0.0000 (  5204 PWs)   bands (ev):

   -65.0271 -65.0266 -65.0240 -65.0234 -31.8117 -31.8109 -31.8033 -31.8027
   -31.8026 -31.8016 -31.7829 -31.7819 -31.7778 -31.7773 -31.7721 -31.7720
    -8.6262  -8.6050  -8.0771  -8.0730   4.2964   4.3115   4.6116   4.6284
     4.9667   5.0038   6.3994   6.4131   6.4224   6.4495   6.9502   6.9574

          k = 0.2500-0.5032 0.2500 (  5208 PWs)   bands (ev):

   -65.0267 -65.0262 -65.0244 -65.0238 -31.8222 -31.8221 -31.8144 -31.8142
   -31.7904 -31.7902 -31.7758 -31.7752 -31.7749 -31.7749 -31.7727 -31.7724
    -8.5189  -8.5009  -8.1241  -8.1240   3.7162   3.7162   4.0683   4.0857
     5.7056   5.7057   6.6008   6.6011   6.7336   6.7413   6.8604   6.8773

          k = 0.2500-0.5032-0.5000 (  5208 PWs)   bands (ev):

   -65.0256 -65.0255 -65.0255 -65.0245 -31.8249 -31.8247 -31.8246 -31.8246
   -31.7805 -31.7803 -31.7801 -31.7799 -31.7707 -31.7706 -31.7703 -31.7702
    -8.2932  -8.2931  -8.2836  -8.2836   3.5290   3.5292   3.5378   3.5380
     6.3789   6.3791   6.3982   6.3983   6.9246   6.9248   6.9324   6.9325

          k =-0.5000 0.0000 0.0000 (  5214 PWs)   bands (ev):

   -65.0278 -65.0274 -65.0232 -65.0227 -31.8079 -31.8076 -31.8029 -31.8027
   -31.7969 -31.7969 -31.7910 -31.7910 -31.7764 -31.7761 -31.7733 -31.7730
    -8.7575  -8.7574  -7.9834  -7.9833   4.7223   4.7223   4.7386   4.7386
     4.9973   4.9976   5.8534   5.8538   6.8162   6.8162   6.8462   6.8462

          k =-0.5000 0.0000 0.2500 (  5218 PWs)   bands (ev):

   -65.0272 -65.0267 -65.0239 -65.0233 -31.8125 -31.8123 -31.8053 -31.8053
   -31.7988 -31.7986 -31.7817 -31.7816 -31.7781 -31.7779 -31.7735 -31.7733
    -8.6249  -8.6249  -8.0735  -8.0734   4.3131   4.3132   4.6397   4.6399
     4.9837   4.9837   6.4087   6.4089   6.4346   6.4346   6.9582   6.9583

          k =-0.5000 0.0000-0.5000 (  5248 PWs)   bands (ev):

   -65.0255 -65.0255 -65.0255 -65.0245 -31.8138 -31.8136 -31.8135 -31.8135
   -31.7896 -31.7894 -31.7894 -31.7892 -31.7744 -31.7741 -31.7741 -31.7741
    -8.3281  -8.3280  -8.3280  -8.3279   4.1951   4.1952   4.1952   4.1954
     5.6416   5.6416   5.6420   5.6420   6.9179   6.9180   6.9180   6.9183

          k =-0.5000 0.2516 0.0000 (  5224 PWs)   bands (ev):

   -65.0272 -65.0267 -65.0239 -65.0233 -31.8106 -31.8105 -31.8051 -31.8050
   -31.8030 -31.8027 -31.7823 -31.7820 -31.7801 -31.7801 -31.7700 -31.7698
    -8.6230  -8.6229  -8.0711  -8.0710   4.3040   4.3041   4.6246   4.6248
     4.9724   4.9724   6.4244   6.4247   6.4532   6.4532   6.9468   6.9469

          k =-0.5000 0.2516 0.2500 (  5200 PWs)   bands (ev):

   -65.0267 -65.0263 -65.0244 -65.0238 -31.8217 -31.8215 -31.8146 -31.8145
   -31.7880 -31.7878 -31.7782 -31.7781 -31.7751 -31.7750 -31.7716 -31.7714
    -8.5159  -8.5158  -8.1219  -8.1218   3.7177   3.7178   4.0870   4.0872
     5.7049   5.7049   6.6057   6.6059   6.7286   6.7287   6.8795   6.8795

          k =-0.5000 0.2516-0.5000 (  5224 PWs)   bands (ev):

   -65.0255 -65.0255 -65.0255 -65.0245 -31.8254 -31.8252 -31.8252 -31.8251
   -31.7774 -31.7772 -31.7772 -31.7770 -31.7740 -31.7737 -31.7737 -31.7737
    -8.2907  -8.2907  -8.2906  -8.2905   3.5413   3.5414   3.5415   3.5415
     6.3958   6.3959   6.3961   6.3962   6.9191   6.9192   6.9192   6.9194

          k =-0.5000-0.5032 0.0000 (  5232 PWs)   bands (ev):

   -65.0256 -65.0255 -65.0254 -65.0245 -31.8127 -31.8126 -31.8121 -31.8121
   -31.7935 -31.7933 -31.7925 -31.7923 -31.7717 -31.7716 -31.7711 -31.7710
    -8.3303  -8.3303  -8.3170  -8.3169   4.1679   4.1680   4.1741   4.1743
     5.6279   5.6279   5.6610   5.6610   6.9220   6.9221   6.9329   6.9331

          k =-0.5000-0.5032 0.2500 (  5212 PWs)   bands (ev):

   -65.0256 -65.0255 -65.0255 -65.0245 -31.8249 -31.8247 -31.8246 -31.8246
   -31.7806 -31.7804 -31.7802 -31.7800 -31.7708 -31.7706 -31.7704 -31.7703
    -8.2932  -8.2931  -8.2836  -8.2836   3.5290   3.5291   3.5378   3.5379
     6.3789   6.3790   6.3982   6.3982   6.9247   6.9248   6.9324   6.9326

          k =-0.5000-0.5032-0.5000 (  5232 PWs)   bands (ev):

   -65.0255 -65.0255 -65.0255 -65.0245 -31.8333 -31.8330 -31.8330 -31.8330
   -31.7737 -31.7734 -31.7734 -31.7734 -31.7703 -31.7701 -31.7701 -31.7699
    -8.2527  -8.2527  -8.2526  -8.2525   3.1193   3.1195   3.1195   3.1195
     6.9202   6.9203   6.9203   6.9205   6.9322   6.9324   6.9325   6.9325

          k = 0.0000 0.2516-0.2500 (  5223 PWs)   bands (ev):

   -65.0297 -65.0244 -65.0240 -65.0231 -31.8167 -31.8142 -31.8128 -31.8011
   -31.7921 -31.7910 -31.7874 -31.7837 -31.7818 -31.7801 -31.7728 -31.7646
    -9.0654  -8.1904  -8.1786  -8.0203   4.0484   4.0538   4.2165   4.9535
     5.7019   5.9140   5.9447   6.3364   6.3476   6.4561   7.0345   7.3571

          k =-0.2500 0.2516-0.2500 (  5220 PWs)   bands (ev):

   -65.0287 -65.0244 -65.0244 -65.0236 -31.8196 -31.8195 -31.8180 -31.8008
   -31.7891 -31.7889 -31.7885 -31.7816 -31.7785 -31.7784 -31.7703 -31.7665
    -8.9009  -8.1576  -8.1575  -8.1492   3.8915   3.8941   3.8942   4.9605
     5.7170   5.7171   5.7268   6.5567   6.5751   6.5753   7.2092   7.2113

          k = 0.5000 0.2516-0.2500 (  5200 PWs)   bands (ev):

   -65.0267 -65.0263 -65.0244 -65.0238 -31.8217 -31.8215 -31.8146 -31.8145
   -31.7880 -31.7878 -31.7782 -31.7781 -31.7751 -31.7750 -31.7716 -31.7714
    -8.5159  -8.5158  -8.1219  -8.1218   3.7177   3.7178   4.0870   4.0872
     5.7049   5.7049   6.6057   6.6059   6.7286   6.7287   6.8795   6.8795

     highest occupied level (ev):     7.5239

!    total energy              =    -608.39200515 Ry
     Harris-Foulkes estimate   =    -608.39200515 Ry
     estimated scf accuracy    <          5.3E-09 Ry

     The total energy is the sum of the following terms:

     one-electron contribution =    -306.06158410 Ry
     hartree contribution      =     168.90798291 Ry
     xc contribution           =     -97.79463041 Ry
     ewald contribution        =    -373.44377354 Ry

     convergence has been achieved in   4 iterations

     Forces acting on atoms (cartesian axes, Ry/au):

     atom    1 type  1   force =     0.00000000    0.00249069   -0.00001516
     atom    2 type  1   force =     0.00000000   -0.00250309    0.00001507
     atom    3 type  1   force =     0.00000000    0.00256358    0.00001521
     atom    4 type  1   force =     0.00000000   -0.00250278   -0.00001567
     atom    5 type  2   force =     0.00000000    0.00274226   -0.00001675
     atom    6 type  2   force =     0.00000000   -0.00276022   -0.00001678
     atom    7 type  2   force =     0.00000000    0.00274305    0.00001700
     atom    8 type  2   force =     0.00000000   -0.00277349    0.00001709

     Total force =     0.007461     Total SCF correction =     0.000384


     Computing stress (Cartesian axis) and pressure

          total   stress  (Ry/bohr**3)                   (kbar)     P=  -85.56
  -0.00060526   0.00000000   0.00000000        -89.04      0.00      0.00
   0.00000000  -0.00053382   0.00000000          0.00    -78.53      0.00
   0.00000000   0.00000000  -0.00060589          0.00      0.00    -89.13


     number of scf cycles    =   2
     number of bfgs steps    =   1

     energy   old            =    -608.3919086811 Ry
     energy   new            =    -608.3920051479 Ry

     CASE: energy  _new < energy  _old

     new trust radius        =       0.0044823122 bohr
     new conv_thr            =       0.0000000010 Ry


ATOMIC_POSITIONS (alat)
Mg       0.000000000   0.000930520  -0.000005615
Mg       0.000000000   0.499074577   0.500005453
Mg       0.500000000   0.000945325   0.500005580
Mg       0.500000000   0.499074493  -0.000005649
O        0.500000000   0.001042056  -0.000006312
O        0.000000000   0.498947619  -0.000006306
O        0.000000000   0.001042287   0.500006410
O        0.500000000   0.498943122   0.500006439



     Writing output data file diamond.8.09646969775.70.4.save
     NEW-OLD atomic charge density approx. for the potential

     Check: negative/imaginary core charge=   -0.000007    0.000000

     total cpu time spent up to now is       20.3 secs

     per-process dynamical memory:    56.1 Mb

     Self-consistent Calculation

     iteration #  1     ecut=    70.00 Ry     beta=0.70
     Davidson diagonalization with overlap
     ethr =  1.00E-06,  avg # of iterations =  3.0

     Threshold (ethr) on eigenvalues was too large:
     Diagonalizing with lowered threshold

     Davidson diagonalization with overlap
     ethr =  3.94E-08,  avg # of iterations =  1.2

     total cpu time spent up to now is       23.2 secs

     total energy              =    -608.39206485 Ry
     Harris-Foulkes estimate   =    -608.39208344 Ry
     estimated scf accuracy    <       0.00002541 Ry

     iteration #  2     ecut=    70.00 Ry     beta=0.70
     Davidson diagonalization with overlap
     ethr =  3.97E-08,  avg # of iterations =  2.2

     total cpu time spent up to now is       24.5 secs

     total energy              =    -608.39207252 Ry
     Harris-Foulkes estimate   =    -608.39207510 Ry
     estimated scf accuracy    <       0.00000429 Ry

     iteration #  3     ecut=    70.00 Ry     beta=0.70
     Davidson diagonalization with overlap
     ethr =  6.70E-09,  avg # of iterations =  2.0

     total cpu time spent up to now is       25.7 secs

     total energy              =    -608.39207346 Ry
     Harris-Foulkes estimate   =    -608.39207344 Ry
     estimated scf accuracy    <       0.00000003 Ry

     iteration #  4     ecut=    70.00 Ry     beta=0.70
     Davidson diagonalization with overlap
     ethr =  5.22E-11,  avg # of iterations =  2.9

     total cpu time spent up to now is       27.1 secs

     total energy              =    -608.39207346 Ry
     Harris-Foulkes estimate   =    -608.39207347 Ry
     estimated scf accuracy    <          9.4E-09 Ry

     iteration #  5     ecut=    70.00 Ry     beta=0.70
     Davidson diagonalization with overlap
     ethr =  1.46E-11,  avg # of iterations =  2.4

     total cpu time spent up to now is       28.4 secs

     End of self-consistent calculation

          k = 0.0000 0.0000 0.0000 (  5217 PWs)   bands (ev):

   -65.0323 -65.0235 -65.0233 -65.0226 -31.8244 -31.8244 -31.8212 -31.7898
   -31.7897 -31.7883 -31.7883 -31.7858 -31.7857 -31.7666 -31.7666 -31.7605
    -9.4553  -8.0450  -8.0449  -8.0285   3.6500   3.6501   3.6708   6.2291
     6.2294   6.2344   6.2348   6.2748   6.2748   7.5103   7.5240   7.5241

          k = 0.0000 0.0000 0.2500 (  5198 PWs)   bands (ev):

   -65.0309 -65.0246 -65.0234 -65.0227 -31.8188 -31.8165 -31.8154 -31.7952
   -31.7904 -31.7902 -31.7891 -31.7849 -31.7821 -31.7763 -31.7682 -31.7647
    -9.2529  -8.2542  -8.0159  -8.0042   3.9366   3.9559   3.9820   5.7166
     5.7266   6.0320   6.0632   6.3957   6.4330   6.5163   7.2920   7.3123

          k = 0.0000 0.0000-0.5000 (  5214 PWs)   bands (ev):

   -65.0280 -65.0275 -65.0233 -65.0228 -31.8080 -31.8077 -31.8029 -31.8027
   -31.7970 -31.7970 -31.7911 -31.7911 -31.7765 -31.7762 -31.7734 -31.7731
    -8.7573  -8.7572  -7.9832  -7.9830   4.7224   4.7226   4.7385   4.7387
     4.9974   4.9978   5.8539   5.8543   6.8163   6.8164   6.8462   6.8463

          k = 0.0000 0.2516 0.0000 (  5201 PWs)   bands (ev):

   -65.0309 -65.0244 -65.0235 -65.0229 -31.8190 -31.8189 -31.8115 -31.7944
   -31.7944 -31.7865 -31.7865 -31.7861 -31.7861 -31.7710 -31.7691 -31.7691
    -9.2493  -8.2384  -8.0164  -8.0164   3.9408   3.9409   3.9934   5.7514
     5.7515   6.0219   6.0223   6.3924   6.3926   6.5030   7.3030   7.3031

          k = 0.0000 0.2516 0.2500 (  5223 PWs)   bands (ev):

   -65.0298 -65.0245 -65.0241 -65.0232 -31.8168 -31.8143 -31.8129 -31.8012
   -31.7922 -31.7911 -31.7875 -31.7839 -31.7819 -31.7802 -31.7729 -31.7647
    -9.0651  -8.1902  -8.1784  -8.0201   4.0486   4.0539   4.2168   4.9536
     5.7021   5.9143   5.9447   6.3368   6.3477   6.4560   7.0346   7.3574

          k = 0.0000 0.2516-0.5000 (  5224 PWs)   bands (ev):

   -65.0273 -65.0269 -65.0240 -65.0234 -31.8107 -31.8106 -31.8052 -31.8052
   -31.8031 -31.8028 -31.7824 -31.7821 -31.7803 -31.7802 -31.7701 -31.7699
    -8.6228  -8.6226  -8.0709  -8.0708   4.3042   4.3042   4.6249   4.6251
     4.9726   4.9728   6.4247   6.4250   6.4532   6.4533   6.9470   6.9470

          k = 0.0000-0.5032 0.0000 (  5190 PWs)   bands (ev):

   -65.0279 -65.0274 -65.0234 -65.0229 -31.8072 -31.8072 -31.8066 -31.8066
   -31.7941 -31.7933 -31.7845 -31.7845 -31.7773 -31.7773 -31.7768 -31.7768
    -8.7524  -8.7399  -7.9875  -7.9875   4.7297   4.7298   4.7498   4.7499
     4.9873   4.9951   5.8221   5.8224   6.8138   6.8140   6.8259   6.8261

          k = 0.0000-0.5032 0.2500 (  5204 PWs)   bands (ev):

   -65.0272 -65.0268 -65.0241 -65.0235 -31.8116 -31.8112 -31.8033 -31.8029
   -31.8026 -31.8019 -31.7828 -31.7822 -31.7778 -31.7775 -31.7722 -31.7721
    -8.6209  -8.6099  -8.0759  -8.0738   4.3001   4.3082   4.6160   4.6245
     4.9758   4.9952   6.4027   6.4099   6.4290   6.4431   6.9522   6.9560

          k = 0.0000-0.5032-0.5000 (  5232 PWs)   bands (ev):

   -65.0257 -65.0256 -65.0256 -65.0246 -31.8127 -31.8126 -31.8123 -31.8123
   -31.7934 -31.7932 -31.7928 -31.7925 -31.7718 -31.7716 -31.7714 -31.7713
    -8.3270  -8.3268  -8.3200  -8.3199   4.1698   4.1700   4.1728   4.1729
     5.6359   5.6360   5.6532   5.6534   6.9248   6.9250   6.9304   6.9306

          k = 0.2500 0.0000 0.0000 (  5198 PWs)   bands (ev):

   -65.0309 -65.0246 -65.0234 -65.0227 -31.8188 -31.8165 -31.8154 -31.7952
   -31.7904 -31.7902 -31.7891 -31.7850 -31.7821 -31.7762 -31.7683 -31.7647
    -9.2529  -8.2541  -8.0159  -8.0042   3.9365   3.9559   3.9821   5.7167
     5.7268   6.0318   6.0631   6.3955   6.4330   6.5162   7.2919   7.3123

          k = 0.2500 0.0000 0.2500 (  5215 PWs)   bands (ev):

   -65.0298 -65.0246 -65.0242 -65.0231 -31.8167 -31.8166 -31.8106 -31.8029
   -31.7885 -31.7871 -31.7871 -31.7849 -31.7837 -31.7836 -31.7690 -31.7666
    -9.0683  -8.1905  -8.1904  -8.0122   4.0527   4.0527   4.2310   4.9534
     5.7212   5.9206   5.9210   6.3666   6.3667   6.4349   7.0198   7.3604

          k = 0.2500 0.0000-0.5000 (  5218 PWs)   bands (ev):

   -65.0273 -65.0269 -65.0240 -65.0234 -31.8126 -31.8124 -31.8054 -31.8053
   -31.7989 -31.7987 -31.7818 -31.7817 -31.7783 -31.7780 -31.7736 -31.7734
    -8.6248  -8.6246  -8.0733  -8.0731   4.3134   4.3134   4.6400   4.6403
     4.9835   4.9836   6.4103   6.4106   6.4334   6.4335   6.9584   6.9584

          k = 0.2500 0.2516 0.0000 (  5223 PWs)   bands (ev):

   -65.0298 -65.0245 -65.0241 -65.0232 -31.8168 -31.8143 -31.8129 -31.8012
   -31.7922 -31.7911 -31.7875 -31.7839 -31.7819 -31.7802 -31.7729 -31.7647
    -9.0651  -8.1901  -8.1784  -8.0201   4.0486   4.0538   4.2167   4.9536
     5.7020   5.9145   5.9447   6.3367   6.3475   6.4561   7.0347   7.3573

          k = 0.2500 0.2516 0.2500 (  5220 PWs)   bands (ev):

   -65.0289 -65.0245 -65.0245 -65.0237 -31.8197 -31.8196 -31.8181 -31.8009
   -31.7892 -31.7891 -31.7886 -31.7817 -31.7786 -31.7786 -31.7705 -31.7667
    -8.9006  -8.1574  -8.1573  -8.1490   3.8916   3.8943   3.8944   4.9607
     5.7172   5.7173   5.7269   6.5570   6.5752   6.5754   7.2094   7.2115

          k = 0.2500 0.2516-0.5000 (  5200 PWs)   bands (ev):

   -65.0268 -65.0264 -65.0245 -65.0239 -31.8218 -31.8216 -31.8147 -31.8146
   -31.7881 -31.7879 -31.7783 -31.7782 -31.7753 -31.7751 -31.7717 -31.7716
    -8.5157  -8.5155  -8.1217  -8.1216   3.7179   3.7179   4.0872   4.0874
     5.7050   5.7051   6.6060   6.6063   6.7286   6.7288   6.8796   6.8797

          k = 0.2500-0.5032 0.0000 (  5204 PWs)   bands (ev):

   -65.0272 -65.0268 -65.0241 -65.0235 -31.8116 -31.8112 -31.8033 -31.8029
   -31.8026 -31.8019 -31.7828 -31.7822 -31.7778 -31.7775 -31.7722 -31.7721
    -8.6209  -8.6098  -8.0759  -8.0737   4.3001   4.3081   4.6159   4.6244
     4.9757   4.9951   6.4028   6.4100   6.4291   6.4432   6.9521   6.9559

          k = 0.2500-0.5032 0.2500 (  5208 PWs)   bands (ev):

   -65.0268 -65.0264 -65.0245 -65.0239 -31.8223 -31.8222 -31.8145 -31.8144
   -31.7905 -31.7904 -31.7758 -31.7754 -31.7750 -31.7750 -31.7728 -31.7726
    -8.5144  -8.5050  -8.1238  -8.1238   3.7163   3.7164   4.0727   4.0815
     5.7059   5.7059   6.6009   6.6011   6.7355   6.7397   6.8647   6.8734

          k = 0.2500-0.5032-0.5000 (  5208 PWs)   bands (ev):

   -65.0257 -65.0256 -65.0256 -65.0246 -31.8250 -31.8247 -31.8247 -31.8247
   -31.7806 -31.7804 -31.7803 -31.7801 -31.7708 -31.7706 -31.7704 -31.7703
    -8.2907  -8.2906  -8.2858  -8.2856   3.5313   3.5314   3.5358   3.5359
     6.3838   6.3838   6.3938   6.3939   6.9267   6.9269   6.9307   6.9308

          k =-0.5000 0.0000 0.0000 (  5214 PWs)   bands (ev):

   -65.0280 -65.0275 -65.0233 -65.0228 -31.8080 -31.8077 -31.8029 -31.8027
   -31.7970 -31.7970 -31.7911 -31.7911 -31.7765 -31.7763 -31.7734 -31.7731
    -8.7572  -8.7571  -7.9832  -7.9831   4.7225   4.7225   4.7387   4.7387
     4.9974   4.9977   5.8537   5.8541   6.8162   6.8162   6.8463   6.8463

          k =-0.5000 0.0000 0.2500 (  5218 PWs)   bands (ev):

   -65.0273 -65.0269 -65.0240 -65.0234 -31.8126 -31.8124 -31.8054 -31.8053
   -31.7989 -31.7987 -31.7818 -31.7817 -31.7783 -31.7780 -31.7736 -31.7734
    -8.6247  -8.6246  -8.0733  -8.0731   4.3134   4.3134   4.6400   4.6402
     4.9836   4.9837   6.4102   6.4105   6.4333   6.4334   6.9584   6.9585

          k =-0.5000 0.0000-0.5000 (  5248 PWs)   bands (ev):

   -65.0257 -65.0256 -65.0256 -65.0246 -31.8139 -31.8137 -31.8136 -31.8136
   -31.7897 -31.7895 -31.7895 -31.7893 -31.7745 -31.7743 -31.7742 -31.7742
    -8.3279  -8.3278  -8.3277  -8.3276   4.1953   4.1954   4.1954   4.1955
     5.6416   5.6417   5.6419   5.6420   6.9181   6.9183   6.9183   6.9184

          k =-0.5000 0.2516 0.0000 (  5224 PWs)   bands (ev):

   -65.0273 -65.0269 -65.0240 -65.0234 -31.8107 -31.8106 -31.8052 -31.8051
   -31.8031 -31.8028 -31.7824 -31.7822 -31.7802 -31.7802 -31.7701 -31.7699
    -8.6227  -8.6226  -8.0709  -8.0708   4.3041   4.3042   4.6247   4.6250
     4.9727   4.9728   6.4247   6.4249   6.4532   6.4533   6.9469   6.9470

          k =-0.5000 0.2516 0.2500 (  5200 PWs)   bands (ev):

   -65.0268 -65.0264 -65.0245 -65.0239 -31.8218 -31.8216 -31.8147 -31.8146
   -31.7881 -31.7879 -31.7783 -31.7782 -31.7753 -31.7751 -31.7717 -31.7716
    -8.5156  -8.5155  -8.1217  -8.1216   3.7178   3.7179   4.0872   4.0873
     5.7050   5.7051   6.6060   6.6062   6.7287   6.7289   6.8796   6.8796

          k =-0.5000 0.2516-0.5000 (  5224 PWs)   bands (ev):

   -65.0256 -65.0256 -65.0256 -65.0246 -31.8255 -31.8253 -31.8253 -31.8252
   -31.7776 -31.7773 -31.7773 -31.7771 -31.7741 -31.7739 -31.7738 -31.7738
    -8.2905  -8.2904  -8.2903  -8.2903   3.5415   3.5416   3.5416   3.5416
     6.3960   6.3960   6.3962   6.3963   6.9193   6.9194   6.9194   6.9196

          k =-0.5000-0.5032 0.0000 (  5232 PWs)   bands (ev):

   -65.0257 -65.0256 -65.0256 -65.0246 -31.8127 -31.8126 -31.8123 -31.8123
   -31.7934 -31.7932 -31.7928 -31.7926 -31.7718 -31.7716 -31.7713 -31.7713
    -8.3269  -8.3268  -8.3200  -8.3199   4.1696   4.1698   4.1726   4.1727
     5.6360   5.6360   5.6533   5.6533   6.9248   6.9250   6.9305   6.9306

          k =-0.5000-0.5032 0.2500 (  5212 PWs)   bands (ev):

   -65.0257 -65.0256 -65.0256 -65.0246 -31.8250 -31.8248 -31.8247 -31.8247
   -31.7807 -31.7805 -31.7804 -31.7802 -31.7709 -31.7707 -31.7705 -31.7704
    -8.2907  -8.2906  -8.2857  -8.2856   3.5313   3.5314   3.5357   3.5358
     6.3837   6.3838   6.3938   6.3938   6.9267   6.9269   6.9307   6.9309

          k =-0.5000-0.5032-0.5000 (  5232 PWs)   bands (ev):

   -65.0256 -65.0256 -65.0256 -65.0246 -31.8334 -31.8331 -31.8331 -31.8331
   -31.7738 -31.7735 -31.7735 -31.7735 -31.7704 -31.7702 -31.7702 -31.7700
    -8.2526  -8.2524  -8.2524  -8.2523   3.1194   3.1196   3.1196   3.1196
     6.9204   6.9206   6.9206   6.9207   6.9325   6.9325   6.9327   6.9327

          k = 0.0000 0.2516-0.2500 (  5223 PWs)   bands (ev):

   -65.0298 -65.0245 -65.0241 -65.0232 -31.8168 -31.8143 -31.8129 -31.8012
   -31.7922 -31.7911 -31.7875 -31.7839 -31.7819 -31.7802 -31.7729 -31.7647
    -9.0651  -8.1902  -8.1784  -8.0201   4.0486   4.0539   4.2168   4.9536
     5.7021   5.9143   5.9447   6.3368   6.3477   6.4560   7.0346   7.3574

          k =-0.2500 0.2516-0.2500 (  5220 PWs)   bands (ev):

   -65.0289 -65.0245 -65.0245 -65.0237 -31.8197 -31.8196 -31.8181 -31.8009
   -31.7892 -31.7891 -31.7886 -31.7817 -31.7786 -31.7786 -31.7705 -31.7667
    -8.9006  -8.1574  -8.1573  -8.1490   3.8916   3.8943   3.8944   4.9607
     5.7172   5.7173   5.7269   6.5570   6.5752   6.5754   7.2094   7.2115

          k = 0.5000 0.2516-0.2500 (  5200 PWs)   bands (ev):

   -65.0268 -65.0264 -65.0245 -65.0239 -31.8218 -31.8216 -31.8147 -31.8146
   -31.7881 -31.7879 -31.7783 -31.7782 -31.7753 -31.7751 -31.7717 -31.7716
    -8.5156  -8.5155  -8.1217  -8.1216   3.7178   3.7179   4.0872   4.0873
     5.7050   5.7051   6.6060   6.6062   6.7287   6.7289   6.8796   6.8796

     highest occupied level (ev):     7.5241

!    total energy              =    -608.39207346 Ry
     Harris-Foulkes estimate   =    -608.39207346 Ry
     estimated scf accuracy    <          7.5E-10 Ry

     The total energy is the sum of the following terms:

     one-electron contribution =    -306.04877081 Ry
     hartree contribution      =     168.90124068 Ry
     xc contribution           =     -97.79436007 Ry
     ewald contribution        =    -373.45018326 Ry

     convergence has been achieved in   5 iterations

     Forces acting on atoms (cartesian axes, Ry/au):

     atom    1 type  1   force =     0.00000000    0.00131895   -0.00000859
     atom    2 type  1   force =     0.00000000   -0.00139782    0.00000907
     atom    3 type  1   force =     0.00000000    0.00145058    0.00000908
     atom    4 type  1   force =     0.00000000   -0.00139771   -0.00000945
     atom    5 type  2   force =     0.00000000    0.00136072   -0.00000895
     atom    6 type  2   force =     0.00000000   -0.00134819   -0.00000900
     atom    7 type  2   force =     0.00000000    0.00136066    0.00000890
     atom    8 type  2   force =     0.00000000   -0.00134720    0.00000894

     Total force =     0.003884     Total SCF correction =     0.000194


     Computing stress (Cartesian axis) and pressure

          total   stress  (Ry/bohr**3)                   (kbar)     P=  -85.71
  -0.00060585   0.00000000   0.00000000        -89.12      0.00      0.00
   0.00000000  -0.00053568   0.00000000          0.00    -78.80      0.00
   0.00000000   0.00000000  -0.00060647          0.00      0.00    -89.22


     number of scf cycles    =   3
     number of bfgs steps    =   2

     energy   old            =    -608.3920051479 Ry
     energy   new            =    -608.3920734640 Ry

     CASE: energy  _new < energy  _old

     new trust radius        =       0.0047386466 bohr
     new conv_thr            =       0.0000000007 Ry


ATOMIC_POSITIONS (alat)
Mg       0.000000000   0.001475973  -0.000009080
Mg       0.000000000   0.498507874   0.500009031
Mg       0.500000000   0.001530588   0.500009174
Mg       0.500000000   0.498507845  -0.000009375
O        0.500000000   0.001619190  -0.000010001
O        0.000000000   0.498372201  -0.000010011
O        0.000000000   0.001619469   0.500010107
O        0.500000000   0.498366860   0.500010155



     Writing output data file diamond.8.09646969775.70.4.save
     NEW-OLD atomic charge density approx. for the potential

     Check: negative/imaginary core charge=   -0.000007    0.000000

     total cpu time spent up to now is       29.2 secs

     per-process dynamical memory:    56.1 Mb

     Self-consistent Calculation

     iteration #  1     ecut=    70.00 Ry     beta=0.70
     Davidson diagonalization with overlap
     ethr =  1.00E-06,  avg # of iterations =  3.0

     Threshold (ethr) on eigenvalues was too large:
     Diagonalizing with lowered threshold

     Davidson diagonalization with overlap
     ethr =  4.46E-08,  avg # of iterations =  1.2

     total cpu time spent up to now is       32.0 secs

     total energy              =    -608.39208919 Ry
     Harris-Foulkes estimate   =    -608.39211022 Ry
     estimated scf accuracy    <       0.00002877 Ry

     iteration #  2     ecut=    70.00 Ry     beta=0.70
     Davidson diagonalization with overlap
     ethr =  4.49E-08,  avg # of iterations =  2.2

     total cpu time spent up to now is       33.3 secs

     total energy              =    -608.39209789 Ry
     Harris-Foulkes estimate   =    -608.39210080 Ry
     estimated scf accuracy    <       0.00000484 Ry

     iteration #  3     ecut=    70.00 Ry     beta=0.70
     Davidson diagonalization with overlap
     ethr =  7.57E-09,  avg # of iterations =  2.0

     total cpu time spent up to now is       34.5 secs

     total energy              =    -608.39209895 Ry
     Harris-Foulkes estimate   =    -608.39209893 Ry
     estimated scf accuracy    <       0.00000004 Ry

     iteration #  4     ecut=    70.00 Ry     beta=0.70
     Davidson diagonalization with overlap
     ethr =  5.52E-11,  avg # of iterations =  2.5

     total cpu time spent up to now is       35.9 secs

     total energy              =    -608.39209895 Ry
     Harris-Foulkes estimate   =    -608.39209896 Ry
     estimated scf accuracy    <          4.5E-09 Ry

     iteration #  5     ecut=    70.00 Ry     beta=0.70
     Davidson diagonalization with overlap
     ethr =  7.06E-12,  avg # of iterations =  2.8

     total cpu time spent up to now is       37.2 secs

     End of self-consistent calculation

          k = 0.0000 0.0000 0.0000 (  5217 PWs)   bands (ev):

   -65.0323 -65.0235 -65.0234 -65.0226 -31.8245 -31.8244 -31.8212 -31.7898
   -31.7898 -31.7883 -31.7883 -31.7858 -31.7857 -31.7666 -31.7666 -31.7605
    -9.4552  -8.0450  -8.0449  -8.0285   3.6500   3.6502   3.6707   6.2292
     6.2294   6.2344   6.2349   6.2748   6.2748   7.5104   7.5240   7.5241

          k = 0.0000 0.0000 0.2500 (  5198 PWs)   bands (ev):

   -65.0310 -65.0246 -65.0234 -65.0228 -31.8188 -31.8165 -31.8154 -31.7952
   -31.7904 -31.7903 -31.7891 -31.7850 -31.7821 -31.7763 -31.7683 -31.7648
    -9.2529  -8.2542  -8.0158  -8.0042   3.9366   3.9558   3.9821   5.7166
     5.7266   6.0321   6.0632   6.3956   6.4330   6.5163   7.2920   7.3123

          k = 0.0000 0.0000-0.5000 (  5214 PWs)   bands (ev):

   -65.0280 -65.0276 -65.0234 -65.0228 -31.8080 -31.8078 -31.8029 -31.8027
   -31.7971 -31.7971 -31.7911 -31.7911 -31.7765 -31.7763 -31.7734 -31.7732
    -8.7572  -8.7572  -7.9831  -7.9831   4.7225   4.7226   4.7386   4.7386
     4.9974   4.9977   5.8541   5.8544   6.8163   6.8164   6.8462   6.8463

          k = 0.0000 0.2516 0.0000 (  5201 PWs)   bands (ev):

   -65.0309 -65.0245 -65.0235 -65.0229 -31.8190 -31.8190 -31.8115 -31.7944
   -31.7944 -31.7865 -31.7865 -31.7861 -31.7861 -31.7710 -31.7692 -31.7691
    -9.2492  -8.2384  -8.0164  -8.0163   3.9409   3.9410   3.9934   5.7514
     5.7515   6.0219   6.0223   6.3924   6.3927   6.5030   7.3030   7.3031

          k = 0.0000 0.2516 0.2500 (  5223 PWs)   bands (ev):

   -65.0298 -65.0245 -65.0242 -65.0232 -31.8168 -31.8143 -31.8129 -31.8012
   -31.7922 -31.7911 -31.7875 -31.7839 -31.7819 -31.7802 -31.7729 -31.7647
    -9.0650  -8.1901  -8.1784  -8.0200   4.0487   4.0538   4.2169   4.9536
     5.7022   5.9144   5.9447   6.3369   6.3477   6.4559   7.0345   7.3574

          k = 0.0000 0.2516-0.5000 (  5224 PWs)   bands (ev):

   -65.0273 -65.0269 -65.0240 -65.0235 -31.8107 -31.8106 -31.8052 -31.8052
   -31.8031 -31.8028 -31.7824 -31.7822 -31.7803 -31.7802 -31.7701 -31.7699
    -8.6227  -8.6227  -8.0709  -8.0708   4.3041   4.3042   4.6249   4.6251
     4.9728   4.9728   6.4248   6.4250   6.4532   6.4532   6.9469   6.9470

          k = 0.0000-0.5032 0.0000 (  5190 PWs)   bands (ev):

   -65.0279 -65.0274 -65.0235 -65.0229 -31.8071 -31.8070 -31.8068 -31.8068
   -31.7937 -31.7936 -31.7845 -31.7845 -31.7772 -31.7772 -31.7770 -31.7769
    -8.7463  -8.7460  -7.9875  -7.9874   4.7395   4.7395   4.7401   4.7402
     4.9911   4.9914   5.8221   5.8224   6.8198   6.8199   6.8200   6.8201

          k = 0.0000-0.5032 0.2500 (  5204 PWs)   bands (ev):

   -65.0272 -65.0268 -65.0241 -65.0235 -31.8115 -31.8114 -31.8031 -31.8030
   -31.8024 -31.8022 -31.7826 -31.7824 -31.7777 -31.7776 -31.7723 -31.7721
    -8.6155  -8.6152  -8.0749  -8.0747   4.3039   4.3044   4.6201   4.6204
     4.9852   4.9858   6.4062   6.4064   6.4360   6.4362   6.9541   6.9542

          k = 0.0000-0.5032-0.5000 (  5232 PWs)   bands (ev):

   -65.0257 -65.0257 -65.0257 -65.0247 -31.8127 -31.8125 -31.8124 -31.8124
   -31.7932 -31.7930 -31.7930 -31.7928 -31.7717 -31.7716 -31.7714 -31.7714
    -8.3235  -8.3235  -8.3233  -8.3233   4.1711   4.1712   4.1714   4.1716
     5.6443   5.6444   5.6449   5.6449   6.9275   6.9277   6.9277   6.9279

          k = 0.2500 0.0000 0.0000 (  5198 PWs)   bands (ev):

   -65.0310 -65.0246 -65.0234 -65.0228 -31.8188 -31.8165 -31.8154 -31.7953
   -31.7904 -31.7902 -31.7891 -31.7850 -31.7821 -31.7763 -31.7683 -31.7648
    -9.2528  -8.2541  -8.0159  -8.0042   3.9365   3.9559   3.9821   5.7168
     5.7268   6.0318   6.0632   6.3954   6.4330   6.5162   7.2919   7.3123

          k = 0.2500 0.0000 0.2500 (  5215 PWs)   bands (ev):

   -65.0298 -65.0246 -65.0242 -65.0231 -31.8167 -31.8166 -31.8106 -31.8029
   -31.7886 -31.7871 -31.7871 -31.7849 -31.7837 -31.7836 -31.7690 -31.7666
    -9.0682  -8.1905  -8.1904  -8.0121   4.0528   4.0528   4.2310   4.9535
     5.7212   5.9206   5.9210   6.3666   6.3667   6.4349   7.0198   7.3604

          k = 0.2500 0.0000-0.5000 (  5218 PWs)   bands (ev):

   -65.0273 -65.0269 -65.0240 -65.0235 -31.8126 -31.8124 -31.8054 -31.8053
   -31.7990 -31.7987 -31.7818 -31.7818 -31.7783 -31.7780 -31.7736 -31.7735
    -8.6247  -8.6247  -8.0732  -8.0731   4.3134   4.3135   4.6401   4.6403
     4.9835   4.9835   6.4109   6.4111   6.4329   6.4330   6.9584   6.9585

          k = 0.2500 0.2516 0.0000 (  5223 PWs)   bands (ev):

   -65.0298 -65.0245 -65.0242 -65.0232 -31.8168 -31.8143 -31.8129 -31.8012
   -31.7922 -31.7911 -31.7875 -31.7839 -31.7819 -31.7803 -31.7730 -31.7647
    -9.0650  -8.1900  -8.1784  -8.0201   4.0487   4.0538   4.2168   4.9536
     5.7021   5.9145   5.9447   6.3368   6.3476   6.4560   7.0346   7.3574

          k = 0.2500 0.2516 0.2500 (  5220 PWs)   bands (ev):

   -65.0289 -65.0246 -65.0245 -65.0238 -31.8197 -31.8196 -31.8181 -31.8009
   -31.7892 -31.7891 -31.7887 -31.7817 -31.7786 -31.7786 -31.7705 -31.7667
    -8.9006  -8.1574  -8.1572  -8.1490   3.8916   3.8944   3.8944   4.9607
     5.7172   5.7173   5.7269   6.5571   6.5752   6.5754   7.2094   7.2115

          k = 0.2500 0.2516-0.5000 (  5200 PWs)   bands (ev):

   -65.0268 -65.0264 -65.0245 -65.0239 -31.8218 -31.8216 -31.8147 -31.8146
   -31.7881 -31.7879 -31.7783 -31.7782 -31.7753 -31.7751 -31.7718 -31.7716
    -8.5156  -8.5156  -8.1216  -8.1216   3.7179   3.7179   4.0872   4.0874
     5.7050   5.7051   6.6061   6.6063   6.7286   6.7288   6.8796   6.8797

          k = 0.2500-0.5032 0.0000 (  5204 PWs)   bands (ev):

   -65.0272 -65.0268 -65.0241 -65.0235 -31.8115 -31.8114 -31.8031 -31.8030
   -31.8024 -31.8022 -31.7827 -31.7824 -31.7777 -31.7776 -31.7722 -31.7721
    -8.6155  -8.6152  -8.0748  -8.0747   4.3039   4.3043   4.6200   4.6203
     4.9852   4.9857   6.4063   6.4065   6.4361   6.4363   6.9540   6.9542

          k = 0.2500-0.5032 0.2500 (  5208 PWs)   bands (ev):

   -65.0268 -65.0264 -65.0246 -65.0240 -31.8223 -31.8222 -31.8145 -31.8144
   -31.7906 -31.7904 -31.7757 -31.7755 -31.7750 -31.7750 -31.7727 -31.7727
    -8.5097  -8.5095  -8.1238  -8.1237   3.7163   3.7164   4.0770   4.0772
     5.7059   5.7059   6.6009   6.6011   6.7375   6.7378   6.8690   6.8691

          k = 0.2500-0.5032-0.5000 (  5208 PWs)   bands (ev):

   -65.0257 -65.0257 -65.0257 -65.0247 -31.8250 -31.8247 -31.8247 -31.8247
   -31.7806 -31.7803 -31.7803 -31.7802 -31.7708 -31.7706 -31.7705 -31.7704
    -8.2882  -8.2882  -8.2881  -8.2880   3.5335   3.5336   3.5336   3.5337
     6.3886   6.3887   6.3890   6.3890   6.9286   6.9288   6.9288   6.9289

          k =-0.5000 0.0000 0.0000 (  5214 PWs)   bands (ev):

   -65.0280 -65.0275 -65.0234 -65.0228 -31.8080 -31.8078 -31.8029 -31.8027
   -31.7971 -31.7970 -31.7911 -31.7911 -31.7765 -31.7763 -31.7734 -31.7732
    -8.7572  -8.7571  -7.9832  -7.9831   4.7225   4.7226   4.7387   4.7387
     4.9974   4.9977   5.8538   5.8542   6.8162   6.8162   6.8463   6.8463

          k =-0.5000 0.0000 0.2500 (  5218 PWs)   bands (ev):

   -65.0273 -65.0269 -65.0240 -65.0235 -31.8126 -31.8124 -31.8054 -31.8053
   -31.7990 -31.7987 -31.7818 -31.7818 -31.7783 -31.7780 -31.7736 -31.7735
    -8.6247  -8.6246  -8.0732  -8.0731   4.3134   4.3135   4.6401   4.6403
     4.9836   4.9836   6.4108   6.4110   6.4328   6.4328   6.9584   6.9585

          k =-0.5000 0.0000-0.5000 (  5248 PWs)   bands (ev):

   -65.0257 -65.0257 -65.0257 -65.0247 -31.8139 -31.8137 -31.8136 -31.8136
   -31.7898 -31.7896 -31.7896 -31.7893 -31.7745 -31.7743 -31.7742 -31.7742
    -8.3278  -8.3277  -8.3277  -8.3277   4.1953   4.1954   4.1954   4.1956
     5.6416   5.6416   5.6419   5.6419   6.9182   6.9183   6.9183   6.9185

          k =-0.5000 0.2516 0.0000 (  5224 PWs)   bands (ev):

   -65.0273 -65.0269 -65.0240 -65.0235 -31.8107 -31.8106 -31.8052 -31.8052
   -31.8031 -31.8028 -31.7824 -31.7822 -31.7803 -31.7802 -31.7701 -31.7699
    -8.6227  -8.6226  -8.0709  -8.0708   4.3041   4.3042   4.6248   4.6250
     4.9728   4.9728   6.4247   6.4250   6.4532   6.4532   6.9469   6.9470

          k =-0.5000 0.2516 0.2500 (  5200 PWs)   bands (ev):

   -65.0268 -65.0264 -65.0245 -65.0239 -31.8218 -31.8216 -31.8147 -31.8146
   -31.7882 -31.7879 -31.7783 -31.7782 -31.7753 -31.7751 -31.7718 -31.7716
    -8.5156  -8.5155  -8.1217  -8.1216   3.7179   3.7179   4.0872   4.0873
     5.7050   5.7051   6.6060   6.6063   6.7287   6.7288   6.8796   6.8796

          k =-0.5000 0.2516-0.5000 (  5224 PWs)   bands (ev):

   -65.0257 -65.0257 -65.0257 -65.0247 -31.8255 -31.8253 -31.8253 -31.8253
   -31.7776 -31.7774 -31.7774 -31.7772 -31.7741 -31.7739 -31.7738 -31.7738
    -8.2904  -8.2904  -8.2903  -8.2903   3.5415   3.5416   3.5416   3.5416
     6.3960   6.3961   6.3962   6.3963   6.9193   6.9194   6.9194   6.9197

          k =-0.5000-0.5032 0.0000 (  5232 PWs)   bands (ev):

   -65.0257 -65.0257 -65.0257 -65.0247 -31.8127 -31.8125 -31.8124 -31.8124
   -31.7932 -31.7930 -31.7930 -31.7928 -31.7717 -31.7715 -31.7714 -31.7714
    -8.3235  -8.3234  -8.3233  -8.3232   4.1710   4.1710   4.1713   4.1715
     5.6444   5.6444   5.6449   5.6449   6.9276   6.9278   6.9278   6.9279

          k =-0.5000-0.5032 0.2500 (  5212 PWs)   bands (ev):

   -65.0257 -65.0257 -65.0257 -65.0247 -31.8250 -31.8248 -31.8247 -31.8247
   -31.7807 -31.7804 -31.7804 -31.7803 -31.7709 -31.7707 -31.7706 -31.7705
    -8.2882  -8.2881  -8.2881  -8.2880   3.5334   3.5335   3.5336   3.5337
     6.3886   6.3887   6.3889   6.3889   6.9286   6.9288   6.9288   6.9290

          k =-0.5000-0.5032-0.5000 (  5232 PWs)   bands (ev):

   -65.0257 -65.0257 -65.0257 -65.0247 -31.8334 -31.8331 -31.8331 -31.8331
   -31.7738 -31.7736 -31.7735 -31.7735 -31.7705 -31.7702 -31.7702 -31.7701
    -8.2525  -8.2524  -8.2523  -8.2523   3.1194   3.1196   3.1196   3.1196
     6.9204   6.9206   6.9206   6.9208   6.9324   6.9326   6.9327   6.9327

          k = 0.0000 0.2516-0.2500 (  5223 PWs)   bands (ev):

   -65.0298 -65.0245 -65.0242 -65.0232 -31.8168 -31.8143 -31.8129 -31.8012
   -31.7922 -31.7911 -31.7875 -31.7839 -31.7819 -31.7802 -31.7729 -31.7647
    -9.0650  -8.1901  -8.1784  -8.0200   4.0487   4.0538   4.2169   4.9536
     5.7022   5.9144   5.9447   6.3369   6.3477   6.4559   7.0345   7.3574

          k =-0.2500 0.2516-0.2500 (  5220 PWs)   bands (ev):

   -65.0289 -65.0246 -65.0245 -65.0238 -31.8197 -31.8196 -31.8181 -31.8009
   -31.7892 -31.7891 -31.7887 -31.7817 -31.7786 -31.7786 -31.7705 -31.7667
    -8.9006  -8.1574  -8.1572  -8.1490   3.8916   3.8944   3.8944   4.9607
     5.7172   5.7173   5.7269   6.5571   6.5752   6.5754   7.2094   7.2115

          k = 0.5000 0.2516-0.2500 (  5200 PWs)   bands (ev):

   -65.0268 -65.0264 -65.0245 -65.0239 -31.8218 -31.8216 -31.8147 -31.8146
   -31.7882 -31.7879 -31.7783 -31.7782 -31.7753 -31.7751 -31.7718 -31.7716
    -8.5156  -8.5155  -8.1217  -8.1216   3.7179   3.7179   4.0872   4.0873
     5.7050   5.7051   6.6060   6.6063   6.7287   6.7288   6.8796   6.8796

     highest occupied level (ev):     7.5241

!    total energy              =    -608.39209895 Ry
     Harris-Foulkes estimate   =    -608.39209895 Ry
     estimated scf accuracy    <          6.2E-10 Ry

     The total energy is the sum of the following terms:

     one-electron contribution =    -306.04351567 Ry
     hartree contribution      =     168.89859936 Ry
     xc contribution           =     -97.79430860 Ry
     ewald contribution        =    -373.45287404 Ry

     convergence has been achieved in   5 iterations

     Forces acting on atoms (cartesian axes, Ry/au):

     atom    1 type  1   force =     0.00000000    0.00001989   -0.00000098
     atom    2 type  1   force =     0.00000000   -0.00014348    0.00000183
     atom    3 type  1   force =     0.00000000    0.00017936    0.00000176
     atom    4 type  1   force =     0.00000000   -0.00014342   -0.00000202
     atom    5 type  2   force =     0.00000000   -0.00008472   -0.00000030
     atom    6 type  2   force =     0.00000000    0.00011703   -0.00000037
     atom    7 type  2   force =     0.00000000   -0.00008479    0.00000010
     atom    8 type  2   force =     0.00000000    0.00014014   -0.00000002

     Total force =     0.000348     Total SCF correction =     0.000231
     SCF correction compared to forces is large: reduce conv_thr to get better values


     Computing stress (Cartesian axis) and pressure

          total   stress  (Ry/bohr**3)                   (kbar)     P=  -85.74
  -0.00060585   0.00000000   0.00000000        -89.12      0.00      0.00
   0.00000000  -0.00053621   0.00000000          0.00    -78.88      0.00
   0.00000000   0.00000000  -0.00060647          0.00      0.00    -89.22


     number of scf cycles    =   4
     number of bfgs steps    =   3

     energy   old            =    -608.3920734640 Ry
     energy   new            =    -608.3920989537 Ry

     CASE: energy  _new < energy  _old

     new trust radius        =       0.0002051449 bohr
     new conv_thr            =       0.0000000002 Ry


ATOMIC_POSITIONS (alat)
Mg       0.000000000   0.001481374  -0.000009220
Mg       0.000000000   0.498487075   0.500009276
Mg       0.500000000   0.001555924   0.500009410
Mg       0.500000000   0.498487053  -0.000009644
O        0.500000000   0.001611861  -0.000010058
O        0.000000000   0.498383531  -0.000010077
O        0.000000000   0.001612132   0.500010140
O        0.500000000   0.498381051   0.500010173



     Writing output data file diamond.8.09646969775.70.4.save
     NEW-OLD atomic charge density approx. for the potential

     Check: negative/imaginary core charge=   -0.000007    0.000000

     total cpu time spent up to now is       37.9 secs

     per-process dynamical memory:    56.1 Mb

     Self-consistent Calculation

     iteration #  1     ecut=    70.00 Ry     beta=0.70
     Davidson diagonalization with overlap
     ethr =  1.00E-06,  avg # of iterations =  2.0

     Threshold (ethr) on eigenvalues was too large:
     Diagonalizing with lowered threshold

     Davidson diagonalization with overlap
     ethr =  8.02E-12,  avg # of iterations =  3.7

     total cpu time spent up to now is       41.1 secs

     total energy              =    -608.39209906 Ry
     Harris-Foulkes estimate   =    -608.39209906 Ry
     estimated scf accuracy    <          5.4E-09 Ry

     iteration #  2     ecut=    70.00 Ry     beta=0.70
     Davidson diagonalization with overlap
     ethr =  8.37E-12,  avg # of iterations =  3.0

     total cpu time spent up to now is       42.5 secs

     total energy              =    -608.39209906 Ry
     Harris-Foulkes estimate   =    -608.39209906 Ry
     estimated scf accuracy    <          3.9E-09 Ry

     iteration #  3     ecut=    70.00 Ry     beta=0.70
     Davidson diagonalization with overlap
     ethr =  6.02E-12,  avg # of iterations =  3.0

     total cpu time spent up to now is       43.8 secs

     total energy              =    -608.39209906 Ry
     Harris-Foulkes estimate   =    -608.39209906 Ry
     estimated scf accuracy    <          4.3E-10 Ry

     iteration #  4     ecut=    70.00 Ry     beta=0.70
     Davidson diagonalization with overlap
     ethr =  6.68E-13,  avg # of iterations =  2.9

     total cpu time spent up to now is       45.1 secs

     End of self-consistent calculation

          k = 0.0000 0.0000 0.0000 (  5217 PWs)   bands (ev):

   -65.0323 -65.0235 -65.0234 -65.0226 -31.8245 -31.8244 -31.8212 -31.7898
   -31.7898 -31.7883 -31.7883 -31.7858 -31.7857 -31.7666 -31.7666 -31.7605
    -9.4553  -8.0450  -8.0449  -8.0285   3.6500   3.6502   3.6707   6.2292
     6.2294   6.2344   6.2349   6.2748   6.2748   7.5104   7.5240   7.5241

          k = 0.0000 0.0000 0.2500 (  5198 PWs)   bands (ev):

   -65.0310 -65.0246 -65.0234 -65.0228 -31.8188 -31.8165 -31.8154 -31.7952
   -31.7904 -31.7903 -31.7891 -31.7850 -31.7821 -31.7763 -31.7683 -31.7648
    -9.2529  -8.2542  -8.0158  -8.0042   3.9366   3.9558   3.9821   5.7166
     5.7266   6.0321   6.0632   6.3956   6.4330   6.5163   7.2920   7.3123

          k = 0.0000 0.0000-0.5000 (  5214 PWs)   bands (ev):

   -65.0280 -65.0275 -65.0234 -65.0228 -31.8080 -31.8077 -31.8029 -31.8027
   -31.7971 -31.7971 -31.7911 -31.7911 -31.7765 -31.7763 -31.7734 -31.7732
    -8.7573  -8.7572  -7.9831  -7.9831   4.7225   4.7226   4.7386   4.7386
     4.9974   4.9977   5.8540   5.8544   6.8163   6.8163   6.8462   6.8463

          k = 0.0000 0.2516 0.0000 (  5201 PWs)   bands (ev):

   -65.0309 -65.0244 -65.0235 -65.0229 -31.8190 -31.8190 -31.8115 -31.7944
   -31.7944 -31.7865 -31.7865 -31.7861 -31.7861 -31.7710 -31.7692 -31.7691
    -9.2492  -8.2384  -8.0164  -8.0163   3.9409   3.9410   3.9934   5.7514
     5.7515   6.0219   6.0223   6.3924   6.3927   6.5030   7.3030   7.3031

          k = 0.0000 0.2516 0.2500 (  5223 PWs)   bands (ev):

   -65.0298 -65.0245 -65.0242 -65.0232 -31.8168 -31.8143 -31.8129 -31.8012
   -31.7922 -31.7911 -31.7875 -31.7839 -31.7819 -31.7802 -31.7729 -31.7647
    -9.0650  -8.1901  -8.1784  -8.0200   4.0487   4.0538   4.2169   4.9536
     5.7022   5.9144   5.9447   6.3369   6.3477   6.4559   7.0345   7.3574

          k = 0.0000 0.2516-0.5000 (  5224 PWs)   bands (ev):

   -65.0273 -65.0269 -65.0240 -65.0235 -31.8107 -31.8106 -31.8052 -31.8052
   -31.8031 -31.8028 -31.7824 -31.7822 -31.7803 -31.7802 -31.7701 -31.7699
    -8.6227  -8.6226  -8.0709  -8.0708   4.3041   4.3042   4.6249   4.6251
     4.9728   4.9728   6.4248   6.4250   6.4532   6.4532   6.9469   6.9470

          k = 0.0000-0.5032 0.0000 (  5190 PWs)   bands (ev):

   -65.0279 -65.0274 -65.0235 -65.0229 -31.8071 -31.8070 -31.8068 -31.8068
   -31.7937 -31.7936 -31.7845 -31.7845 -31.7772 -31.7771 -31.7770 -31.7769
    -8.7463  -8.7460  -7.9875  -7.9875   4.7394   4.7395   4.7401   4.7402
     4.9911   4.9913   5.8221   5.8224   6.8198   6.8200   6.8200   6.8202

          k = 0.0000-0.5032 0.2500 (  5204 PWs)   bands (ev):

   -65.0272 -65.0268 -65.0241 -65.0235 -31.8115 -31.8114 -31.8031 -31.8030
   -31.8024 -31.8022 -31.7826 -31.7824 -31.7777 -31.7776 -31.7723 -31.7721
    -8.6155  -8.6152  -8.0749  -8.0748   4.3039   4.3044   4.6201   4.6203
     4.9852   4.9858   6.4062   6.4064   6.4359   6.4362   6.9540   6.9542

          k = 0.0000-0.5032-0.5000 (  5232 PWs)   bands (ev):

   -65.0257 -65.0257 -65.0257 -65.0247 -31.8127 -31.8125 -31.8124 -31.8124
   -31.7932 -31.7930 -31.7930 -31.7928 -31.7717 -31.7716 -31.7714 -31.7714
    -8.3235  -8.3235  -8.3233  -8.3233   4.1712   4.1712   4.1714   4.1716
     5.6443   5.6443   5.6449   5.6450   6.9275   6.9277   6.9277   6.9278

          k = 0.2500 0.0000 0.0000 (  5198 PWs)   bands (ev):

   -65.0310 -65.0246 -65.0234 -65.0228 -31.8188 -31.8165 -31.8154 -31.7952
   -31.7904 -31.7902 -31.7891 -31.7850 -31.7821 -31.7763 -31.7683 -31.7648
    -9.2528  -8.2541  -8.0159  -8.0042   3.9365   3.9559   3.9821   5.7168
     5.7268   6.0318   6.0632   6.3954   6.4330   6.5162   7.2919   7.3123

          k = 0.2500 0.0000 0.2500 (  5215 PWs)   bands (ev):

   -65.0298 -65.0246 -65.0242 -65.0231 -31.8167 -31.8166 -31.8106 -31.8029
   -31.7886 -31.7871 -31.7871 -31.7849 -31.7837 -31.7836 -31.7690 -31.7666
    -9.0682  -8.1905  -8.1904  -8.0122   4.0528   4.0528   4.2310   4.9535
     5.7212   5.9206   5.9210   6.3666   6.3667   6.4349   7.0198   7.3604

          k = 0.2500 0.0000-0.5000 (  5218 PWs)   bands (ev):

   -65.0273 -65.0269 -65.0240 -65.0235 -31.8126 -31.8124 -31.8054 -31.8053
   -31.7990 -31.7987 -31.7818 -31.7818 -31.7783 -31.7780 -31.7736 -31.7735
    -8.6247  -8.6246  -8.0732  -8.0731   4.3134   4.3135   4.6401   4.6403
     4.9835   4.9835   6.4109   6.4111   6.4329   6.4330   6.9584   6.9584

          k = 0.2500 0.2516 0.0000 (  5223 PWs)   bands (ev):

   -65.0298 -65.0245 -65.0242 -65.0232 -31.8168 -31.8143 -31.8129 -31.8012
   -31.7922 -31.7911 -31.7875 -31.7839 -31.7819 -31.7802 -31.7729 -31.7647
    -9.0650  -8.1901  -8.1784  -8.0201   4.0487   4.0538   4.2168   4.9536
     5.7020   5.9145   5.9447   6.3368   6.3475   6.4560   7.0346   7.3574

          k = 0.2500 0.2516 0.2500 (  5220 PWs)   bands (ev):

   -65.0289 -65.0246 -65.0245 -65.0238 -31.8197 -31.8196 -31.8181 -31.8009
   -31.7892 -31.7891 -31.7887 -31.7817 -31.7786 -31.7786 -31.7705 -31.7667
    -8.9006  -8.1574  -8.1573  -8.1490   3.8916   3.8943   3.8944   4.9607
     5.7172   5.7173   5.7269   6.5571   6.5752   6.5754   7.2094   7.2115

          k = 0.2500 0.2516-0.5000 (  5200 PWs)   bands (ev):

   -65.0268 -65.0264 -65.0245 -65.0239 -31.8218 -31.8216 -31.8147 -31.8146
   -31.7881 -31.7879 -31.7783 -31.7782 -31.7753 -31.7751 -31.7718 -31.7716
    -8.5156  -8.5156  -8.1217  -8.1216   3.7179   3.7179   4.0872   4.0874
     5.7050   5.7051   6.6061   6.6063   6.7286   6.7288   6.8796   6.8796

          k = 0.2500-0.5032 0.0000 (  5204 PWs)   bands (ev):

   -65.0272 -65.0268 -65.0241 -65.0235 -31.8115 -31.8114 -31.8031 -31.8030
   -31.8024 -31.8022 -31.7827 -31.7824 -31.7777 -31.7776 -31.7722 -31.7721
    -8.6155  -8.6152  -8.0748  -8.0747   4.3039   4.3043   4.6200   4.6202
     4.9851   4.9858   6.4063   6.4065   6.4360   6.4364   6.9540   6.9542

          k = 0.2500-0.5032 0.2500 (  5208 PWs)   bands (ev):

   -65.0268 -65.0264 -65.0246 -65.0240 -31.8223 -31.8222 -31.8145 -31.8144
   -31.7906 -31.7904 -31.7757 -31.7755 -31.7750 -31.7750 -31.7727 -31.7727
    -8.5098  -8.5095  -8.1238  -8.1237   3.7163   3.7164   4.0770   4.0772
     5.7059   5.7059   6.6009   6.6011   6.7375   6.7378   6.8690   6.8692

          k = 0.2500-0.5032-0.5000 (  5208 PWs)   bands (ev):

   -65.0257 -65.0257 -65.0257 -65.0247 -31.8250 -31.8247 -31.8247 -31.8247
   -31.7806 -31.7803 -31.7803 -31.7802 -31.7708 -31.7706 -31.7705 -31.7704
    -8.2883  -8.2882  -8.2881  -8.2880   3.5335   3.5336   3.5336   3.5337
     6.3886   6.3887   6.3890   6.3890   6.9286   6.9288   6.9288   6.9289

          k =-0.5000 0.0000 0.0000 (  5214 PWs)   bands (ev):

   -65.0280 -65.0275 -65.0234 -65.0228 -31.8080 -31.8078 -31.8029 -31.8027
   -31.7971 -31.7970 -31.7911 -31.7911 -31.7765 -31.7763 -31.7734 -31.7732
    -8.7572  -8.7571  -7.9832  -7.9831   4.7225   4.7226   4.7387   4.7387
     4.9974   4.9977   5.8538   5.8542   6.8162   6.8162   6.8463   6.8463

          k =-0.5000 0.0000 0.2500 (  5218 PWs)   bands (ev):

   -65.0273 -65.0269 -65.0240 -65.0235 -31.8126 -31.8124 -31.8054 -31.8053
   -31.7990 -31.7987 -31.7818 -31.7818 -31.7783 -31.7780 -31.7736 -31.7735
    -8.6247  -8.6246  -8.0732  -8.0731   4.3134   4.3135   4.6401   4.6403
     4.9835   4.9836   6.4107   6.4110   6.4328   6.4329   6.9584   6.9585

          k =-0.5000 0.0000-0.5000 (  5248 PWs)   bands (ev):

   -65.0257 -65.0257 -65.0257 -65.0247 -31.8139 -31.8137 -31.8136 -31.8136
   -31.7898 -31.7896 -31.7896 -31.7893 -31.7745 -31.7743 -31.7742 -31.7742
    -8.3279  -8.3277  -8.3277  -8.3277   4.1953   4.1954   4.1954   4.1956
     5.6416   5.6416   5.6419   5.6419   6.9181   6.9183   6.9183   6.9185

          k =-0.5000 0.2516 0.0000 (  5224 PWs)   bands (ev):

   -65.0273 -65.0269 -65.0240 -65.0235 -31.8107 -31.8106 -31.8052 -31.8052
   -31.8031 -31.8028 -31.7824 -31.7822 -31.7802 -31.7802 -31.7701 -31.7699
[...]
   -31.7892 -31.7891 -31.7887 -31.7817 -31.7786 -31.7786 -31.7705 -31.7667
    -8.9006  -8.1574  -8.1573  -8.1490   3.8916   3.8943   3.8944   4.9607
     5.7172   5.7173   5.7269   6.5571   6.5752   6.5754   7.2094   7.2115

          k = 0.5000 0.2516-0.2500 (  5200 PWs)   bands (ev):

   -65.0268 -65.0264 -65.0245 -65.0239 -31.8218 -31.8216 -31.8147 -31.8146
   -31.7882 -31.7879 -31.7783 -31.7782 -31.7753 -31.7751 -31.7718 -31.7716
    -8.5156  -8.5155  -8.1217  -8.1216   3.7179   3.7179   4.0872   4.0873
     5.7050   5.7051   6.6060   6.6063   6.7287   6.7288   6.8796   6.8796

     highest occupied level (ev):     7.5241

!    total energy              =    -608.39209906 Ry
     Harris-Foulkes estimate   =    -608.39209906 Ry
     estimated scf accuracy    <          6.7E-12 Ry

     The total energy is the sum of the following terms:

     one-electron contribution =    -306.04351833 Ry
     hartree contribution      =     168.89861021 Ry
     xc contribution           =     -97.79431330 Ry
     ewald contribution        =    -373.45287765 Ry

     convergence has been achieved in   4 iterations

     Forces acting on atoms (cartesian axes, Ry/au):

     atom    1 type  1   force =     0.00000000   -0.00000768   -0.00000057
     atom    2 type  1   force =     0.00000000   -0.00009629    0.00000132
     atom    3 type  1   force =     0.00000000    0.00012621    0.00000125
     atom    4 type  1   force =     0.00000000   -0.00009624   -0.00000147
     atom    5 type  2   force =     0.00000000   -0.00006092   -0.00000023
     atom    6 type  2   force =     0.00000000    0.00008534   -0.00000024
     atom    7 type  2   force =     0.00000000   -0.00006162    0.00000003
     atom    8 type  2   force =     0.00000000    0.00011120   -0.00000010

     Total force =     0.000248     Total SCF correction =     0.000010


     Computing stress (Cartesian axis) and pressure

          total   stress  (Ry/bohr**3)                   (kbar)     P=  -85.74
  -0.00060582   0.00000000   0.00000000        -89.12      0.00      0.00
   0.00000000  -0.00053619   0.00000000          0.00    -78.88      0.00
   0.00000000   0.00000000  -0.00060645          0.00      0.00    -89.21


     number of scf cycles    =   5
     number of bfgs steps    =   4

     energy   old            =    -608.3920989537 Ry
     energy   new            =    -608.3920990584 Ry

     CASE: energy  _new < energy  _old

     new trust radius        =       0.0002256594 bohr
     new conv_thr            =            1.0E-10 Ry


ATOMIC_POSITIONS (alat)
Mg       0.000000000   0.001480725  -0.000009348
Mg       0.000000000   0.498465594   0.500009563
Mg       0.500000000   0.001583794   0.500009683
Mg       0.500000000   0.498465583  -0.000009963
O        0.500000000   0.001599676  -0.000010112
O        0.000000000   0.498400927  -0.000010134
O        0.000000000   0.001599804   0.500010152
O        0.500000000   0.498403898   0.500010158



     Writing output data file diamond.8.09646969775.70.4.save
     NEW-OLD atomic charge density approx. for the potential

     Check: negative/imaginary core charge=   -0.000007    0.000000

     total cpu time spent up to now is       45.9 secs

     per-process dynamical memory:    56.1 Mb

     Self-consistent Calculation

     iteration #  1     ecut=    70.00 Ry     beta=0.70
     Davidson diagonalization with overlap
     ethr =  1.00E-06,  avg # of iterations =  2.0

     Threshold (ethr) on eigenvalues was too large:
     Diagonalizing with lowered threshold

     Davidson diagonalization with overlap
     ethr =  1.73E-11,  avg # of iterations =  3.7

     total cpu time spent up to now is       48.9 secs

     total energy              =    -608.39209913 Ry
     Harris-Foulkes estimate   =    -608.39209914 Ry
     estimated scf accuracy    <          9.9E-09 Ry

     iteration #  2     ecut=    70.00 Ry     beta=0.70
     Davidson diagonalization with overlap
     ethr =  1.55E-11,  avg # of iterations =  2.0

     total cpu time spent up to now is       50.2 secs

     total energy              =    -608.39209914 Ry
     Harris-Foulkes estimate   =    -608.39209914 Ry
     estimated scf accuracy    <          1.5E-09 Ry

     iteration #  3     ecut=    70.00 Ry     beta=0.70
     Davidson diagonalization with overlap
     ethr =  2.28E-12,  avg # of iterations =  2.0

     total cpu time spent up to now is       51.3 secs

     End of self-consistent calculation

          k = 0.0000 0.0000 0.0000 (  5217 PWs)   bands (ev):

   -65.0323 -65.0235 -65.0234 -65.0226 -31.8245 -31.8244 -31.8212 -31.7898
   -31.7898 -31.7883 -31.7883 -31.7858 -31.7857 -31.7666 -31.7666 -31.7605
    -9.4553  -8.0450  -8.0449  -8.0285   3.6500   3.6502   3.6707   6.2292
     6.2294   6.2344   6.2349   6.2748   6.2748   7.5104   7.5240   7.5241

          k = 0.0000 0.0000 0.2500 (  5198 PWs)   bands (ev):

   -65.0310 -65.0246 -65.0234 -65.0228 -31.8188 -31.8165 -31.8154 -31.7952
   -31.7904 -31.7903 -31.7891 -31.7850 -31.7821 -31.7763 -31.7683 -31.7648
    -9.2529  -8.2542  -8.0158  -8.0042   3.9366   3.9558   3.9821   5.7166
     5.7266   6.0321   6.0632   6.3956   6.4330   6.5163   7.2920   7.3123

          k = 0.0000 0.0000-0.5000 (  5214 PWs)   bands (ev):

   -65.0280 -65.0275 -65.0234 -65.0228 -31.8080 -31.8077 -31.8029 -31.8027
   -31.7971 -31.7971 -31.7911 -31.7911 -31.7765 -31.7763 -31.7734 -31.7732
    -8.7573  -8.7572  -7.9831  -7.9831   4.7225   4.7226   4.7386   4.7386
     4.9974   4.9977   5.8540   5.8544   6.8163   6.8163   6.8462   6.8463

          k = 0.0000 0.2516 0.0000 (  5201 PWs)   bands (ev):

   -65.0309 -65.0245 -65.0235 -65.0229 -31.8190 -31.8190 -31.8115 -31.7944
   -31.7944 -31.7865 -31.7865 -31.7861 -31.7861 -31.7710 -31.7692 -31.7691
    -9.2492  -8.2384  -8.0164  -8.0163   3.9409   3.9410   3.9934   5.7514
     5.7515   6.0219   6.0223   6.3924   6.3927   6.5030   7.3030   7.3031

          k = 0.0000 0.2516 0.2500 (  5223 PWs)   bands (ev):

   -65.0298 -65.0245 -65.0242 -65.0232 -31.8168 -31.8143 -31.8129 -31.8012
   -31.7922 -31.7911 -31.7875 -31.7839 -31.7819 -31.7802 -31.7729 -31.7647
    -9.0650  -8.1901  -8.1784  -8.0200   4.0487   4.0538   4.2169   4.9536
     5.7022   5.9144   5.9447   6.3369   6.3477   6.4559   7.0345   7.3574

          k = 0.0000 0.2516-0.5000 (  5224 PWs)   bands (ev):

   -65.0273 -65.0269 -65.0240 -65.0235 -31.8107 -31.8106 -31.8052 -31.8052
   -31.8031 -31.8028 -31.7824 -31.7822 -31.7803 -31.7802 -31.7701 -31.7699
    -8.6227  -8.6226  -8.0709  -8.0708   4.3041   4.3042   4.6249   4.6251
     4.9728   4.9728   6.4248   6.4250   6.4532   6.4532   6.9469   6.9470

          k = 0.0000-0.5032 0.0000 (  5190 PWs)   bands (ev):

   -65.0279 -65.0274 -65.0235 -65.0229 -31.8071 -31.8070 -31.8068 -31.8068
   -31.7937 -31.7936 -31.7845 -31.7845 -31.7772 -31.7771 -31.7770 -31.7769
    -8.7464  -8.7459  -7.9875  -7.9875   4.7393   4.7394   4.7402   4.7403
     4.9911   4.9914   5.8221   5.8224   6.8197   6.8199   6.8201   6.8203

          k = 0.0000-0.5032 0.2500 (  5204 PWs)   bands (ev):

   -65.0272 -65.0268 -65.0241 -65.0235 -31.8115 -31.8114 -31.8031 -31.8030
   -31.8024 -31.8022 -31.7826 -31.7824 -31.7777 -31.7776 -31.7723 -31.7721
    -8.6156  -8.6151  -8.0749  -8.0748   4.3039   4.3044   4.6201   4.6203
     4.9851   4.9860   6.4061   6.4065   6.4358   6.4363   6.9540   6.9542

          k = 0.0000-0.5032-0.5000 (  5232 PWs)   bands (ev):

   -65.0257 -65.0257 -65.0257 -65.0247 -31.8127 -31.8125 -31.8124 -31.8124
   -31.7932 -31.7930 -31.7930 -31.7928 -31.7717 -31.7716 -31.7714 -31.7714
    -8.3236  -8.3235  -8.3233  -8.3232   4.1712   4.1713   4.1713   4.1715
     5.6442   5.6442   5.6450   5.6451   6.9275   6.9277   6.9277   6.9279

          k = 0.2500 0.0000 0.0000 (  5198 PWs)   bands (ev):

   -65.0310 -65.0246 -65.0234 -65.0228 -31.8188 -31.8165 -31.8154 -31.7952
   -31.7904 -31.7902 -31.7891 -31.7850 -31.7821 -31.7763 -31.7683 -31.7648
    -9.2528  -8.2541  -8.0159  -8.0042   3.9365   3.9559   3.9821   5.7168
     5.7268   6.0318   6.0632   6.3954   6.4330   6.5162   7.2919   7.3123

          k = 0.2500 0.0000 0.2500 (  5215 PWs)   bands (ev):

   -65.0298 -65.0246 -65.0242 -65.0231 -31.8167 -31.8166 -31.8106 -31.8029
   -31.7886 -31.7871 -31.7871 -31.7849 -31.7837 -31.7836 -31.7690 -31.7666
    -9.0682  -8.1905  -8.1904  -8.0122   4.0528   4.0528   4.2310   4.9535
     5.7212   5.9206   5.9210   6.3666   6.3667   6.4349   7.0198   7.3604

          k = 0.2500 0.0000-0.5000 (  5218 PWs)   bands (ev):

   -65.0273 -65.0269 -65.0240 -65.0235 -31.8126 -31.8124 -31.8054 -31.8053
   -31.7990 -31.7987 -31.7818 -31.7818 -31.7783 -31.7780 -31.7736 -31.7735
    -8.6247  -8.6246  -8.0732  -8.0731   4.3134   4.3135   4.6401   4.6403
     4.9835   4.9835   6.4109   6.4111   6.4329   6.4330   6.9584   6.9584

          k = 0.2500 0.2516 0.0000 (  5223 PWs)   bands (ev):

   -65.0298 -65.0245 -65.0242 -65.0232 -31.8168 -31.8143 -31.8129 -31.8012
   -31.7922 -31.7911 -31.7875 -31.7839 -31.7819 -31.7802 -31.7730 -31.7647
    -9.0650  -8.1901  -8.1784  -8.0201   4.0487   4.0538   4.2168   4.9536
     5.7021   5.9145   5.9447   6.3368   6.3475   6.4560   7.0346   7.3574

          k = 0.2500 0.2516 0.2500 (  5220 PWs)   bands (ev):

   -65.0289 -65.0246 -65.0245 -65.0238 -31.8197 -31.8196 -31.8181 -31.8009
   -31.7892 -31.7891 -31.7887 -31.7817 -31.7786 -31.7786 -31.7705 -31.7667
    -8.9006  -8.1573  -8.1573  -8.1490   3.8916   3.8943   3.8944   4.9607
     5.7172   5.7173   5.7269   6.5571   6.5752   6.5754   7.2094   7.2115

          k = 0.2500 0.2516-0.5000 (  5200 PWs)   bands (ev):

   -65.0268 -65.0264 -65.0245 -65.0239 -31.8218 -31.8216 -31.8147 -31.8146
   -31.7881 -31.7879 -31.7783 -31.7782 -31.7753 -31.7751 -31.7718 -31.7716
    -8.5156  -8.5155  -8.1217  -8.1216   3.7179   3.7179   4.0872   4.0874
     5.7050   5.7051   6.6061   6.6063   6.7286   6.7288   6.8796   6.8797

          k = 0.2500-0.5032 0.0000 (  5204 PWs)   bands (ev):

   -65.0272 -65.0268 -65.0241 -65.0235 -31.8115 -31.8114 -31.8031 -31.8030
   -31.8024 -31.8022 -31.7827 -31.7824 -31.7777 -31.7776 -31.7722 -31.7721
    -8.6156  -8.6151  -8.0748  -8.0747   4.3039   4.3043   4.6200   4.6202
     4.9850   4.9859   6.4062   6.4066   6.4359   6.4365   6.9540   6.9542

          k = 0.2500-0.5032 0.2500 (  5208 PWs)   bands (ev):

   -65.0268 -65.0264 -65.0246 -65.0240 -31.8223 -31.8222 -31.8145 -31.8144
   -31.7906 -31.7904 -31.7757 -31.7756 -31.7750 -31.7750 -31.7727 -31.7727
    -8.5098  -8.5095  -8.1238  -8.1237   3.7163   3.7164   4.0770   4.0772
     5.7059   5.7059   6.6009   6.6011   6.7375   6.7378   6.8689   6.8692

          k = 0.2500-0.5032-0.5000 (  5208 PWs)   bands (ev):

   -65.0257 -65.0257 -65.0257 -65.0247 -31.8250 -31.8247 -31.8247 -31.8247
   -31.7806 -31.7803 -31.7803 -31.7802 -31.7708 -31.7706 -31.7705 -31.7704
    -8.2883  -8.2882  -8.2881  -8.2880   3.5335   3.5336   3.5336   3.5337
     6.3886   6.3886   6.3891   6.3891   6.9286   6.9288   6.9288   6.9290

          k =-0.5000 0.0000 0.0000 (  5214 PWs)   bands (ev):

   -65.0280 -65.0275 -65.0234 -65.0228 -31.8080 -31.8078 -31.8029 -31.8027
   -31.7971 -31.7970 -31.7911 -31.7911 -31.7765 -31.7763 -31.7734 -31.7732
    -8.7572  -8.7571  -7.9832  -7.9831   4.7225   4.7226   4.7387   4.7387
     4.9974   4.9977   5.8538   5.8542   6.8162   6.8162   6.8463   6.8463

          k =-0.5000 0.0000 0.2500 (  5218 PWs)   bands (ev):

   -65.0273 -65.0269 -65.0240 -65.0235 -31.8126 -31.8124 -31.8054 -31.8053
   -31.7990 -31.7987 -31.7818 -31.7818 -31.7783 -31.7780 -31.7736 -31.7735
    -8.6247  -8.6246  -8.0732  -8.0731   4.3134   4.3135   4.6401   4.6403
     4.9835   4.9836   6.4107   6.4110   6.4328   6.4329   6.9584   6.9585

          k =-0.5000 0.0000-0.5000 (  5248 PWs)   bands (ev):

   -65.0257 -65.0257 -65.0257 -65.0247 -31.8139 -31.8137 -31.8136 -31.8136
   -31.7898 -31.7896 -31.7896 -31.7893 -31.7745 -31.7743 -31.7742 -31.7742
    -8.3279  -8.3277  -8.3277  -8.3277   4.1953   4.1954   4.1954   4.1956
     5.6416   5.6416   5.6419   5.6419   6.9181   6.9183   6.9183   6.9185

          k =-0.5000 0.2516 0.0000 (  5224 PWs)   bands (ev):

   -65.0273 -65.0269 -65.0240 -65.0235 -31.8107 -31.8106 -31.8052 -31.8052
   -31.8031 -31.8028 -31.7824 -31.7822 -31.7802 -31.7802 -31.7701 -31.7699
    -8.6227  -8.6226  -8.0709  -8.0708   4.3041   4.3042   4.6248   4.6250
     4.9728   4.9728   6.4247   6.4250   6.4532   6.4532   6.9469   6.9470

          k =-0.5000 0.2516 0.2500 (  5200 PWs)   bands (ev):

   -65.0268 -65.0264 -65.0245 -65.0239 -31.8218 -31.8216 -31.8147 -31.8146
   -31.7882 -31.7879 -31.7783 -31.7782 -31.7753 -31.7751 -31.7718 -31.7716
    -8.5156  -8.5155  -8.1217  -8.1216   3.7179   3.7179   4.0872   4.0873
     5.7050   5.7051   6.6060   6.6063   6.7287   6.7288   6.8796   6.8796

          k =-0.5000 0.2516-0.5000 (  5224 PWs)   bands (ev):

   -65.0257 -65.0257 -65.0257 -65.0247 -31.8255 -31.8253 -31.8253 -31.8253
   -31.7776 -31.7774 -31.7774 -31.7772 -31.7741 -31.7739 -31.7738 -31.7738
    -8.2905  -8.2903  -8.2903  -8.2903   3.5415   3.5416   3.5416   3.5416
     6.3960   6.3960   6.3962   6.3962   6.9193   6.9194   6.9194   6.9196

          k =-0.5000-0.5032 0.0000 (  5232 PWs)   bands (ev):

   -65.0257 -65.0257 -65.0257 -65.0247 -31.8127 -31.8125 -31.8124 -31.8124
   -31.7932 -31.7931 -31.7930 -31.7928 -31.7717 -31.7715 -31.7714 -31.7714
    -8.3236  -8.3235  -8.3233  -8.3232   4.1711   4.1712   4.1712   4.1714
     5.6442   5.6442   5.6450   5.6451   6.9276   6.9277   6.9278   6.9279

          k =-0.5000-0.5032 0.2500 (  5212 PWs)   bands (ev):

   -65.0257 -65.0257 -65.0257 -65.0247 -31.8250 -31.8248 -31.8247 -31.8247
   -31.7807 -31.7804 -31.7804 -31.7803 -31.7709 -31.7707 -31.7706 -31.7705
    -8.2883  -8.2882  -8.2880  -8.2880   3.5334   3.5336   3.5336   3.5336
     6.3885   6.3886   6.3890   6.3890   6.9286   6.9288   6.9288   6.9290

          k =-0.5000-0.5032-0.5000 (  5232 PWs)   bands (ev):

   -65.0257 -65.0257 -65.0257 -65.0247 -31.8334 -31.8331 -31.8331 -31.8331
   -31.7738 -31.7736 -31.7735 -31.7735 -31.7705 -31.7702 -31.7702 -31.7701
    -8.2525  -8.2523  -8.2523  -8.2523   3.1194   3.1196   3.1196   3.1196
     6.9204   6.9206   6.9206   6.9208   6.9325   6.9325   6.9327   6.9327

          k = 0.0000 0.2516-0.2500 (  5223 PWs)   bands (ev):

   -65.0298 -65.0245 -65.0242 -65.0232 -31.8168 -31.8143 -31.8129 -31.8012
   -31.7922 -31.7911 -31.7875 -31.7839 -31.7819 -31.7802 -31.7729 -31.7647
    -9.0650  -8.1901  -8.1784  -8.0200   4.0487   4.0538   4.2169   4.9536
     5.7022   5.9144   5.9447   6.3369   6.3477   6.4559   7.0345   7.3574

          k =-0.2500 0.2516-0.2500 (  5220 PWs)   bands (ev):

   -65.0289 -65.0246 -65.0245 -65.0238 -31.8197 -31.8196 -31.8181 -31.8009
   -31.7892 -31.7891 -31.7887 -31.7817 -31.7786 -31.7786 -31.7705 -31.7667
    -8.9006  -8.1573  -8.1573  -8.1490   3.8916   3.8943   3.8944   4.9607
     5.7172   5.7173   5.7269   6.5571   6.5752   6.5754   7.2094   7.2115

          k = 0.5000 0.2516-0.2500 (  5200 PWs)   bands (ev):

   -65.0268 -65.0264 -65.0245 -65.0239 -31.8218 -31.8216 -31.8147 -31.8146
   -31.7882 -31.7879 -31.7783 -31.7782 -31.7753 -31.7751 -31.7718 -31.7716
    -8.5156  -8.5155  -8.1217  -8.1216   3.7179   3.7179   4.0872   4.0873
     5.7050   5.7051   6.6060   6.6063   6.7287   6.7288   6.8796   6.8796

     highest occupied level (ev):     7.5241

!    total energy              =    -608.39209914 Ry
     Harris-Foulkes estimate   =    -608.39209914 Ry
     estimated scf accuracy    <          1.9E-11 Ry

     The total energy is the sum of the following terms:

     one-electron contribution =    -306.04351457 Ry
     hartree contribution      =     168.89860645 Ry
     xc contribution           =     -97.79431224 Ry
     ewald contribution        =    -373.45287877 Ry

     convergence has been achieved in   3 iterations

     Forces acting on atoms (cartesian axes, Ry/au):

     atom    1 type  1   force =     0.00000000   -0.00002068   -0.00000009
     atom    2 type  1   force =     0.00000000   -0.00005308    0.00000067
     atom    3 type  1   force =     0.00000000    0.00007569    0.00000062
     atom    4 type  1   force =     0.00000000   -0.00005310   -0.00000077
     atom    5 type  2   force =     0.00000000   -0.00002208   -0.00000020
     atom    6 type  2   force =     0.00000000    0.00003364   -0.00000021
     atom    7 type  2   force =     0.00000000   -0.00002235    0.00000007
     atom    8 type  2   force =     0.00000000    0.00006195   -0.00000008

     Total force =     0.000133     Total SCF correction =     0.000007


     Computing stress (Cartesian axis) and pressure

          total   stress  (Ry/bohr**3)                   (kbar)     P=  -85.74
  -0.00060583   0.00000000   0.00000000        -89.12      0.00      0.00
   0.00000000  -0.00053620   0.00000000          0.00    -78.88      0.00
   0.00000000   0.00000000  -0.00060646          0.00      0.00    -89.21


     bfgs converged in   6 scf cycles and   5 bfgs steps
     (criteria: energy <  1.0E-05 Ry, force <  1.0E-04 Ry/Bohr)

     End of BFGS Geometry Optimization

     Final energy   =    -608.3920991373 Ry
Begin final coordinates

ATOMIC_POSITIONS (alat)
Mg       0.000000000   0.001480725  -0.000009348
Mg       0.000000000   0.498465594   0.500009563
Mg       0.500000000   0.001583794   0.500009683
Mg       0.500000000   0.498465583  -0.000009963
O        0.500000000   0.001599676  -0.000010112
O        0.000000000   0.498400927  -0.000010134
O        0.000000000   0.001599804   0.500010152
O        0.500000000   0.498403898   0.500010158
End final coordinates



     Writing output data file diamond.8.09646969775.70.4.save
 
     init_run     :      0.54s CPU      0.57s WALL (       1 calls)
     electrons    :     46.25s CPU     46.97s WALL (       6 calls)
     update_pot   :      0.56s CPU      0.56s WALL (       5 calls)
     forces       :      0.99s CPU      1.00s WALL (       6 calls)
     stress       :      2.28s CPU      2.28s WALL (       6 calls)

     Called by init_run:
     wfcinit      :      0.41s CPU      0.44s WALL (       1 calls)
     potinit      :      0.05s CPU      0.05s WALL (       1 calls)

     Called by electrons:
     c_bands      :     40.47s CPU     41.07s WALL (      35 calls)
     sum_band     :      5.57s CPU      5.67s WALL (      35 calls)
     v_of_rho     :      0.19s CPU      0.19s WALL (      36 calls)
     mix_rho      :      0.02s CPU      0.03s WALL (      35 calls)

     Called by c_bands:
     init_us_2    :      0.62s CPU      0.63s WALL (    2490 calls)
     cegterg      :     37.62s CPU     38.19s WALL (    1050 calls)

     Called by sum_band:

     Called by *egterg:
     h_psi        :     27.54s CPU     28.10s WALL (    3521 calls)
     g_psi        :      0.21s CPU      0.21s WALL (    2441 calls)
     cdiaghg      :      5.38s CPU      5.38s WALL (    3191 calls)

     Called by h_psi:
     h_psi:pot    :     27.42s CPU     27.95s WALL (    3521 calls)
     h_psi:calbec :      1.56s CPU      1.57s WALL (    3521 calls)
     vloc_psi     :     24.56s CPU     25.07s WALL (    3521 calls)
     add_vuspsi   :      1.29s CPU      1.30s WALL (    3521 calls)

     General routines
     calbec       :      2.07s CPU      2.07s WALL (    4421 calls)
     fft          :      0.15s CPU      0.15s WALL (     555 calls)
     fftw         :     27.37s CPU     27.44s WALL (  212314 calls)
     davcio       :      0.00s CPU      0.01s WALL (      30 calls)
 
     Parallel routines
     fft_scatter  :      7.61s CPU      7.39s WALL (  212869 calls)
 
     PWSCF        :    51.06s CPU        52.00s WALL

 
   This run was terminated on:  15: 0:42  22Apr2018            

=------------------------------------------------------------------------------=
   JOB DONE.
=------------------------------------------------------------------------------=
