
     Program PWSCF v.6.1 (svn rev. 13369) starts on 22Apr2018 at 14:56:31 

     This program is part of the open-source Quantum ESPRESSO suite
     for quantum simulation of materials; please cite
         "P. Giannozzi et al., J. Phys.:Condens. Matter 21 395502 (2009);
          URL http://www.quantum-espresso.org", 
     in publications or presentations arising from this work. More details at
     http://www.quantum-espresso.org/quote

     Parallel version (MPI), running on     8 processors
     R & G space division:  proc/nbgrp/npool/nimage =       8
     Waiting for input...
     Reading input from standard input
Warning: card       &CELL ignored
Warning: card       CELL_DYNAMICS = 'BFGS' ignored
Warning: card       PRESS = 0.0D0 ignored
Warning: card       PRESS_CONV_THR = 0.01D0 ignored
Warning: card       / ignored

     Current dimensions of program PWSCF are:
     Max number of different atomic species (ntypx) = 10
     Max number of k-points (npk) =  40000
     Max angular momentum in pseudopotentials (lmaxx) =  3

     Subspace diagonalization in iterative solution of the eigenvalue problem:
     a serial algorithm will be used

 
     Parallelization info
     --------------------
     sticks:   dense  smooth     PW     G-vecs:    dense   smooth      PW
     Min         181     181     52                 5203     5203     824
     Max         182     182     53                 5206     5206     829
     Sum        1453    1453    421                41635    41635    6619
 


     bravais-lattice index     =            8
     lattice parameter (alat)  =       8.0735  a.u.
     unit-cell volume          =     524.3652 (a.u.)^3
     number of atoms/cell      =            8
     number of atomic types    =            2
     number of electrons       =        64.00
     number of Kohn-Sham states=           32
     kinetic-energy cutoff     =      70.0000  Ry
     charge density cutoff     =     280.0000  Ry
     convergence threshold     =      1.0E-08
     mixing beta               =       0.7000
     number of iterations used =            8  plain     mixing
     Exchange-correlation      = PBE ( 1  4  3  4 0 0)
     nstep                     =           50


     celldm(1)=   8.073478  celldm(2)=   0.996429  celldm(3)=   1.000013
     celldm(4)=   0.000000  celldm(5)=   0.000000  celldm(6)=   0.000000

     crystal axes: (cart. coord. in units of alat)
               a(1) = (   1.000000   0.000000   0.000000 )  
               a(2) = (   0.000000   0.996429   0.000000 )  
               a(3) = (   0.000000   0.000000   1.000013 )  

     reciprocal axes: (cart. coord. in units 2 pi/alat)
               b(1) = (  1.000000  0.000000  0.000000 )  
               b(2) = (  0.000000  1.003584  0.000000 )  
               b(3) = (  0.000000  0.000000  0.999987 )  


     PseudoPot. # 1 for Mg read from file:
     ../pseudo/Mg.pbe.UPF
     MD5 check sum: 4c04d8c6e0476e83eaecaf72fa8acc4d
     Pseudo is Norm-conserving, Zval = 10.0
     Generated using ONCVPSP code by D. R. Hamann
     Using radial grid of 1510 points,  4 beta functions with: 
                l(1) =   0
                l(2) =   0
                l(3) =   1
                l(4) =   1

     PseudoPot. # 2 for O  read from file:
     ../pseudo/O.pbe.UPF
     MD5 check sum: 3e3f909f7470e8921608ab6b1f57bbae
     Pseudo is Norm-conserving + core correction, Zval =  6.0
     Generated using ONCVPSP code by D. R. Hamann
     Using radial grid of  936 points,  5 beta functions with: 
                l(1) =   0
                l(2) =   0
                l(3) =   1
                l(4) =   1
                l(5) =   2

     atomic species   valence    mass     pseudopotential
        Mg            10.00    24.30500     Mg( 1.00)
        O              6.00    15.99940     O ( 1.00)

      2 Sym. Ops. (no inversion) found



   Cartesian axes

     site n.     atom                  positions (alat units)
         1           Mg  tau(   1) = (   0.0000000   0.0000000   0.0000000  )
         2           Mg  tau(   2) = (   0.0000000   0.5000000   0.5000000  )
         3           Mg  tau(   3) = (   0.5000000   0.0000000   0.5000000  )
         4           Mg  tau(   4) = (   0.5000000   0.5000000   0.0000000  )
         5           O   tau(   5) = (   0.5000000   0.0000000   0.0000000  )
         6           O   tau(   6) = (   0.0000000   0.5000000   0.0000000  )
         7           O   tau(   7) = (   0.0000000   0.0000000   0.5000000  )
         8           O   tau(   8) = (   0.5000000   0.5000000   0.5000000  )

     number of k points=    30
                       cart. coord. in units 2pi/alat
        k(    1) = (   0.0000000   0.0000000   0.0000000), wk =   0.0312500
        k(    2) = (   0.0000000   0.0000000   0.2499968), wk =   0.0625000
        k(    3) = (   0.0000000   0.0000000  -0.4999936), wk =   0.0312500
        k(    4) = (   0.0000000   0.2508959   0.0000000), wk =   0.0625000
        k(    5) = (   0.0000000   0.2508959   0.2499968), wk =   0.0625000
        k(    6) = (   0.0000000   0.2508959  -0.4999936), wk =   0.0625000
        k(    7) = (   0.0000000  -0.5017919   0.0000000), wk =   0.0312500
        k(    8) = (   0.0000000  -0.5017919   0.2499968), wk =   0.0625000
        k(    9) = (   0.0000000  -0.5017919  -0.4999936), wk =   0.0312500
        k(   10) = (   0.2500000   0.0000000   0.0000000), wk =   0.0625000
        k(   11) = (   0.2500000   0.0000000   0.2499968), wk =   0.1250000
        k(   12) = (   0.2500000   0.0000000  -0.4999936), wk =   0.0625000
        k(   13) = (   0.2500000   0.2508959   0.0000000), wk =   0.1250000
        k(   14) = (   0.2500000   0.2508959   0.2499968), wk =   0.1250000
        k(   15) = (   0.2500000   0.2508959  -0.4999936), wk =   0.1250000
        k(   16) = (   0.2500000  -0.5017919   0.0000000), wk =   0.0625000
        k(   17) = (   0.2500000  -0.5017919   0.2499968), wk =   0.1250000
        k(   18) = (   0.2500000  -0.5017919  -0.4999936), wk =   0.0625000
        k(   19) = (  -0.5000000   0.0000000   0.0000000), wk =   0.0312500
        k(   20) = (  -0.5000000   0.0000000   0.2499968), wk =   0.0625000
        k(   21) = (  -0.5000000   0.0000000  -0.4999936), wk =   0.0312500
        k(   22) = (  -0.5000000   0.2508959   0.0000000), wk =   0.0625000
        k(   23) = (  -0.5000000   0.2508959   0.2499968), wk =   0.0625000
        k(   24) = (  -0.5000000   0.2508959  -0.4999936), wk =   0.0625000
        k(   25) = (  -0.5000000  -0.5017919   0.0000000), wk =   0.0312500
        k(   26) = (  -0.5000000  -0.5017919   0.2499968), wk =   0.0625000
        k(   27) = (  -0.5000000  -0.5017919  -0.4999936), wk =   0.0312500
        k(   28) = (   0.0000000   0.2508959  -0.2499968), wk =   0.0625000
        k(   29) = (  -0.2500000   0.2508959  -0.2499968), wk =   0.1250000
        k(   30) = (   0.5000000   0.2508959  -0.2499968), wk =   0.0625000

     Dense  grid:    41635 G-vectors     FFT dimensions: (  45,  45,  45)

     Estimated max dynamical RAM per process >      15.44MB

     Estimated total allocated dynamical RAM >     123.55MB

     Check: negative/imaginary core charge=   -0.000007    0.000000

     Initial potential from superposition of free atoms

     starting charge   63.99678, renormalised to   64.00000
     Starting wfc are   36 randomized atomic wfcs

     total cpu time spent up to now is        0.7 secs

     per-process dynamical memory:    51.2 Mb

     Self-consistent Calculation

     iteration #  1     ecut=    70.00 Ry     beta=0.70
     Davidson diagonalization with overlap
     ethr =  1.00E-02,  avg # of iterations =  2.0

     total cpu time spent up to now is        1.9 secs

     total energy              =    -607.71503630 Ry
     Harris-Foulkes estimate   =    -608.84324577 Ry
     estimated scf accuracy    <       1.56696556 Ry

     iteration #  2     ecut=    70.00 Ry     beta=0.70
     Davidson diagonalization with overlap
     ethr =  2.45E-03,  avg # of iterations =  2.9

     total cpu time spent up to now is        3.3 secs

     total energy              =    -608.10057181 Ry
     Harris-Foulkes estimate   =    -608.80955754 Ry
     estimated scf accuracy    <       1.47568967 Ry

     iteration #  3     ecut=    70.00 Ry     beta=0.70
     Davidson diagonalization with overlap
     ethr =  2.31E-03,  avg # of iterations =  2.0

     total cpu time spent up to now is        4.6 secs

     total energy              =    -608.39090617 Ry
     Harris-Foulkes estimate   =    -608.39157584 Ry
     estimated scf accuracy    <       0.00683220 Ry

     iteration #  4     ecut=    70.00 Ry     beta=0.70
     Davidson diagonalization with overlap
     ethr =  1.07E-05,  avg # of iterations =  2.0

     total cpu time spent up to now is        5.8 secs

     total energy              =    -608.39241024 Ry
     Harris-Foulkes estimate   =    -608.39245763 Ry
     estimated scf accuracy    <       0.00011639 Ry

     iteration #  5     ecut=    70.00 Ry     beta=0.70
     Davidson diagonalization with overlap
     ethr =  1.82E-07,  avg # of iterations =  1.6

     total cpu time spent up to now is        6.9 secs

     total energy              =    -608.39241776 Ry
     Harris-Foulkes estimate   =    -608.39241638 Ry
     estimated scf accuracy    <       0.00001048 Ry

     iteration #  6     ecut=    70.00 Ry     beta=0.70
     Davidson diagonalization with overlap
     ethr =  1.64E-08,  avg # of iterations =  2.0

     total cpu time spent up to now is        8.3 secs

     total energy              =    -608.39241936 Ry
     Harris-Foulkes estimate   =    -608.39241978 Ry
     estimated scf accuracy    <       0.00000097 Ry

     iteration #  7     ecut=    70.00 Ry     beta=0.70
     Davidson diagonalization with overlap
     ethr =  1.52E-09,  avg # of iterations =  2.0

     total cpu time spent up to now is        9.5 secs

     total energy              =    -608.39241939 Ry
     Harris-Foulkes estimate   =    -608.39241945 Ry
     estimated scf accuracy    <       0.00000019 Ry

     iteration #  8     ecut=    70.00 Ry     beta=0.70
     Davidson diagonalization with overlap
     ethr =  2.95E-10,  avg # of iterations =  2.0

     total cpu time spent up to now is       10.6 secs

     total energy              =    -608.39241938 Ry
     Harris-Foulkes estimate   =    -608.39241940 Ry
     estimated scf accuracy    <       0.00000004 Ry

     iteration #  9     ecut=    70.00 Ry     beta=0.70
     Davidson diagonalization with overlap
     ethr =  6.42E-11,  avg # of iterations =  2.0

     total cpu time spent up to now is       12.0 secs

     End of self-consistent calculation

          k = 0.0000 0.0000 0.0000 (  5169 PWs)   bands (ev):

   -64.9445 -64.9355 -64.9354 -64.9346 -31.7386 -31.7386 -31.7368 -31.7027
   -31.7027 -31.7018 -31.7018 -31.7005 -31.7004 -31.6757 -31.6757 -31.6717
    -9.4153  -7.9871  -7.9870  -7.9778   3.6976   3.6976   3.7094   6.2957
     6.2958   6.2987   6.2991   6.3212   6.3212   7.5824   7.5907   7.5907

          k = 0.0000 0.0000 0.2500 (  5190 PWs)   bands (ev):

   -64.9432 -64.9366 -64.9354 -64.9348 -31.7328 -31.7304 -31.7303 -31.7081
   -31.7053 -31.7031 -31.7026 -31.6983 -31.6962 -31.6890 -31.6810 -31.6791
    -9.2103  -8.1988  -7.9582  -7.9516   3.9858   3.9968   4.0316   5.7788
     5.7847   6.0931   6.1104   6.4608   6.4814   6.5790   7.3619   7.3731

          k = 0.0000 0.0000-0.5000 (  5182 PWs)   bands (ev):

   -64.9401 -64.9396 -64.9354 -64.9348 -31.7203 -31.7200 -31.7165 -31.7163
   -31.7105 -31.7104 -31.7038 -31.7037 -31.6896 -31.6894 -31.6879 -31.6877
    -8.7082  -8.7081  -7.9273  -7.9272   4.7776   4.7777   4.7872   4.7873
     5.0527   5.0530   5.9061   5.9064   6.8836   6.8837   6.9001   6.9002

          k = 0.0000 0.2509 0.0000 (  5185 PWs)   bands (ev):

   -64.9432 -64.9365 -64.9354 -64.9348 -31.7327 -31.7327 -31.7270 -31.7075
   -31.7075 -31.7012 -31.7012 -31.6990 -31.6990 -31.6855 -31.6810 -31.6810
    -9.2083  -8.1899  -7.9586  -7.9585   3.9882   3.9882   4.0384   5.7984
     5.7984   6.0876   6.0879   6.4587   6.4587   6.5720   7.3684   7.3684

          k = 0.0000 0.2509 0.2500 (  5183 PWs)   bands (ev):

   -64.9420 -64.9366 -64.9362 -64.9352 -31.7290 -31.7281 -31.7278 -31.7151
   -31.7035 -31.7029 -31.7011 -31.6959 -31.6958 -31.6943 -31.6853 -31.6780
    -9.0214  -8.1344  -8.1278  -7.9628   4.0986   4.1015   4.2659   5.0056
     5.7661   5.9769   5.9940   6.4021   6.4083   6.5125   7.0957   7.4226

          k = 0.0000 0.2509-0.5000 (  5184 PWs)   bands (ev):

   -64.9394 -64.9390 -64.9361 -64.9355 -31.7248 -31.7246 -31.7182 -31.7182
   -31.7160 -31.7158 -31.6946 -31.6944 -31.6930 -31.6929 -31.6837 -31.6835
    -8.5729  -8.5728  -8.0162  -8.0161   4.3547   4.3548   4.6807   4.6809
     5.0271   5.0272   6.4791   6.4793   6.5073   6.5074   7.0121   7.0122

          k = 0.0000-0.5018 0.0000 (  5190 PWs)   bands (ev):

   -64.9401 -64.9396 -64.9354 -64.9349 -31.7211 -31.7211 -31.7203 -31.7203
   -31.7092 -31.7081 -31.6993 -31.6992 -31.6902 -31.6902 -31.6896 -31.6895
    -8.7115  -8.6923  -7.9297  -7.9297   4.7716   4.7716   4.8018   4.8018
     5.0434   5.0555   5.8888   5.8891   6.8761   6.8762   6.8946   6.8947

          k = 0.0000-0.5018 0.2500 (  5188 PWs)   bands (ev):

   -64.9394 -64.9389 -64.9361 -64.9355 -31.7255 -31.7249 -31.7179 -31.7173
   -31.7161 -31.7152 -31.6954 -31.6947 -31.6921 -31.6916 -31.6851 -31.6849
    -8.5772  -8.5602  -8.0200  -8.0167   4.3485   4.3604   4.6714   4.6848
     5.0197   5.0491   6.4634   6.4742   6.4867   6.5083   7.0130   7.0186

          k = 0.0000-0.5018-0.5000 (  5224 PWs)   bands (ev):

   -64.9378 -64.9377 -64.9377 -64.9367 -31.7269 -31.7268 -31.7264 -31.7263
   -31.7067 -31.7065 -31.7059 -31.7057 -31.6855 -31.6854 -31.6850 -31.6849
    -8.2767  -8.2766  -8.2660  -8.2659   4.2226   4.2228   4.2277   4.2279
     5.6854   5.6855   5.7117   5.7118   6.9830   6.9832   6.9919   6.9921

          k = 0.2500 0.0000 0.0000 (  5190 PWs)   bands (ev):

   -64.9432 -64.9366 -64.9354 -64.9348 -31.7328 -31.7304 -31.7303 -31.7081
   -31.7053 -31.7031 -31.7026 -31.6983 -31.6962 -31.6890 -31.6810 -31.6791
    -9.2103  -8.1988  -7.9583  -7.9516   3.9858   3.9968   4.0316   5.7788
     5.7848   6.0930   6.1104   6.4607   6.4813   6.5789   7.3619   7.3731

          k = 0.2500 0.0000 0.2500 (  5179 PWs)   bands (ev):

   -64.9420 -64.9366 -64.9362 -64.9351 -31.7291 -31.7290 -31.7260 -31.7163
   -31.7018 -31.7014 -31.7014 -31.6974 -31.6958 -31.6957 -31.6829 -31.6788
    -9.0232  -8.1346  -8.1346  -7.9583   4.1008   4.1008   4.2742   5.0053
     5.7768   5.9802   5.9805   6.4189   6.4189   6.5004   7.0879   7.4244

          k = 0.2500 0.0000-0.5000 (  5190 PWs)   bands (ev):

   -64.9394 -64.9390 -64.9361 -64.9355 -31.7260 -31.7259 -31.7191 -31.7190
   -31.7138 -31.7135 -31.6938 -31.6937 -31.6925 -31.6923 -31.6856 -31.6855
    -8.5740  -8.5739  -8.0175  -8.0174   4.3596   4.3596   4.6889   4.6891
     5.0334   5.0335   6.4702   6.4705   6.4973   6.4973   7.0182   7.0183

          k = 0.2500 0.2509 0.0000 (  5183 PWs)   bands (ev):

   -64.9420 -64.9366 -64.9362 -64.9352 -31.7290 -31.7281 -31.7278 -31.7151
   -31.7035 -31.7029 -31.7011 -31.6959 -31.6958 -31.6943 -31.6853 -31.6780
    -9.0214  -8.1344  -8.1278  -7.9628   4.0986   4.1014   4.2659   5.0056
     5.7661   5.9769   5.9940   6.4021   6.4083   6.5125   7.0957   7.4226

          k = 0.2500 0.2509 0.2500 (  5178 PWs)   bands (ev):

   -64.9410 -64.9366 -64.9365 -64.9358 -31.7331 -31.7329 -31.7319 -31.7145
   -31.7021 -31.7020 -31.7017 -31.6936 -31.6922 -31.6922 -31.6820 -31.6799
    -8.8546  -8.1015  -8.1014  -8.0967   3.9398   3.9411   3.9411   5.0174
     5.7740   5.7741   5.7796   6.6226   6.6328   6.6329   7.2738   7.2751

          k = 0.2500 0.2509-0.5000 (  5170 PWs)   bands (ev):

   -64.9389 -64.9385 -64.9365 -64.9359 -31.7358 -31.7357 -31.7291 -31.7290
   -31.7010 -31.7008 -31.6902 -31.6902 -31.6879 -31.6877 -31.6859 -31.6857
    -8.4643  -8.4642  -8.0667  -8.0666   3.7636   3.7636   4.1360   4.1361
     5.7605   5.7605   6.6653   6.6655   6.7905   6.7906   6.9398   6.9398

          k = 0.2500-0.5018 0.0000 (  5188 PWs)   bands (ev):

   -64.9394 -64.9389 -64.9361 -64.9355 -31.7255 -31.7249 -31.7179 -31.7173
   -31.7162 -31.7152 -31.6954 -31.6947 -31.6921 -31.6916 -31.6851 -31.6849
    -8.5772  -8.5602  -8.0200  -8.0167   4.3485   4.3604   4.6713   4.6848
     5.0197   5.0490   6.4634   6.4743   6.4868   6.5083   7.0130   7.0185

          k = 0.2500-0.5018 0.2500 (  5168 PWs)   bands (ev):

   -64.9389 -64.9385 -64.9366 -64.9360 -31.7359 -31.7358 -31.7286 -31.7284
   -31.7020 -31.7018 -31.6887 -31.6887 -31.6882 -31.6877 -31.6866 -31.6863
    -8.4681  -8.4536  -8.0679  -8.0679   3.7628   3.7628   4.1235   4.1375
     5.7610   5.7610   6.6626   6.6628   6.7925   6.7984   6.9270   6.9404

          k = 0.2500-0.5018-0.5000 (  5176 PWs)   bands (ev):

   -64.9378 -64.9377 -64.9377 -64.9367 -31.7392 -31.7389 -31.7389 -31.7389
   -31.6930 -31.6928 -31.6926 -31.6924 -31.6842 -31.6840 -31.6838 -31.6837
    -8.2389  -8.2388  -8.2313  -8.2312   3.5771   3.5772   3.5842   3.5843
     6.4410   6.4411   6.4563   6.4563   6.9855   6.9857   6.9918   6.9919

          k =-0.5000 0.0000 0.0000 (  5182 PWs)   bands (ev):

   -64.9401 -64.9396 -64.9354 -64.9348 -31.7203 -31.7200 -31.7165 -31.7163
   -31.7105 -31.7104 -31.7038 -31.7037 -31.6896 -31.6894 -31.6879 -31.6877
    -8.7082  -8.7081  -7.9273  -7.9272   4.7776   4.7777   4.7873   4.7873
     5.0527   5.0530   5.9060   5.9063   6.8836   6.8836   6.9001   6.9001

          k =-0.5000 0.0000 0.2500 (  5190 PWs)   bands (ev):

   -64.9394 -64.9390 -64.9361 -64.9355 -31.7260 -31.7259 -31.7190 -31.7190
   -31.7138 -31.7135 -31.6938 -31.6937 -31.6925 -31.6923 -31.6856 -31.6855
    -8.5740  -8.5739  -8.0175  -8.0174   4.3596   4.3596   4.6889   4.6891
     5.0335   5.0335   6.4702   6.4704   6.4973   6.4973   7.0182   7.0183

          k =-0.5000 0.0000-0.5000 (  5232 PWs)   bands (ev):

   -64.9377 -64.9377 -64.9377 -64.9367 -31.7278 -31.7276 -31.7275 -31.7275
   -31.7044 -31.7042 -31.7042 -31.7039 -31.6866 -31.6864 -31.6863 -31.6863
    -8.2739  -8.2738  -8.2737  -8.2737   4.2383   4.2385   4.2385   4.2386
     5.6971   5.6971   5.6974   5.6974   6.9822   6.9824   6.9824   6.9825

          k =-0.5000 0.2509 0.0000 (  5184 PWs)   bands (ev):

   -64.9394 -64.9390 -64.9361 -64.9355 -31.7248 -31.7246 -31.7182 -31.7182
   -31.7160 -31.7158 -31.6946 -31.6944 -31.6930 -31.6929 -31.6837 -31.6835
    -8.5728  -8.5728  -8.0162  -8.0161   4.3547   4.3548   4.6806   4.6809
     5.0272   5.0272   6.4791   6.4793   6.5073   6.5074   7.0121   7.0122

          k =-0.5000 0.2509 0.2500 (  5170 PWs)   bands (ev):

   -64.9389 -64.9385 -64.9365 -64.9359 -31.7358 -31.7357 -31.7291 -31.7290
   -31.7010 -31.7008 -31.6902 -31.6902 -31.6879 -31.6877 -31.6859 -31.6857
    -8.4643  -8.4642  -8.0667  -8.0667   3.7636   3.7636   4.1360   4.1361
     5.7605   5.7605   6.6653   6.6655   6.7905   6.7906   6.9398   6.9398

          k =-0.5000 0.2509-0.5000 (  5180 PWs)   bands (ev):

   -64.9377 -64.9377 -64.9377 -64.9367 -31.7395 -31.7392 -31.7392 -31.7392
   -31.6914 -31.6912 -31.6912 -31.6910 -31.6855 -31.6853 -31.6852 -31.6852
    -8.2364  -8.2363  -8.2363  -8.2362   3.5850   3.5852   3.5852   3.5852
     6.4527   6.4528   6.4530   6.4530   6.9833   6.9835   6.9835   6.9837

          k =-0.5000-0.5018 0.0000 (  5224 PWs)   bands (ev):

   -64.9378 -64.9377 -64.9377 -64.9367 -31.7269 -31.7268 -31.7264 -31.7263
   -31.7067 -31.7065 -31.7059 -31.7057 -31.6855 -31.6854 -31.6850 -31.6849
    -8.2767  -8.2766  -8.2660  -8.2659   4.2226   4.2227   4.2277   4.2278
     5.6855   5.6855   5.7118   5.7118   6.9831   6.9832   6.9919   6.9921

          k =-0.5000-0.5018 0.2500 (  5176 PWs)   bands (ev):

   -64.9378 -64.9377 -64.9377 -64.9367 -31.7392 -31.7389 -31.7389 -31.7389
   -31.6930 -31.6928 -31.6926 -31.6924 -31.6841 -31.6840 -31.6837 -31.6837
    -8.2389  -8.2388  -8.2313  -8.2312   3.5771   3.5772   3.5842   3.5843
     6.4410   6.4410   6.4563   6.4563   6.9855   6.9857   6.9918   6.9919

          k =-0.5000-0.5018-0.5000 (  5232 PWs)   bands (ev):

   -64.9377 -64.9377 -64.9377 -64.9367 -31.7484 -31.7481 -31.7481 -31.7481
   -31.6863 -31.6861 -31.6860 -31.6860 -31.6845 -31.6843 -31.6843 -31.6841
    -8.1985  -8.1983  -8.1983  -8.1983   3.1625   3.1627   3.1627   3.1627
     6.9840   6.9842   6.9842   6.9843   6.9908   6.9909   6.9911   6.9911

          k = 0.0000 0.2509-0.2500 (  5183 PWs)   bands (ev):

   -64.9420 -64.9366 -64.9362 -64.9352 -31.7290 -31.7281 -31.7278 -31.7151
   -31.7035 -31.7029 -31.7011 -31.6959 -31.6958 -31.6943 -31.6853 -31.6780
    -9.0214  -8.1344  -8.1278  -7.9628   4.0986   4.1015   4.2659   5.0056
     5.7661   5.9769   5.9940   6.4021   6.4083   6.5125   7.0957   7.4226

          k =-0.2500 0.2509-0.2500 (  5178 PWs)   bands (ev):

   -64.9410 -64.9366 -64.9365 -64.9358 -31.7331 -31.7329 -31.7319 -31.7145
   -31.7021 -31.7020 -31.7016 -31.6936 -31.6922 -31.6922 -31.6820 -31.6799
    -8.8546  -8.1015  -8.1014  -8.0967   3.9398   3.9411   3.9411   5.0174
     5.7740   5.7741   5.7796   6.6226   6.6328   6.6329   7.2738   7.2751

          k = 0.5000 0.2509-0.2500 (  5170 PWs)   bands (ev):

   -64.9389 -64.9385 -64.9365 -64.9359 -31.7358 -31.7357 -31.7291 -31.7290
   -31.7010 -31.7008 -31.6902 -31.6902 -31.6879 -31.6877 -31.6859 -31.6857
    -8.4643  -8.4642  -8.0667  -8.0667   3.7636   3.7636   4.1360   4.1361
     5.7605   5.7605   6.6653   6.6655   6.7905   6.7906   6.9398   6.9398

     highest occupied level (ev):     7.5907

!    total energy              =    -608.39241939 Ry
     Harris-Foulkes estimate   =    -608.39241939 Ry
     estimated scf accuracy    <          2.8E-09 Ry

     The total energy is the sum of the following terms:

     one-electron contribution =    -304.94962821 Ry
     hartree contribution      =     168.53401374 Ry
     xc contribution           =     -97.81739891 Ry
     ewald contribution        =    -374.15940600 Ry

     convergence has been achieved in   9 iterations

     Forces acting on atoms (cartesian axes, Ry/au):

     atom    1 type  1   force =     0.00000000    0.00194785   -0.00000708
     atom    2 type  1   force =     0.00000000   -0.00191087    0.00000643
     atom    3 type  1   force =     0.00000000    0.00194921    0.00000648
     atom    4 type  1   force =     0.00000000   -0.00191207   -0.00000582
     atom    5 type  2   force =     0.00000000    0.00222323   -0.00000754
     atom    6 type  2   force =     0.00000000   -0.00225356   -0.00000745
     atom    7 type  2   force =     0.00000000    0.00222193    0.00000747
     atom    8 type  2   force =     0.00000000   -0.00226571    0.00000751

     Total force =     0.005915     Total SCF correction =     0.000047


     Computing stress (Cartesian axis) and pressure

          total   stress  (Ry/bohr**3)                   (kbar)     P=  -78.31
  -0.00054660   0.00000000   0.00000000        -80.41      0.00      0.00
   0.00000000  -0.00050355   0.00000000          0.00    -74.07      0.00
   0.00000000   0.00000000  -0.00054682          0.00      0.00    -80.44


     BFGS Geometry Optimization

     number of scf cycles    =   1
     number of bfgs steps    =   0

     energy   new            =    -608.3924193883 Ry

     new trust radius        =       0.0022657209 bohr
     new conv_thr            =       0.0000000100 Ry


ATOMIC_POSITIONS (alat)
Mg       0.000000000   0.000241265  -0.000000877
Mg       0.000000000   0.499763315   0.500000796
Mg       0.500000000   0.000241434   0.500000803
Mg       0.500000000   0.499763166  -0.000000721
O        0.500000000   0.000275375  -0.000000934
O        0.000000000   0.499720869  -0.000000923
O        0.000000000   0.000275213   0.500000925
O        0.500000000   0.499719364   0.500000931



     Writing output data file diamond.8.07347780225.70.4.save
     NEW-OLD atomic charge density approx. for the potential

     Check: negative/imaginary core charge=   -0.000007    0.000000

     total cpu time spent up to now is       12.8 secs

     per-process dynamical memory:    51.9 Mb

     Self-consistent Calculation

     iteration #  1     ecut=    70.00 Ry     beta=0.70
     Davidson diagonalization with overlap
     ethr =  1.00E-06,  avg # of iterations =  3.0

     Threshold (ethr) on eigenvalues was too large:
     Diagonalizing with lowered threshold

     Davidson diagonalization with overlap
     ethr =  9.76E-09,  avg # of iterations =  1.2

     total cpu time spent up to now is       15.6 secs

     total energy              =    -608.39244693 Ry
     Harris-Foulkes estimate   =    -608.39245160 Ry
     estimated scf accuracy    <       0.00000638 Ry

     iteration #  2     ecut=    70.00 Ry     beta=0.70
     Davidson diagonalization with overlap
     ethr =  9.96E-09,  avg # of iterations =  2.2

     total cpu time spent up to now is       16.8 secs

     total energy              =    -608.39244886 Ry
     Harris-Foulkes estimate   =    -608.39244950 Ry
     estimated scf accuracy    <       0.00000108 Ry

     iteration #  3     ecut=    70.00 Ry     beta=0.70
     Davidson diagonalization with overlap
     ethr =  1.68E-09,  avg # of iterations =  2.0

     total cpu time spent up to now is       18.0 secs

     End of self-consistent calculation

          k = 0.0000 0.0000 0.0000 (  5169 PWs)   bands (ev):

   -64.9449 -64.9358 -64.9357 -64.9350 -31.7389 -31.7389 -31.7371 -31.7030
   -31.7030 -31.7021 -31.7021 -31.7008 -31.7007 -31.6760 -31.6760 -31.6720
    -9.4151  -7.9869  -7.9868  -7.9776   3.6977   3.6978   3.7094   6.2959
     6.2960   6.2988   6.2992   6.3213   6.3213   7.5826   7.5908   7.5908

          k = 0.0000 0.0000 0.2500 (  5190 PWs)   bands (ev):

   -64.9435 -64.9370 -64.9357 -64.9351 -31.7331 -31.7307 -31.7306 -31.7084
   -31.7056 -31.7034 -31.7029 -31.6986 -31.6965 -31.6893 -31.6813 -31.6794
    -9.2101  -8.1986  -7.9581  -7.9515   3.9859   3.9969   4.0317   5.7789
     5.7848   6.0933   6.1106   6.4608   6.4815   6.5791   7.3620   7.3732

          k = 0.0000 0.0000-0.5000 (  5182 PWs)   bands (ev):

   -64.9405 -64.9400 -64.9357 -64.9352 -31.7206 -31.7203 -31.7168 -31.7166
   -31.7108 -31.7108 -31.7041 -31.7040 -31.6899 -31.6897 -31.6882 -31.6880
    -8.7080  -8.7079  -7.9271  -7.9270   4.7777   4.7778   4.7873   4.7874
     5.0528   5.0531   5.9063   5.9066   6.8837   6.8837   6.9002   6.9003

          k = 0.0000 0.2509 0.0000 (  5185 PWs)   bands (ev):

   -64.9435 -64.9369 -64.9358 -64.9352 -31.7330 -31.7330 -31.7273 -31.7078
   -31.7078 -31.7015 -31.7015 -31.6993 -31.6993 -31.6858 -31.6813 -31.6813
    -9.2081  -8.1897  -7.9584  -7.9583   3.9883   3.9884   4.0385   5.7985
     5.7985   6.0877   6.0880   6.4589   6.4589   6.5721   7.3685   7.3686

          k = 0.0000 0.2509 0.2500 (  5183 PWs)   bands (ev):

   -64.9423 -64.9369 -64.9365 -64.9355 -31.7293 -31.7284 -31.7280 -31.7154
   -31.7038 -31.7032 -31.7014 -31.6961 -31.6961 -31.6946 -31.6856 -31.6783
    -9.0212  -8.1342  -8.1277  -7.9626   4.0987   4.1015   4.2660   5.0057
     5.7663   5.9770   5.9941   6.4023   6.4084   6.5125   7.0958   7.4228

          k = 0.0000 0.2509-0.5000 (  5184 PWs)   bands (ev):

   -64.9398 -64.9393 -64.9364 -64.9358 -31.7250 -31.7249 -31.7185 -31.7185
   -31.7163 -31.7161 -31.6949 -31.6947 -31.6933 -31.6932 -31.6840 -31.6838
    -8.5727  -8.5726  -8.0160  -8.0159   4.3548   4.3549   4.6808   4.6810
     5.0273   5.0274   6.4792   6.4795   6.5074   6.5075   7.0122   7.0123

          k = 0.0000-0.5018 0.0000 (  5190 PWs)   bands (ev):

   -64.9404 -64.9399 -64.9358 -64.9352 -31.7213 -31.7213 -31.7207 -31.7207
   -31.7093 -31.7086 -31.6996 -31.6995 -31.6904 -31.6904 -31.6899 -31.6899
    -8.7085  -8.6950  -7.9296  -7.9295   4.7762   4.7762   4.7974   4.7974
     5.0454   5.0537   5.8889   5.8893   6.8791   6.8791   6.8920   6.8920

          k = 0.0000-0.5018 0.2500 (  5188 PWs)   bands (ev):

   -64.9397 -64.9393 -64.9365 -64.9359 -31.7257 -31.7252 -31.7181 -31.7177
   -31.7163 -31.7156 -31.6956 -31.6951 -31.6923 -31.6920 -31.6854 -31.6852
    -8.5745  -8.5626  -8.0194  -8.0171   4.3504   4.3588   4.6736   4.6828
     5.0242   5.0448   6.4651   6.4727   6.4901   6.5051   7.0140   7.0179

          k = 0.0000-0.5018-0.5000 (  5224 PWs)   bands (ev):

   -64.9381 -64.9381 -64.9380 -64.9370 -31.7271 -31.7270 -31.7267 -31.7267
   -31.7069 -31.7067 -31.7063 -31.7061 -31.6858 -31.6856 -31.6853 -31.6853
    -8.2749  -8.2748  -8.2674  -8.2674   4.2236   4.2237   4.2270   4.2271
     5.6895   5.6896   5.7079   5.7080   6.9845   6.9847   6.9907   6.9908

          k = 0.2500 0.0000 0.0000 (  5190 PWs)   bands (ev):

   -64.9435 -64.9370 -64.9357 -64.9351 -31.7331 -31.7307 -31.7306 -31.7084
   -31.7056 -31.7034 -31.7029 -31.6986 -31.6965 -31.6893 -31.6813 -31.6794
    -9.2101  -8.1986  -7.9581  -7.9515   3.9859   3.9969   4.0317   5.7790
     5.7849   6.0932   6.1106   6.4607   6.4815   6.5791   7.3620   7.3733

          k = 0.2500 0.0000 0.2500 (  5179 PWs)   bands (ev):

   -64.9424 -64.9369 -64.9366 -64.9355 -31.7294 -31.7293 -31.7263 -31.7166
   -31.7021 -31.7017 -31.7017 -31.6977 -31.6961 -31.6960 -31.6832 -31.6791
    -9.0230  -8.1345  -8.1343  -7.9582   4.1009   4.1009   4.2742   5.0055
     5.7769   5.9803   5.9807   6.4190   6.4190   6.5006   7.0880   7.4245

          k = 0.2500 0.0000-0.5000 (  5190 PWs)   bands (ev):

   -64.9398 -64.9393 -64.9364 -64.9358 -31.7263 -31.7261 -31.7193 -31.7193
   -31.7141 -31.7139 -31.6941 -31.6940 -31.6928 -31.6926 -31.6859 -31.6858
    -8.5738  -8.5737  -8.0173  -8.0173   4.3597   4.3598   4.6891   4.6893
     5.0335   5.0335   6.4709   6.4712   6.4968   6.4969   7.0184   7.0184

          k = 0.2500 0.2509 0.0000 (  5183 PWs)   bands (ev):

   -64.9423 -64.9369 -64.9365 -64.9355 -31.7293 -31.7284 -31.7280 -31.7154
   -31.7038 -31.7032 -31.7014 -31.6961 -31.6961 -31.6946 -31.6856 -31.6783
    -9.0212  -8.1342  -8.1277  -7.9626   4.0987   4.1015   4.2660   5.0057
     5.7662   5.9771   5.9941   6.4023   6.4084   6.5125   7.0958   7.4228

          k = 0.2500 0.2509 0.2500 (  5178 PWs)   bands (ev):

   -64.9414 -64.9369 -64.9369 -64.9361 -31.7334 -31.7332 -31.7322 -31.7148
   -31.7024 -31.7023 -31.7020 -31.6939 -31.6925 -31.6925 -31.6823 -31.6802
    -8.8544  -8.1014  -8.1012  -8.0966   3.9399   3.9412   3.9413   5.0175
     5.7741   5.7743   5.7797   6.6228   6.6329   6.6331   7.2739   7.2753

          k = 0.2500 0.2509-0.5000 (  5170 PWs)   bands (ev):

   -64.9393 -64.9389 -64.9369 -64.9363 -31.7361 -31.7360 -31.7294 -31.7293
   -31.7013 -31.7011 -31.6905 -31.6905 -31.6882 -31.6880 -31.6862 -31.6860
    -8.4641  -8.4640  -8.0666  -8.0665   3.7637   3.7637   4.1361   4.1362
     5.7606   5.7606   6.6655   6.6657   6.7906   6.7907   6.9399   6.9399

          k = 0.2500-0.5018 0.0000 (  5188 PWs)   bands (ev):

   -64.9397 -64.9393 -64.9365 -64.9359 -31.7257 -31.7252 -31.7181 -31.7177
   -31.7163 -31.7156 -31.6956 -31.6951 -31.6923 -31.6920 -31.6854 -31.6852
    -8.5744  -8.5626  -8.0194  -8.0170   4.3504   4.3588   4.6735   4.6828
     5.0242   5.0447   6.4652   6.4727   6.4902   6.5052   7.0140   7.0179

          k = 0.2500-0.5018 0.2500 (  5168 PWs)   bands (ev):

   -64.9392 -64.9388 -64.9369 -64.9363 -31.7362 -31.7360 -31.7289 -31.7287
   -31.7023 -31.7021 -31.6890 -31.6890 -31.6884 -31.6880 -31.6868 -31.6867
    -8.4657  -8.4557  -8.0678  -8.0677   3.7629   3.7629   4.1258   4.1354
     5.7611   5.7612   6.6627   6.6629   6.7935   6.7977   6.9292   6.9386

          k = 0.2500-0.5018-0.5000 (  5176 PWs)   bands (ev):

   -64.9381 -64.9381 -64.9380 -64.9370 -31.7395 -31.7392 -31.7392 -31.7392
   -31.6932 -31.6930 -31.6929 -31.6927 -31.6844 -31.6843 -31.6841 -31.6840
    -8.2376  -8.2375  -8.2323  -8.2322   3.5783   3.5784   3.5832   3.5833
     6.4434   6.4435   6.4541   6.4542   6.9866   6.9868   6.9909   6.9911

          k =-0.5000 0.0000 0.0000 (  5182 PWs)   bands (ev):

   -64.9405 -64.9400 -64.9357 -64.9352 -31.7206 -31.7203 -31.7168 -31.7165
   -31.7108 -31.7107 -31.7041 -31.7040 -31.6899 -31.6897 -31.6882 -31.6880
    -8.7080  -8.7079  -7.9271  -7.9270   4.7778   4.7778   4.7873   4.7874
     5.0528   5.0531   5.9062   5.9065   6.8836   6.8837   6.9002   6.9003

          k =-0.5000 0.0000 0.2500 (  5190 PWs)   bands (ev):

   -64.9398 -64.9393 -64.9364 -64.9358 -31.7263 -31.7261 -31.7193 -31.7193
   -31.7141 -31.7139 -31.6941 -31.6940 -31.6928 -31.6926 -31.6859 -31.6858
    -8.5738  -8.5737  -8.0174  -8.0173   4.3597   4.3598   4.6891   4.6893
     5.0335   5.0335   6.4709   6.4711   6.4968   6.4969   7.0184   7.0184

          k =-0.5000 0.0000-0.5000 (  5232 PWs)   bands (ev):

   -64.9381 -64.9381 -64.9381 -64.9371 -31.7281 -31.7279 -31.7278 -31.7278
   -31.7047 -31.7045 -31.7045 -31.7042 -31.6869 -31.6867 -31.6866 -31.6866
    -8.2738  -8.2736  -8.2736  -8.2735   4.2385   4.2386   4.2386   4.2388
     5.6971   5.6972   5.6975   5.6975   6.9824   6.9825   6.9825   6.9827

          k =-0.5000 0.2509 0.0000 (  5184 PWs)   bands (ev):

   -64.9398 -64.9393 -64.9364 -64.9358 -31.7250 -31.7249 -31.7185 -31.7185
   -31.7163 -31.7161 -31.6949 -31.6947 -31.6933 -31.6932 -31.6840 -31.6838
    -8.5727  -8.5726  -8.0160  -8.0159   4.3548   4.3548   4.6808   4.6810
     5.0273   5.0274   6.4792   6.4795   6.5074   6.5075   7.0122   7.0123

          k =-0.5000 0.2509 0.2500 (  5170 PWs)   bands (ev):

   -64.9393 -64.9389 -64.9369 -64.9363 -31.7361 -31.7360 -31.7294 -31.7293
   -31.7013 -31.7011 -31.6905 -31.6905 -31.6882 -31.6880 -31.6862 -31.6860
    -8.4641  -8.4640  -8.0666  -8.0665   3.7637   3.7637   4.1361   4.1362
     5.7606   5.7606   6.6655   6.6657   6.7906   6.7908   6.9399   6.9399

          k =-0.5000 0.2509-0.5000 (  5180 PWs)   bands (ev):

   -64.9381 -64.9381 -64.9381 -64.9370 -31.7398 -31.7395 -31.7395 -31.7395
   -31.6917 -31.6915 -31.6914 -31.6913 -31.6858 -31.6856 -31.6855 -31.6855
    -8.2363  -8.2361  -8.2361  -8.2361   3.5851   3.5853   3.5853   3.5853
     6.4528   6.4529   6.4531   6.4531   6.9835   6.9836   6.9836   6.9839

          k =-0.5000-0.5018 0.0000 (  5224 PWs)   bands (ev):

   -64.9381 -64.9381 -64.9380 -64.9370 -31.7271 -31.7270 -31.7267 -31.7267
   -31.7069 -31.7067 -31.7063 -31.7061 -31.6858 -31.6856 -31.6853 -31.6853
    -8.2749  -8.2748  -8.2674  -8.2673   4.2235   4.2236   4.2270   4.2271
     5.6896   5.6896   5.7079   5.7080   6.9846   6.9847   6.9907   6.9909

          k =-0.5000-0.5018 0.2500 (  5176 PWs)   bands (ev):

   -64.9381 -64.9381 -64.9380 -64.9370 -31.7395 -31.7392 -31.7392 -31.7392
   -31.6932 -31.6930 -31.6929 -31.6927 -31.6844 -31.6843 -31.6841 -31.6840
    -8.2376  -8.2375  -8.2323  -8.2322   3.5783   3.5784   3.5832   3.5833
     6.4434   6.4435   6.4541   6.4541   6.9866   6.9868   6.9910   6.9911

          k =-0.5000-0.5018-0.5000 (  5232 PWs)   bands (ev):

   -64.9381 -64.9381 -64.9381 -64.9370 -31.7486 -31.7484 -31.7484 -31.7484
   -31.6866 -31.6864 -31.6863 -31.6863 -31.6848 -31.6846 -31.6846 -31.6844
    -8.1983  -8.1982  -8.1981  -8.1981   3.1626   3.1627   3.1627   3.1628
     6.9842   6.9843   6.9843   6.9845   6.9910   6.9911   6.9912   6.9913

          k = 0.0000 0.2509-0.2500 (  5183 PWs)   bands (ev):

   -64.9423 -64.9369 -64.9365 -64.9355 -31.7293 -31.7284 -31.7280 -31.7154
   -31.7038 -31.7032 -31.7014 -31.6961 -31.6961 -31.6946 -31.6856 -31.6783
    -9.0212  -8.1342  -8.1277  -7.9626   4.0987   4.1015   4.2660   5.0057
     5.7663   5.9770   5.9941   6.4023   6.4084   6.5125   7.0958   7.4228

          k =-0.2500 0.2509-0.2500 (  5178 PWs)   bands (ev):

   -64.9414 -64.9369 -64.9369 -64.9361 -31.7334 -31.7332 -31.7322 -31.7148
   -31.7024 -31.7023 -31.7020 -31.6939 -31.6925 -31.6925 -31.6823 -31.6802
    -8.8544  -8.1014  -8.1012  -8.0966   3.9399   3.9412   3.9413   5.0175
     5.7741   5.7743   5.7797   6.6228   6.6329   6.6331   7.2739   7.2753

          k = 0.5000 0.2509-0.2500 (  5170 PWs)   bands (ev):

   -64.9393 -64.9389 -64.9369 -64.9363 -31.7361 -31.7360 -31.7294 -31.7293
   -31.7013 -31.7011 -31.6905 -31.6905 -31.6882 -31.6880 -31.6862 -31.6860
    -8.4641  -8.4640  -8.0666  -8.0665   3.7637   3.7637   4.1361   4.1362
     5.7606   5.7606   6.6655   6.6657   6.7906   6.7908   6.9399   6.9399

     highest occupied level (ev):     7.5908

!    total energy              =    -608.39244909 Ry
     Harris-Foulkes estimate   =    -608.39244909 Ry
     estimated scf accuracy    <          7.8E-09 Ry

     The total energy is the sum of the following terms:

     one-electron contribution =    -304.94440747 Ry
     hartree contribution      =     168.53137475 Ry
     xc contribution           =     -97.81731219 Ry
     ewald contribution        =    -374.16210418 Ry

     convergence has been achieved in   3 iterations

     Forces acting on atoms (cartesian axes, Ry/au):

     atom    1 type  1   force =     0.00000000    0.00121628   -0.00000407
     atom    2 type  1   force =     0.00000000   -0.00122284    0.00000415
     atom    3 type  1   force =     0.00000000    0.00125554    0.00000416
     atom    4 type  1   force =     0.00000000   -0.00122256   -0.00000443
     atom    5 type  2   force =     0.00000000    0.00156422   -0.00000549
     atom    6 type  2   force =     0.00000000   -0.00157566   -0.00000550
     atom    7 type  2   force =     0.00000000    0.00156703    0.00000556
     atom    8 type  2   force =     0.00000000   -0.00158201    0.00000562

     Total force =     0.003992     Total SCF correction =     0.000298


     Computing stress (Cartesian axis) and pressure

          total   stress  (Ry/bohr**3)                   (kbar)     P=  -78.29
  -0.00054630   0.00000000   0.00000000        -80.36      0.00      0.00
   0.00000000  -0.00050378   0.00000000          0.00    -74.11      0.00
   0.00000000   0.00000000  -0.00054652          0.00      0.00    -80.40


     number of scf cycles    =   2
     number of bfgs steps    =   1

     energy   old            =    -608.3924193883 Ry
     energy   new            =    -608.3924490897 Ry

     CASE: energy  _new < energy  _old

     new trust radius        =       0.0024922930 bohr
     new conv_thr            =       0.0000000003 Ry


ATOMIC_POSITIONS (alat)
Mg       0.000000000   0.000478727  -0.000001671
Mg       0.000000000   0.499524601   0.500001606
Mg       0.500000000   0.000486523   0.500001614
Mg       0.500000000   0.499524505  -0.000001585
O        0.500000000   0.000580592  -0.000002005
O        0.000000000   0.499413412  -0.000001995
O        0.000000000   0.000580975   0.500002009
O        0.500000000   0.499410665   0.500002028



     Writing output data file diamond.8.07347780225.70.4.save
     NEW-OLD atomic charge density approx. for the potential

     Check: negative/imaginary core charge=   -0.000007    0.000000

     total cpu time spent up to now is       18.8 secs

     per-process dynamical memory:    51.9 Mb

     Self-consistent Calculation

     iteration #  1     ecut=    70.00 Ry     beta=0.70
     Davidson diagonalization with overlap
     ethr =  1.00E-06,  avg # of iterations =  3.0

     Threshold (ethr) on eigenvalues was too large:
     Diagonalizing with lowered threshold

     Davidson diagonalization with overlap
     ethr =  1.17E-08,  avg # of iterations =  1.2

     total cpu time spent up to now is       21.6 secs

     total energy              =    -608.39246650 Ry
     Harris-Foulkes estimate   =    -608.39247208 Ry
     estimated scf accuracy    <       0.00000761 Ry

     iteration #  2     ecut=    70.00 Ry     beta=0.70
     Davidson diagonalization with overlap
     ethr =  1.19E-08,  avg # of iterations =  2.2

     total cpu time spent up to now is       22.8 secs

     total energy              =    -608.39246880 Ry
     Harris-Foulkes estimate   =    -608.39246957 Ry
     estimated scf accuracy    <       0.00000128 Ry

     iteration #  3     ecut=    70.00 Ry     beta=0.70
     Davidson diagonalization with overlap
     ethr =  2.00E-09,  avg # of iterations =  2.0

     total cpu time spent up to now is       24.0 secs

     total energy              =    -608.39246908 Ry
     Harris-Foulkes estimate   =    -608.39246907 Ry
     estimated scf accuracy    <          8.4E-09 Ry

     iteration #  4     ecut=    70.00 Ry     beta=0.70
     Davidson diagonalization with overlap
     ethr =  1.31E-11,  avg # of iterations =  2.4

     total cpu time spent up to now is       25.4 secs

     total energy              =    -608.39246908 Ry
     Harris-Foulkes estimate   =    -608.39246908 Ry
     estimated scf accuracy    <          7.0E-10 Ry

     iteration #  5     ecut=    70.00 Ry     beta=0.70
     Davidson diagonalization with overlap
     ethr =  1.10E-12,  avg # of iterations =  2.5

     total cpu time spent up to now is       26.6 secs

     End of self-consistent calculation

          k = 0.0000 0.0000 0.0000 (  5169 PWs)   bands (ev):

   -64.9449 -64.9358 -64.9357 -64.9350 -31.7389 -31.7389 -31.7371 -31.7030
   -31.7029 -31.7021 -31.7021 -31.7008 -31.7007 -31.6760 -31.6760 -31.6720
    -9.4152  -7.9869  -7.9869  -7.9777   3.6978   3.6978   3.7094   6.2959
     6.2960   6.2988   6.2992   6.3212   6.3212   7.5826   7.5907   7.5908

          k = 0.0000 0.0000 0.2500 (  5190 PWs)   bands (ev):

   -64.9435 -64.9370 -64.9357 -64.9351 -31.7331 -31.7307 -31.7306 -31.7084
   -31.7056 -31.7034 -31.7029 -31.6986 -31.6965 -31.6893 -31.6813 -31.6794
    -9.2101  -8.1987  -7.9581  -7.9515   3.9860   3.9968   4.0317   5.7789
     5.7848   6.0933   6.1106   6.4607   6.4814   6.5791   7.3620   7.3732

          k = 0.0000 0.0000-0.5000 (  5182 PWs)   bands (ev):

   -64.9404 -64.9400 -64.9357 -64.9352 -31.7206 -31.7203 -31.7168 -31.7165
   -31.7108 -31.7108 -31.7041 -31.7040 -31.6899 -31.6897 -31.6882 -31.6880
    -8.7080  -8.7079  -7.9272  -7.9271   4.7778   4.7778   4.7873   4.7873
     5.0527   5.0530   5.9063   5.9066   6.8836   6.8836   6.9002   6.9002

          k = 0.0000 0.2509 0.0000 (  5185 PWs)   bands (ev):

   -64.9435 -64.9369 -64.9358 -64.9352 -31.7330 -31.7330 -31.7273 -31.7078
   -31.7078 -31.7015 -31.7015 -31.6993 -31.6992 -31.6858 -31.6813 -31.6812
    -9.2081  -8.1898  -7.9584  -7.9584   3.9883   3.9884   4.0384   5.7984
     5.7984   6.0876   6.0880   6.4589   6.4589   6.5721   7.3684   7.3685

          k = 0.0000 0.2509 0.2500 (  5183 PWs)   bands (ev):

   -64.9423 -64.9369 -64.9365 -64.9355 -31.7293 -31.7284 -31.7280 -31.7154
   -31.7038 -31.7032 -31.7014 -31.6961 -31.6961 -31.6946 -31.6856 -31.6783
    -9.0213  -8.1343  -8.1277  -7.9627   4.0987   4.1015   4.2661   5.0056
     5.7663   5.9771   5.9940   6.4024   6.4084   6.5123   7.0957   7.4228

          k = 0.0000 0.2509-0.5000 (  5184 PWs)   bands (ev):

   -64.9397 -64.9393 -64.9364 -64.9358 -31.7250 -31.7249 -31.7185 -31.7185
   -31.7163 -31.7161 -31.6949 -31.6947 -31.6933 -31.6932 -31.6840 -31.6838
    -8.5727  -8.5726  -8.0161  -8.0160   4.3548   4.3548   4.6808   4.6810
     5.0273   5.0274   6.4792   6.4795   6.5073   6.5074   7.0122   7.0122

          k = 0.0000-0.5018 0.0000 (  5190 PWs)   bands (ev):

   -64.9404 -64.9399 -64.9358 -64.9352 -31.7212 -31.7212 -31.7208 -31.7208
   -31.7092 -31.7087 -31.6996 -31.6995 -31.6903 -31.6903 -31.6900 -31.6900
    -8.7054  -8.6982  -7.9296  -7.9295   4.7811   4.7811   4.7925   4.7925
     5.0474   5.0516   5.8889   5.8892   6.8821   6.8822   6.8889   6.8889

          k = 0.0000-0.5018 0.2500 (  5188 PWs)   bands (ev):

   -64.9397 -64.9393 -64.9364 -64.9359 -31.7256 -31.7253 -31.7180 -31.7178
   -31.7162 -31.7157 -31.6955 -31.6951 -31.6922 -31.6920 -31.6854 -31.6852
    -8.5717  -8.5654  -8.0189  -8.0176   4.3522   4.3569   4.6758   4.6805
     5.0289   5.0400   6.4669   6.4709   6.4936   6.5016   7.0148   7.0170

          k = 0.0000-0.5018-0.5000 (  5224 PWs)   bands (ev):

   -64.9381 -64.9381 -64.9380 -64.9370 -31.7271 -31.7269 -31.7267 -31.7267
   -31.7068 -31.7066 -31.7064 -31.7061 -31.6857 -31.6856 -31.6854 -31.6853
    -8.2732  -8.2731  -8.2692  -8.2691   4.2245   4.2246   4.2260   4.2261
     5.6938   5.6938   5.7036   5.7037   6.9860   6.9862   6.9892   6.9893

          k = 0.2500 0.0000 0.0000 (  5190 PWs)   bands (ev):

   -64.9435 -64.9370 -64.9357 -64.9351 -31.7331 -31.7307 -31.7306 -31.7084
   -31.7056 -31.7034 -31.7029 -31.6986 -31.6965 -31.6893 -31.6813 -31.6794
    -9.2101  -8.1986  -7.9581  -7.9515   3.9859   3.9968   4.0317   5.7790
     5.7848   6.0932   6.1106   6.4606   6.4814   6.5790   7.3620   7.3732

          k = 0.2500 0.0000 0.2500 (  5179 PWs)   bands (ev):

   -64.9424 -64.9369 -64.9366 -64.9355 -31.7294 -31.7293 -31.7263 -31.7166
   -31.7021 -31.7017 -31.7017 -31.6977 -31.6961 -31.6960 -31.6832 -31.6791
    -9.0230  -8.1345  -8.1344  -7.9582   4.1009   4.1009   4.2742   5.0055
     5.7768   5.9803   5.9806   6.4189   6.4190   6.5006   7.0880   7.4245

          k = 0.2500 0.0000-0.5000 (  5190 PWs)   bands (ev):

   -64.9397 -64.9393 -64.9364 -64.9358 -31.7263 -31.7261 -31.7193 -31.7193
   -31.7141 -31.7139 -31.6941 -31.6940 -31.6928 -31.6926 -31.6859 -31.6857
    -8.5738  -8.5737  -8.0174  -8.0173   4.3597   4.3598   4.6891   4.6893
     5.0334   5.0334   6.4713   6.4715   6.4964   6.4964   7.0183   7.0184

          k = 0.2500 0.2509 0.0000 (  5183 PWs)   bands (ev):

   -64.9423 -64.9369 -64.9365 -64.9355 -31.7293 -31.7284 -31.7280 -31.7154
   -31.7038 -31.7032 -31.7014 -31.6961 -31.6961 -31.6946 -31.6856 -31.6783
    -9.0212  -8.1342  -8.1277  -7.9627   4.0987   4.1015   4.2660   5.0056
     5.7662   5.9771   5.9940   6.4023   6.4083   6.5124   7.0957   7.4228

          k = 0.2500 0.2509 0.2500 (  5178 PWs)   bands (ev):

   -64.9414 -64.9369 -64.9369 -64.9361 -31.7334 -31.7332 -31.7322 -31.7148
   -31.7024 -31.7023 -31.7019 -31.6939 -31.6925 -31.6925 -31.6823 -31.6802
    -8.8544  -8.1014  -8.1013  -8.0966   3.9399   3.9412   3.9413   5.0175
     5.7741   5.7742   5.7796   6.6228   6.6328   6.6330   7.2739   7.2752

          k = 0.2500 0.2509-0.5000 (  5170 PWs)   bands (ev):

   -64.9393 -64.9388 -64.9369 -64.9363 -31.7361 -31.7360 -31.7293 -31.7292
   -31.7013 -31.7011 -31.6905 -31.6905 -31.6882 -31.6880 -31.6862 -31.6860
    -8.4641  -8.4640  -8.0666  -8.0665   3.7637   3.7637   4.1361   4.1362
     5.7606   5.7606   6.6655   6.6657   6.7905   6.7907   6.9398   6.9399

          k = 0.2500-0.5018 0.0000 (  5188 PWs)   bands (ev):

   -64.9397 -64.9393 -64.9364 -64.9359 -31.7256 -31.7253 -31.7180 -31.7178
   -31.7162 -31.7157 -31.6955 -31.6951 -31.6922 -31.6920 -31.6854 -31.6852
    -8.5717  -8.5654  -8.0189  -8.0176   4.3522   4.3569   4.6758   4.6804
     5.0289   5.0400   6.4669   6.4709   6.4937   6.5016   7.0148   7.0170

          k = 0.2500-0.5018 0.2500 (  5168 PWs)   bands (ev):

   -64.9392 -64.9388 -64.9369 -64.9363 -31.7362 -31.7360 -31.7289 -31.7288
   -31.7023 -31.7020 -31.6890 -31.6890 -31.6884 -31.6881 -31.6868 -31.6867
    -8.4634  -8.4580  -8.0678  -8.0677   3.7628   3.7629   4.1281   4.1330
     5.7611   5.7611   6.6626   6.6628   6.7944   6.7968   6.9314   6.9363

          k = 0.2500-0.5018-0.5000 (  5176 PWs)   bands (ev):

   -64.9381 -64.9381 -64.9380 -64.9370 -31.7394 -31.7392 -31.7392 -31.7392
   -31.6932 -31.6930 -31.6929 -31.6928 -31.6844 -31.6842 -31.6841 -31.6840
    -8.2364  -8.2363  -8.2335  -8.2334   3.5795   3.5796   3.5820   3.5820
     6.4459   6.4459   6.4516   6.4516   6.9876   6.9878   6.9898   6.9900

          k =-0.5000 0.0000 0.0000 (  5182 PWs)   bands (ev):

   -64.9404 -64.9400 -64.9357 -64.9352 -31.7206 -31.7203 -31.7168 -31.7165
   -31.7108 -31.7108 -31.7041 -31.7040 -31.6899 -31.6897 -31.6882 -31.6880
    -8.7080  -8.7079  -7.9272  -7.9271   4.7778   4.7778   4.7873   4.7873
     5.0527   5.0530   5.9062   5.9065   6.8836   6.8836   6.9002   6.9002

          k =-0.5000 0.0000 0.2500 (  5190 PWs)   bands (ev):

   -64.9397 -64.9393 -64.9364 -64.9358 -31.7263 -31.7261 -31.7193 -31.7193
   -31.7141 -31.7139 -31.6941 -31.6940 -31.6928 -31.6926 -31.6859 -31.6857
    -8.5738  -8.5737  -8.0174  -8.0173   4.3597   4.3598   4.6891   4.6893
     5.0334   5.0334   6.4712   6.4715   6.4964   6.4964   7.0183   7.0184

          k =-0.5000 0.0000-0.5000 (  5232 PWs)   bands (ev):

   -64.9381 -64.9381 -64.9381 -64.9370 -31.7281 -31.7279 -31.7277 -31.7277
   -31.7047 -31.7045 -31.7045 -31.7042 -31.6869 -31.6867 -31.6866 -31.6866
    -8.2738  -8.2736  -8.2736  -8.2736   4.2385   4.2386   4.2386   4.2387
     5.6971   5.6971   5.6974   5.6974   6.9823   6.9825   6.9825   6.9827

          k =-0.5000 0.2509 0.0000 (  5184 PWs)   bands (ev):

   -64.9397 -64.9393 -64.9364 -64.9358 -31.7250 -31.7249 -31.7185 -31.7185
   -31.7163 -31.7161 -31.6949 -31.6947 -31.6933 -31.6932 -31.6840 -31.6838
    -8.5727  -8.5726  -8.0161  -8.0160   4.3547   4.3548   4.6807   4.6809
     5.0274   5.0274   6.4792   6.4794   6.5074   6.5074   7.0121   7.0122

          k =-0.5000 0.2509 0.2500 (  5170 PWs)   bands (ev):

   -64.9393 -64.9388 -64.9369 -64.9363 -31.7361 -31.7360 -31.7293 -31.7292
   -31.7013 -31.7011 -31.6905 -31.6905 -31.6882 -31.6880 -31.6862 -31.6860
    -8.4641  -8.4640  -8.0666  -8.0665   3.7636   3.7637   4.1361   4.1362
     5.7606   5.7606   6.6655   6.6657   6.7906   6.7907   6.9398   6.9398

          k =-0.5000 0.2509-0.5000 (  5180 PWs)   bands (ev):

   -64.9381 -64.9381 -64.9381 -64.9370 -31.7397 -31.7395 -31.7395 -31.7395
   -31.6917 -31.6914 -31.6914 -31.6913 -31.6858 -31.6856 -31.6855 -31.6855
    -8.2363  -8.2361  -8.2361  -8.2361   3.5851   3.5852   3.5852   3.5853
     6.4528   6.4528   6.4530   6.4530   6.9835   6.9836   6.9836   6.9838

          k =-0.5000-0.5018 0.0000 (  5224 PWs)   bands (ev):

   -64.9381 -64.9381 -64.9380 -64.9370 -31.7271 -31.7269 -31.7267 -31.7267
   -31.7068 -31.7066 -31.7064 -31.7062 -31.6857 -31.6856 -31.6854 -31.6853
    -8.2732  -8.2731  -8.2692  -8.2691   4.2244   4.2246   4.2260   4.2261
     5.6938   5.6938   5.7037   5.7037   6.9860   6.9862   6.9892   6.9893

          k =-0.5000-0.5018 0.2500 (  5176 PWs)   bands (ev):

   -64.9381 -64.9381 -64.9380 -64.9370 -31.7394 -31.7392 -31.7392 -31.7392
   -31.6932 -31.6930 -31.6929 -31.6928 -31.6844 -31.6842 -31.6841 -31.6840
    -8.2364  -8.2363  -8.2335  -8.2335   3.5795   3.5796   3.5820   3.5820
     6.4459   6.4459   6.4516   6.4516   6.9876   6.9878   6.9899   6.9900

          k =-0.5000-0.5018-0.5000 (  5232 PWs)   bands (ev):

   -64.9381 -64.9381 -64.9381 -64.9370 -31.7486 -31.7484 -31.7484 -31.7483
   -31.6866 -31.6864 -31.6863 -31.6863 -31.6848 -31.6846 -31.6846 -31.6844
    -8.1983  -8.1982  -8.1982  -8.1981   3.1626   3.1627   3.1627   3.1627
     6.9841   6.9843   6.9843   6.9845   6.9909   6.9910   6.9912   6.9912

          k = 0.0000 0.2509-0.2500 (  5183 PWs)   bands (ev):

   -64.9423 -64.9369 -64.9365 -64.9355 -31.7293 -31.7284 -31.7280 -31.7154
   -31.7038 -31.7032 -31.7014 -31.6961 -31.6961 -31.6946 -31.6856 -31.6783
    -9.0213  -8.1343  -8.1277  -7.9627   4.0987   4.1015   4.2661   5.0056
     5.7663   5.9771   5.9940   6.4024   6.4084   6.5123   7.0957   7.4228

          k =-0.2500 0.2509-0.2500 (  5178 PWs)   bands (ev):

   -64.9414 -64.9369 -64.9369 -64.9361 -31.7334 -31.7332 -31.7322 -31.7148
   -31.7024 -31.7023 -31.7019 -31.6939 -31.6925 -31.6925 -31.6823 -31.6802
    -8.8544  -8.1014  -8.1013  -8.0966   3.9399   3.9412   3.9413   5.0175
     5.7741   5.7742   5.7796   6.6228   6.6328   6.6330   7.2739   7.2752

          k = 0.5000 0.2509-0.2500 (  5170 PWs)   bands (ev):

   -64.9393 -64.9388 -64.9369 -64.9363 -31.7361 -31.7360 -31.7293 -31.7292
   -31.7013 -31.7011 -31.6905 -31.6905 -31.6882 -31.6880 -31.6862 -31.6860
    -8.4641  -8.4640  -8.0666  -8.0665   3.7636   3.7637   4.1361   4.1362
     5.7606   5.7606   6.6655   6.6657   6.7906   6.7907   6.9398   6.9398

     highest occupied level (ev):     7.5908

!    total energy              =    -608.39246908 Ry
     Harris-Foulkes estimate   =    -608.39246908 Ry
     estimated scf accuracy    <          1.2E-10 Ry

     The total energy is the sum of the following terms:

     one-electron contribution =    -304.94079462 Ry
     hartree contribution      =     168.52959693 Ry
     xc contribution           =     -97.81730177 Ry
     ewald contribution        =    -374.16396962 Ry

     convergence has been achieved in   5 iterations

     Forces acting on atoms (cartesian axes, Ry/au):

     atom    1 type  1   force =     0.00000000    0.00082936   -0.00000297
     atom    2 type  1   force =     0.00000000   -0.00086568    0.00000314
     atom    3 type  1   force =     0.00000000    0.00089679    0.00000315
     atom    4 type  1   force =     0.00000000   -0.00086563   -0.00000336
     atom    5 type  2   force =     0.00000000    0.00074273   -0.00000271
     atom    6 type  2   force =     0.00000000   -0.00074030   -0.00000274
     atom    7 type  2   force =     0.00000000    0.00074229    0.00000273
     atom    8 type  2   force =     0.00000000   -0.00073955    0.00000275

     Total force =     0.002278     Total SCF correction =     0.000108


     Computing stress (Cartesian axis) and pressure

          total   stress  (Ry/bohr**3)                   (kbar)     P=  -78.30
  -0.00054621   0.00000000   0.00000000        -80.35      0.00      0.00
   0.00000000  -0.00050408   0.00000000          0.00    -74.15      0.00
   0.00000000   0.00000000  -0.00054643          0.00      0.00    -80.38


     number of scf cycles    =   3
     number of bfgs steps    =   2

     energy   old            =    -608.3924490897 Ry
     energy   new            =    -608.3924690803 Ry

     CASE: energy  _new < energy  _old

     new trust radius        =       0.0030341164 bohr
     new conv_thr            =       0.0000000002 Ry


ATOMIC_POSITIONS (alat)
Mg       0.000000000   0.000831640  -0.000002907
Mg       0.000000000   0.499160771   0.500002898
Mg       0.500000000   0.000862334   0.500002908
Mg       0.500000000   0.499160720  -0.000002966
O        0.500000000   0.000943757  -0.000003309
O        0.000000000   0.499049819  -0.000003307
O        0.000000000   0.000944299   0.500003325
O        0.500000000   0.499046659   0.500003357



     Writing output data file diamond.8.07347780225.70.4.save
     NEW-OLD atomic charge density approx. for the potential

     Check: negative/imaginary core charge=   -0.000007    0.000000

     total cpu time spent up to now is       27.4 secs

     per-process dynamical memory:    51.9 Mb

     Self-consistent Calculation

     iteration #  1     ecut=    70.00 Ry     beta=0.70
     Davidson diagonalization with overlap
     ethr =  1.00E-06,  avg # of iterations =  3.0

     Threshold (ethr) on eigenvalues was too large:
     Diagonalizing with lowered threshold

     Davidson diagonalization with overlap
     ethr =  1.79E-08,  avg # of iterations =  1.1

     total cpu time spent up to now is       30.2 secs

     total energy              =    -608.39247379 Ry
     Harris-Foulkes estimate   =    -608.39248224 Ry
     estimated scf accuracy    <       0.00001156 Ry

     iteration #  2     ecut=    70.00 Ry     beta=0.70
     Davidson diagonalization with overlap
     ethr =  1.81E-08,  avg # of iterations =  2.2

     total cpu time spent up to now is       31.4 secs

     total energy              =    -608.39247729 Ry
     Harris-Foulkes estimate   =    -608.39247847 Ry
     estimated scf accuracy    <       0.00000196 Ry

     iteration #  3     ecut=    70.00 Ry     beta=0.70
     Davidson diagonalization with overlap
     ethr =  3.06E-09,  avg # of iterations =  2.0

     total cpu time spent up to now is       32.6 secs

     total energy              =    -608.39247772 Ry
     Harris-Foulkes estimate   =    -608.39247771 Ry
     estimated scf accuracy    <       0.00000001 Ry

     iteration #  4     ecut=    70.00 Ry     beta=0.70
     Davidson diagonalization with overlap
     ethr =  2.19E-11,  avg # of iterations =  2.3

     total cpu time spent up to now is       34.0 secs

     total energy              =    -608.39247772 Ry
     Harris-Foulkes estimate   =    -608.39247772 Ry
     estimated scf accuracy    <          9.8E-10 Ry

     iteration #  5     ecut=    70.00 Ry     beta=0.70
     Davidson diagonalization with overlap
     ethr =  1.53E-12,  avg # of iterations =  2.1

     total cpu time spent up to now is       35.2 secs

     End of self-consistent calculation

          k = 0.0000 0.0000 0.0000 (  5169 PWs)   bands (ev):

   -64.9449 -64.9358 -64.9357 -64.9350 -31.7389 -31.7389 -31.7371 -31.7030
   -31.7030 -31.7021 -31.7021 -31.7008 -31.7007 -31.6760 -31.6760 -31.6720
    -9.4151  -7.9869  -7.9868  -7.9777   3.6978   3.6978   3.7094   6.2959
     6.2960   6.2988   6.2992   6.3212   6.3213   7.5826   7.5908   7.5908

          k = 0.0000 0.0000 0.2500 (  5190 PWs)   bands (ev):

   -64.9435 -64.9370 -64.9357 -64.9351 -31.7331 -31.7307 -31.7306 -31.7084
   -31.7056 -31.7034 -31.7029 -31.6986 -31.6965 -31.6893 -31.6813 -31.6794
    -9.2101  -8.1986  -7.9581  -7.9515   3.9860   3.9968   4.0317   5.7790
     5.7848   6.0933   6.1106   6.4607   6.4814   6.5791   7.3620   7.3732

          k = 0.0000 0.0000-0.5000 (  5182 PWs)   bands (ev):

   -64.9405 -64.9400 -64.9357 -64.9352 -31.7206 -31.7203 -31.7168 -31.7165
   -31.7108 -31.7108 -31.7041 -31.7040 -31.6899 -31.6897 -31.6882 -31.6880
    -8.7080  -8.7079  -7.9271  -7.9271   4.7778   4.7778   4.7873   4.7873
     5.0528   5.0530   5.9063   5.9066   6.8836   6.8836   6.9002   6.9002

          k = 0.0000 0.2509 0.0000 (  5185 PWs)   bands (ev):

   -64.9435 -64.9369 -64.9358 -64.9352 -31.7330 -31.7330 -31.7273 -31.7078
   -31.7078 -31.7015 -31.7015 -31.6993 -31.6993 -31.6858 -31.6813 -31.6813
    -9.2081  -8.1898  -7.9584  -7.9583   3.9884   3.9884   4.0384   5.7984
     5.7984   6.0876   6.0880   6.4589   6.4590   6.5721   7.3685   7.3685

          k = 0.0000 0.2509 0.2500 (  5183 PWs)   bands (ev):

   -64.9424 -64.9369 -64.9365 -64.9355 -31.7293 -31.7284 -31.7280 -31.7154
   -31.7038 -31.7032 -31.7014 -31.6961 -31.6961 -31.6946 -31.6857 -31.6783
    -9.0212  -8.1342  -8.1277  -7.9626   4.0987   4.1015   4.2661   5.0056
     5.7663   5.9771   5.9940   6.4024   6.4084   6.5123   7.0957   7.4228

          k = 0.0000 0.2509-0.5000 (  5184 PWs)   bands (ev):

   -64.9398 -64.9393 -64.9364 -64.9358 -31.7250 -31.7249 -31.7185 -31.7185
   -31.7163 -31.7161 -31.6949 -31.6947 -31.6933 -31.6932 -31.6840 -31.6838
    -8.5727  -8.5726  -8.0160  -8.0160   4.3548   4.3548   4.6808   4.6810
     5.0274   5.0274   6.4792   6.4795   6.5074   6.5074   7.0122   7.0122

          k = 0.0000-0.5018 0.0000 (  5190 PWs)   bands (ev):

   -64.9404 -64.9399 -64.9358 -64.9352 -31.7211 -31.7211 -31.7209 -31.7209
   -31.7090 -31.7089 -31.6996 -31.6995 -31.6903 -31.6903 -31.6900 -31.6900
    -8.7021  -8.7014  -7.9296  -7.9295   4.7863   4.7864   4.7872   4.7873
     5.0492   5.0499   5.8888   5.8892   6.8851   6.8852   6.8859   6.8860

          k = 0.0000-0.5018 0.2500 (  5188 PWs)   bands (ev):

   -64.9397 -64.9393 -64.9365 -64.9359 -31.7255 -31.7254 -31.7179 -31.7179
   -31.7161 -31.7159 -31.6955 -31.6952 -31.6922 -31.6921 -31.6854 -31.6852
    -8.5688  -8.5682  -8.0183  -8.0181   4.3545   4.3547   4.6777   4.6786
     5.0341   5.0349   6.4686   6.4691   6.4972   6.4980   7.0159   7.0160

          k = 0.0000-0.5018-0.5000 (  5224 PWs)   bands (ev):

   -64.9381 -64.9381 -64.9381 -64.9371 -31.7271 -31.7269 -31.7268 -31.7267
   -31.7067 -31.7065 -31.7065 -31.7062 -31.6857 -31.6855 -31.6854 -31.6854
    -8.2714  -8.2713  -8.2710  -8.2709   4.2250   4.2251   4.2255   4.2257
     5.6983   5.6983   5.6992   5.6992   6.9874   6.9875   6.9878   6.9880

          k = 0.2500 0.0000 0.0000 (  5190 PWs)   bands (ev):

   -64.9435 -64.9370 -64.9357 -64.9351 -31.7331 -31.7307 -31.7306 -31.7084
   -31.7056 -31.7034 -31.7029 -31.6987 -31.6965 -31.6893 -31.6813 -31.6794
    -9.2101  -8.1986  -7.9581  -7.9515   3.9860   3.9968   4.0317   5.7790
     5.7848   6.0933   6.1106   6.4606   6.4814   6.5790   7.3620   7.3732

          k = 0.2500 0.0000 0.2500 (  5179 PWs)   bands (ev):

   -64.9424 -64.9369 -64.9366 -64.9355 -31.7294 -31.7293 -31.7263 -31.7166
   -31.7021 -31.7017 -31.7017 -31.6977 -31.6961 -31.6960 -31.6832 -31.6791
    -9.0230  -8.1345  -8.1344  -7.9582   4.1009   4.1010   4.2742   5.0055
     5.7768   5.9803   5.9806   6.4189   6.4190   6.5006   7.0880   7.4245

          k = 0.2500 0.0000-0.5000 (  5190 PWs)   bands (ev):

   -64.9398 -64.9393 -64.9364 -64.9358 -31.7263 -31.7261 -31.7193 -31.7193
   -31.7141 -31.7139 -31.6941 -31.6940 -31.6928 -31.6926 -31.6859 -31.6858
    -8.5738  -8.5737  -8.0173  -8.0173   4.3597   4.3598   4.6891   4.6893
     5.0334   5.0334   6.4714   6.4717   6.4963   6.4963   7.0183   7.0184

          k = 0.2500 0.2509 0.0000 (  5183 PWs)   bands (ev):

   -64.9424 -64.9369 -64.9365 -64.9355 -31.7293 -31.7284 -31.7280 -31.7154
   -31.7038 -31.7032 -31.7014 -31.6961 -31.6961 -31.6946 -31.6857 -31.6783
    -9.0212  -8.1342  -8.1277  -7.9626   4.0987   4.1015   4.2661   5.0056
     5.7662   5.9771   5.9940   6.4024   6.4084   6.5123   7.0957   7.4228

          k = 0.2500 0.2509 0.2500 (  5178 PWs)   bands (ev):

   -64.9414 -64.9369 -64.9369 -64.9361 -31.7334 -31.7332 -31.7322 -31.7148
   -31.7024 -31.7023 -31.7020 -31.6939 -31.6925 -31.6925 -31.6823 -31.6802
    -8.8544  -8.1014  -8.1012  -8.0966   3.9399   3.9412   3.9413   5.0175
     5.7741   5.7742   5.7796   6.6228   6.6328   6.6330   7.2739   7.2752

          k = 0.2500 0.2509-0.5000 (  5170 PWs)   bands (ev):

   -64.9393 -64.9389 -64.9369 -64.9363 -31.7361 -31.7360 -31.7293 -31.7293
   -31.7013 -31.7011 -31.6905 -31.6905 -31.6882 -31.6880 -31.6862 -31.6860
    -8.4641  -8.4640  -8.0666  -8.0665   3.7637   3.7637   4.1361   4.1362
     5.7606   5.7606   6.6655   6.6657   6.7905   6.7907   6.9398   6.9398

          k = 0.2500-0.5018 0.0000 (  5188 PWs)   bands (ev):

   -64.9397 -64.9393 -64.9365 -64.9359 -31.7255 -31.7254 -31.7179 -31.7179
   -31.7161 -31.7159 -31.6955 -31.6952 -31.6922 -31.6921 -31.6854 -31.6852
    -8.5688  -8.5682  -8.0183  -8.0181   4.3545   4.3547   4.6777   4.6785
     5.0340   5.0349   6.4687   6.4691   6.4973   6.4981   7.0158   7.0160

          k = 0.2500-0.5018 0.2500 (  5168 PWs)   bands (ev):

   -64.9392 -64.9388 -64.9369 -64.9363 -31.7362 -31.7360 -31.7289 -31.7288
   -31.7023 -31.7021 -31.6890 -31.6890 -31.6884 -31.6881 -31.6868 -31.6867
    -8.4610  -8.4604  -8.0678  -8.0677   3.7629   3.7629   4.1302   4.1310
     5.7611   5.7612   6.6626   6.6629   6.7955   6.7957   6.9336   6.9342

          k = 0.2500-0.5018-0.5000 (  5176 PWs)   bands (ev):

   -64.9381 -64.9381 -64.9381 -64.9371 -31.7395 -31.7392 -31.7392 -31.7392
   -31.6932 -31.6930 -31.6930 -31.6928 -31.6844 -31.6842 -31.6841 -31.6841
    -8.2351  -8.2350  -8.2348  -8.2347   3.5805   3.5806   3.5810   3.5811
     6.4485   6.4485   6.4491   6.4491   6.9886   6.9887   6.9889   6.9891

          k =-0.5000 0.0000 0.0000 (  5182 PWs)   bands (ev):

   -64.9405 -64.9400 -64.9357 -64.9352 -31.7206 -31.7203 -31.7168 -31.7165
   -31.7108 -31.7108 -31.7041 -31.7040 -31.6899 -31.6897 -31.6882 -31.6880
    -8.7080  -8.7079  -7.9272  -7.9271   4.7778   4.7778   4.7873   4.7874
     5.0527   5.0530   5.9062   5.9066   6.8835   6.8836   6.9002   6.9002

          k =-0.5000 0.0000 0.2500 (  5190 PWs)   bands (ev):

   -64.9398 -64.9393 -64.9364 -64.9358 -31.7263 -31.7261 -31.7193 -31.7193
   -31.7141 -31.7139 -31.6941 -31.6940 -31.6928 -31.6926 -31.6859 -31.6858
    -8.5738  -8.5737  -8.0174  -8.0173   4.3597   4.3598   4.6891   4.6893
     5.0334   5.0334   6.4714   6.4716   6.4962   6.4963   7.0183   7.0184

          k =-0.5000 0.0000-0.5000 (  5232 PWs)   bands (ev):

   -64.9381 -64.9381 -64.9381 -64.9371 -31.7281 -31.7279 -31.7277 -31.7277
   -31.7047 -31.7045 -31.7045 -31.7042 -31.6869 -31.6867 -31.6866 -31.6866
    -8.2738  -8.2736  -8.2736  -8.2735   4.2385   4.2386   4.2386   4.2388
     5.6970   5.6971   5.6974   5.6974   6.9824   6.9825   6.9825   6.9827

          k =-0.5000 0.2509 0.0000 (  5184 PWs)   bands (ev):

   -64.9398 -64.9393 -64.9364 -64.9358 -31.7250 -31.7249 -31.7185 -31.7185
   -31.7163 -31.7161 -31.6949 -31.6947 -31.6933 -31.6932 -31.6840 -31.6838
    -8.5727  -8.5726  -8.0161  -8.0160   4.3547   4.3548   4.6807   4.6810
     5.0274   5.0274   6.4792   6.4795   6.5074   6.5074   7.0122   7.0122

          k =-0.5000 0.2509 0.2500 (  5170 PWs)   bands (ev):

   -64.9393 -64.9389 -64.9369 -64.9363 -31.7361 -31.7360 -31.7293 -31.7293
   -31.7013 -31.7011 -31.6905 -31.6905 -31.6882 -31.6880 -31.6862 -31.6860
    -8.4641  -8.4640  -8.0666  -8.0665   3.7637   3.7637   4.1361   4.1362
     5.7606   5.7606   6.6655   6.6657   6.7906   6.7907   6.9398   6.9398

          k =-0.5000 0.2509-0.5000 (  5180 PWs)   bands (ev):

   -64.9381 -64.9381 -64.9381 -64.9371 -31.7397 -31.7395 -31.7395 -31.7395
   -31.6917 -31.6915 -31.6915 -31.6913 -31.6858 -31.6856 -31.6855 -31.6855
    -8.2363  -8.2361  -8.2361  -8.2361   3.5851   3.5852   3.5853   3.5853
     6.4528   6.4528   6.4530   6.4531   6.9835   6.9836   6.9836   6.9839

          k =-0.5000-0.5018 0.0000 (  5224 PWs)   bands (ev):

   -64.9381 -64.9381 -64.9381 -64.9371 -31.7271 -31.7269 -31.7268 -31.7267
   -31.7067 -31.7065 -31.7065 -31.7063 -31.6857 -31.6855 -31.6854 -31.6854
    -8.2714  -8.2713  -8.2710  -8.2709   4.2250   4.2250   4.2255   4.2256
     5.6983   5.6984   5.6992   5.6992   6.9874   6.9875   6.9878   6.9880

          k =-0.5000-0.5018 0.2500 (  5176 PWs)   bands (ev):

   -64.9381 -64.9381 -64.9381 -64.9371 -31.7395 -31.7392 -31.7392 -31.7392
   -31.6932 -31.6930 -31.6930 -31.6928 -31.6844 -31.6842 -31.6841 -31.6841
    -8.2351  -8.2350  -8.2348  -8.2347   3.5805   3.5806   3.5809   3.5810
     6.4485   6.4485   6.4490   6.4491   6.9886   6.9888   6.9889   6.9891

          k =-0.5000-0.5018-0.5000 (  5232 PWs)   bands (ev):

   -64.9381 -64.9381 -64.9381 -64.9371 -31.7486 -31.7484 -31.7484 -31.7484
   -31.6866 -31.6864 -31.6863 -31.6863 -31.6848 -31.6846 -31.6846 -31.6844
    -8.1983  -8.1982  -8.1981  -8.1981   3.1626   3.1627   3.1627   3.1627
     6.9842   6.9843   6.9843   6.9845   6.9910   6.9910   6.9912   6.9912

          k = 0.0000 0.2509-0.2500 (  5183 PWs)   bands (ev):

   -64.9424 -64.9369 -64.9365 -64.9355 -31.7293 -31.7284 -31.7280 -31.7154
   -31.7038 -31.7032 -31.7014 -31.6961 -31.6961 -31.6946 -31.6857 -31.6783
    -9.0212  -8.1342  -8.1277  -7.9626   4.0987   4.1015   4.2661   5.0056
     5.7663   5.9771   5.9940   6.4024   6.4084   6.5123   7.0957   7.4228

          k =-0.2500 0.2509-0.2500 (  5178 PWs)   bands (ev):

   -64.9414 -64.9369 -64.9369 -64.9361 -31.7334 -31.7332 -31.7322 -31.7148
   -31.7024 -31.7023 -31.7020 -31.6939 -31.6925 -31.6925 -31.6823 -31.6802
    -8.8544  -8.1014  -8.1012  -8.0966   3.9399   3.9412   3.9413   5.0175
     5.7741   5.7742   5.7796   6.6228   6.6328   6.6330   7.2739   7.2752

          k = 0.5000 0.2509-0.2500 (  5170 PWs)   bands (ev):

   -64.9393 -64.9389 -64.9369 -64.9363 -31.7361 -31.7360 -31.7293 -31.7293
   -31.7013 -31.7011 -31.6905 -31.6905 -31.6882 -31.6880 -31.6862 -31.6860
    -8.4641  -8.4640  -8.0666  -8.0665   3.7637   3.7637   4.1361   4.1362
     5.7606   5.7606   6.6655   6.6657   6.7906   6.7907   6.9398   6.9398

     highest occupied level (ev):     7.5908

!    total energy              =    -608.39247772 Ry
     Harris-Foulkes estimate   =    -608.39247772 Ry
     estimated scf accuracy    <          1.5E-10 Ry

     The total energy is the sum of the following terms:

     one-electron contribution =    -304.93894150 Ry
     hartree contribution      =     168.52864862 Ry
     xc contribution           =     -97.81727380 Ry
     ewald contribution        =    -374.16491104 Ry

     convergence has been achieved in   5 iterations

     Forces acting on atoms (cartesian axes, Ry/au):

     atom    1 type  1   force =     0.00000000   -0.00001360   -0.00000012
     atom    2 type  1   force =     0.00000000   -0.00005965    0.00000041
     atom    3 type  1   force =     0.00000000    0.00007854    0.00000040
     atom    4 type  1   force =     0.00000000   -0.00005978   -0.00000050
     atom    5 type  2   force =     0.00000000   -0.00016594    0.00000044
     atom    6 type  2   force =     0.00000000    0.00018710    0.00000044
     atom    7 type  2   force =     0.00000000   -0.00016669   -0.00000050
     atom    8 type  2   force =     0.00000000    0.00020000   -0.00000057

     Total force =     0.000379     Total SCF correction =     0.000117
     SCF correction compared to forces is large: reduce conv_thr to get better values


     Computing stress (Cartesian axis) and pressure

          total   stress  (Ry/bohr**3)                   (kbar)     P=  -78.31
  -0.00054626   0.00000000   0.00000000        -80.36      0.00      0.00
   0.00000000  -0.00050431   0.00000000          0.00    -74.19      0.00
   0.00000000   0.00000000  -0.00054648          0.00      0.00    -80.39


     number of scf cycles    =   4
     number of bfgs steps    =   3

     energy   old            =    -608.3924690803 Ry
     energy   new            =    -608.3924777193 Ry

     CASE: energy  _new < energy  _old

     new trust radius        =       0.0003427776 bohr
     new conv_thr            =            1.0E-10 Ry


ATOMIC_POSITIONS (alat)
Mg       0.000000000   0.000811471  -0.000002855
Mg       0.000000000   0.499173061   0.500002877
Mg       0.500000000   0.000851596   0.500002887
Mg       0.500000000   0.499172993  -0.000002951
O        0.500000000   0.000905273  -0.000003189
O        0.000000000   0.499090770  -0.000003187
O        0.000000000   0.000905721   0.500003198
O        0.500000000   0.499089116   0.500003221



     Writing output data file diamond.8.07347780225.70.4.save
     NEW-OLD atomic charge density approx. for the potential

     Check: negative/imaginary core charge=   -0.000007    0.000000

     total cpu time spent up to now is       36.0 secs

     per-process dynamical memory:    51.9 Mb

     Self-consistent Calculation

     iteration #  1     ecut=    70.00 Ry     beta=0.70
     Davidson diagonalization with overlap
     ethr =  1.00E-06,  avg # of iterations =  2.0

     Threshold (ethr) on eigenvalues was too large:
     Diagonalizing with lowered threshold

     Davidson diagonalization with overlap
     ethr =  6.65E-11,  avg # of iterations =  3.0

     total cpu time spent up to now is       38.8 secs

     total energy              =    -608.39247782 Ry
     Harris-Foulkes estimate   =    -608.39247791 Ry
     estimated scf accuracy    <       0.00000011 Ry

     iteration #  2     ecut=    70.00 Ry     beta=0.70
     Davidson diagonalization with overlap
     ethr =  1.78E-10,  avg # of iterations =  2.2

     total cpu time spent up to now is       40.1 secs

     total energy              =    -608.39247786 Ry
     Harris-Foulkes estimate   =    -608.39247787 Ry
     estimated scf accuracy    <       0.00000002 Ry

     iteration #  3     ecut=    70.00 Ry     beta=0.70
     Davidson diagonalization with overlap
     ethr =  3.07E-11,  avg # of iterations =  2.0

     total cpu time spent up to now is       41.3 secs

     total energy              =    -608.39247786 Ry
     Harris-Foulkes estimate   =    -608.39247786 Ry
     estimated scf accuracy    <          1.7E-10 Ry

     iteration #  4     ecut=    70.00 Ry     beta=0.70
     Davidson diagonalization with overlap
     ethr =  2.72E-13,  avg # of iterations =  3.0

     total cpu time spent up to now is       42.8 secs

     total energy              =    -608.39247786 Ry
     Harris-Foulkes estimate   =    -608.39247786 Ry
     estimated scf accuracy    <          1.3E-10 Ry

     iteration #  5     ecut=    70.00 Ry     beta=0.70
     Davidson diagonalization with overlap
     ethr =  2.07E-13,  avg # of iterations =  3.0

     total cpu time spent up to now is       44.1 secs

     End of self-consistent calculation

          k = 0.0000 0.0000 0.0000 (  5169 PWs)   bands (ev):

   -64.9449 -64.9358 -64.9357 -64.9350 -31.7389 -31.7389 -31.7371 -31.7030
   -31.7030 -31.7021 -31.7021 -31.7008 -31.7007 -31.6760 -31.6760 -31.6720
    -9.4151  -7.9869  -7.9868  -7.9777   3.6978   3.6978   3.7094   6.2959
     6.2960   6.2988   6.2992   6.3212   6.3212   7.5826   7.5908   7.5908

          k = 0.0000 0.0000 0.2500 (  5190 PWs)   bands (ev):

   -64.9435 -64.9370 -64.9357 -64.9351 -31.7331 -31.7307 -31.7306 -31.7084
   -31.7056 -31.7034 -31.7029 -31.6986 -31.6965 -31.6893 -31.6813 -31.6794
    -9.2101  -8.1987  -7.9581  -7.9515   3.9860   3.9968   4.0317   5.7790
     5.7848   6.0933   6.1106   6.4607   6.4814   6.5791   7.3620   7.3732

          k = 0.0000 0.0000-0.5000 (  5182 PWs)   bands (ev):

   -64.9405 -64.9400 -64.9357 -64.9352 -31.7206 -31.7203 -31.7168 -31.7165
   -31.7108 -31.7108 -31.7041 -31.7040 -31.6899 -31.6897 -31.6882 -31.6880
    -8.7080  -8.7079  -7.9272  -7.9271   4.7778   4.7778   4.7873   4.7873
     5.0528   5.0530   5.9063   5.9066   6.8836   6.8836   6.9002   6.9002

          k = 0.0000 0.2509 0.0000 (  5185 PWs)   bands (ev):

   -64.9435 -64.9369 -64.9358 -64.9352 -31.7330 -31.7330 -31.7273 -31.7078
   -31.7078 -31.7015 -31.7015 -31.6993 -31.6993 -31.6858 -31.6813 -31.6813
    -9.2081  -8.1898  -7.9584  -7.9583   3.9884   3.9884   4.0384   5.7984
     5.7984   6.0876   6.0880   6.4589   6.4590   6.5721   7.3684   7.3685

          k = 0.0000 0.2509 0.2500 (  5183 PWs)   bands (ev):

   -64.9423 -64.9369 -64.9365 -64.9355 -31.7293 -31.7284 -31.7280 -31.7154
   -31.7038 -31.7032 -31.7014 -31.6961 -31.6961 -31.6946 -31.6857 -31.6783
    -9.0212  -8.1342  -8.1277  -7.9626   4.0987   4.1015   4.2661   5.0056
     5.7663   5.9771   5.9940   6.4024   6.4084   6.5123   7.0957   7.4228

          k = 0.0000 0.2509-0.5000 (  5184 PWs)   bands (ev):

   -64.9398 -64.9393 -64.9364 -64.9358 -31.7250 -31.7249 -31.7185 -31.7185
   -31.7163 -31.7161 -31.6949 -31.6947 -31.6933 -31.6932 -31.6840 -31.6838
    -8.5727  -8.5726  -8.0161  -8.0160   4.3548   4.3548   4.6808   4.6810
     5.0274   5.0274   6.4792   6.4795   6.5073   6.5074   7.0122   7.0122

          k = 0.0000-0.5018 0.0000 (  5190 PWs)   bands (ev):

   -64.9404 -64.9399 -64.9358 -64.9352 -31.7211 -31.7211 -31.7209 -31.7209
   -31.7090 -31.7089 -31.6996 -31.6995 -31.6903 -31.6903 -31.6900 -31.6900
    -8.7018  -8.7017  -7.9296  -7.9295   4.7867   4.7867   4.7869   4.7869
     5.0494   5.0497   5.8889   5.8892   6.8855   6.8855   6.8856   6.8856

          k = 0.0000-0.5018 0.2500 (  5188 PWs)   bands (ev):

   -64.9397 -64.9393 -64.9365 -64.9359 -31.7255 -31.7254 -31.7179 -31.7179
   -31.7161 -31.7159 -31.6955 -31.6952 -31.6922 -31.6921 -31.6854 -31.6852
    -8.5686  -8.5685  -8.0183  -8.0182   4.3545   4.3547   4.6780   4.6783
     5.0344   5.0346   6.4688   6.4690   6.4976   6.4976   7.0159   7.0160

          k = 0.0000-0.5018-0.5000 (  5224 PWs)   bands (ev):

   -64.9381 -64.9381 -64.9381 -64.9371 -31.7271 -31.7269 -31.7268 -31.7267
   -31.7067 -31.7065 -31.7065 -31.7062 -31.6857 -31.6855 -31.6854 -31.6854
    -8.2713  -8.2711  -8.2711  -8.2711   4.2251   4.2252   4.2254   4.2255
     5.6985   5.6986   5.6989   5.6989   6.9875   6.9877   6.9877   6.9878

          k = 0.2500 0.0000 0.0000 (  5190 PWs)   bands (ev):

   -64.9435 -64.9370 -64.9357 -64.9351 -31.7331 -31.7307 -31.7306 -31.7084
   -31.7056 -31.7034 -31.7029 -31.6987 -31.6965 -31.6893 -31.6813 -31.6794
    -9.2101  -8.1986  -7.9581  -7.9515   3.9859   3.9968   4.0317   5.7790
     5.7848   6.0932   6.1106   6.4606   6.4814   6.5790   7.3620   7.3732

          k = 0.2500 0.0000 0.2500 (  5179 PWs)   bands (ev):

   -64.9424 -64.9369 -64.9366 -64.9355 -31.7294 -31.7293 -31.7263 -31.7166
   -31.7021 -31.7017 -31.7017 -31.6977 -31.6961 -31.6960 -31.6832 -31.6791
    -9.0230  -8.1345  -8.1344  -7.9582   4.1009   4.1010   4.2741   5.0055
     5.7768   5.9803   5.9806   6.4189   6.4190   6.5006   7.0880   7.4245

          k = 0.2500 0.0000-0.5000 (  5190 PWs)   bands (ev):

   -64.9398 -64.9393 -64.9364 -64.9358 -31.7263 -31.7261 -31.7193 -31.7193
   -31.7141 -31.7139 -31.6941 -31.6940 -31.6928 -31.6926 -31.6859 -31.6858
    -8.5738  -8.5737  -8.0174  -8.0173   4.3597   4.3598   4.6891   4.6893
     5.0334   5.0334   6.4714   6.4717   6.4963   6.4963   7.0183   7.0184

          k = 0.2500 0.2509 0.0000 (  5183 PWs)   bands (ev):

   -64.9423 -64.9369 -64.9365 -64.9355 -31.7293 -31.7284 -31.7280 -31.7154
   -31.7038 -31.7032 -31.7014 -31.6961 -31.6961 -31.6946 -31.6857 -31.6783
    -9.0212  -8.1342  -8.1277  -7.9627   4.0987   4.1015   4.2661   5.0056
     5.7662   5.9771   5.9940   6.4024   6.4084   6.5123   7.0957   7.4228

          k = 0.2500 0.2509 0.2500 (  5178 PWs)   bands (ev):

   -64.9414 -64.9369 -64.9369 -64.9361 -31.7334 -31.7332 -31.7322 -31.7148
   -31.7024 -31.7023 -31.7020 -31.6939 -31.6925 -31.6925 -31.6823 -31.6802
    -8.8544  -8.1013  -8.1013  -8.0966   3.9399   3.9412   3.9413   5.0175
     5.7741   5.7742   5.7796   6.6228   6.6328   6.6330   7.2739   7.2752

          k = 0.2500 0.2509-0.5000 (  5170 PWs)   bands (ev):

   -64.9393 -64.9389 -64.9369 -64.9363 -31.7361 -31.7360 -31.7293 -31.7293
   -31.7013 -31.7011 -31.6905 -31.6905 -31.6882 -31.6880 -31.6862 -31.6860
    -8.4641  -8.4640  -8.0666  -8.0665   3.7637   3.7637   4.1361   4.1362
     5.7606   5.7606   6.6655   6.6657   6.7905   6.7907   6.9398   6.9398

          k = 0.2500-0.5018 0.0000 (  5188 PWs)   bands (ev):

   -64.9397 -64.9393 -64.9365 -64.9359 -31.7255 -31.7254 -31.7179 -31.7179
   -31.7161 -31.7159 -31.6955 -31.6952 -31.6922 -31.6921 -31.6854 -31.6852
    -8.5686  -8.5685  -8.0183  -8.0182   4.3545   4.3547   4.6780   4.6783
     5.0344   5.0346   6.4688   6.4690   6.4976   6.4977   7.0158   7.0159

          k = 0.2500-0.5018 0.2500 (  5168 PWs)   bands (ev):

   -64.9392 -64.9388 -64.9369 -64.9363 -31.7362 -31.7360 -31.7289 -31.7288
   -31.7023 -31.7021 -31.6890 -31.6890 -31.6884 -31.6881 -31.6868 -31.6867
    -8.4608  -8.4607  -8.0678  -8.0677   3.7629   3.7629   4.1305   4.1307
     5.7611   5.7612   6.6626   6.6628   6.7955   6.7957   6.9339   6.9339

          k = 0.2500-0.5018-0.5000 (  5176 PWs)   bands (ev):

   -64.9381 -64.9381 -64.9381 -64.9371 -31.7395 -31.7392 -31.7392 -31.7392
   -31.6932 -31.6930 -31.6930 -31.6928 -31.6844 -31.6842 -31.6841 -31.6841
    -8.2350  -8.2349  -8.2349  -8.2348   3.5807   3.5808   3.5808   3.5809
     6.4486   6.4487   6.4489   6.4489   6.9887   6.9888   6.9888   6.9890

          k =-0.5000 0.0000 0.0000 (  5182 PWs)   bands (ev):

   -64.9405 -64.9400 -64.9357 -64.9352 -31.7206 -31.7203 -31.7167 -31.7165
   -31.7108 -31.7108 -31.7041 -31.7040 -31.6899 -31.6897 -31.6882 -31.6880
    -8.7080  -8.7079  -7.9272  -7.9271   4.7778   4.7778   4.7873   4.7873
     5.0527   5.0530   5.9062   5.9066   6.8835   6.8836   6.9002   6.9002

          k =-0.5000 0.0000 0.2500 (  5190 PWs)   bands (ev):

   -64.9398 -64.9393 -64.9364 -64.9358 -31.7263 -31.7261 -31.7193 -31.7192
   -31.7141 -31.7139 -31.6941 -31.6940 -31.6928 -31.6926 -31.6859 -31.6858
    -8.5738  -8.5737  -8.0174  -8.0173   4.3597   4.3598   4.6891   4.6893
     5.0334   5.0334   6.4714   6.4716   6.4962   6.4963   7.0183   7.0184

          k =-0.5000 0.0000-0.5000 (  5232 PWs)   bands (ev):

   -64.9381 -64.9381 -64.9381 -64.9371 -31.7281 -31.7279 -31.7277 -31.7277
   -31.7047 -31.7045 -31.7045 -31.7042 -31.6869 -31.6867 -31.6866 -31.6866
    -8.2737  -8.2736  -8.2736  -8.2736   4.2385   4.2386   4.2386   4.2388
     5.6971   5.6971   5.6974   5.6974   6.9824   6.9825   6.9825   6.9827

          k =-0.5000 0.2509 0.0000 (  5184 PWs)   bands (ev):

   -64.9398 -64.9393 -64.9364 -64.9358 -31.7250 -31.7249 -31.7185 -31.7185
   -31.7163 -31.7161 -31.6949 -31.6947 -31.6933 -31.6932 -31.6840 -31.6838
[...]
    -8.8544  -8.1013  -8.1013  -8.0966   3.9399   3.9412   3.9413   5.0175
     5.7741   5.7742   5.7796   6.6228   6.6328   6.6330   7.2739   7.2752

          k = 0.5000 0.2509-0.2500 (  5170 PWs)   bands (ev):

   -64.9393 -64.9389 -64.9369 -64.9363 -31.7361 -31.7360 -31.7293 -31.7293
   -31.7013 -31.7011 -31.6905 -31.6905 -31.6882 -31.6880 -31.6862 -31.6860
    -8.4641  -8.4640  -8.0666  -8.0665   3.7637   3.7637   4.1361   4.1362
     5.7606   5.7606   6.6655   6.6657   6.7906   6.7907   6.9398   6.9398

     highest occupied level (ev):     7.5908

!    total energy              =    -608.39247786 Ry
     Harris-Foulkes estimate   =    -608.39247786 Ry
     estimated scf accuracy    <          5.6E-12 Ry

     The total energy is the sum of the following terms:

     one-electron contribution =    -304.93896590 Ry
     hartree contribution      =     168.52867235 Ry
     xc contribution           =     -97.81728003 Ry
     ewald contribution        =    -374.16490429 Ry

     convergence has been achieved in   5 iterations

     Forces acting on atoms (cartesian axes, Ry/au):

     atom    1 type  1   force =     0.00000000    0.00002464   -0.00000020
     atom    2 type  1   force =     0.00000000   -0.00008426    0.00000044
     atom    3 type  1   force =     0.00000000    0.00010115    0.00000044
     atom    4 type  1   force =     0.00000000   -0.00008430   -0.00000053
     atom    5 type  2   force =     0.00000000   -0.00006474    0.00000014
     atom    6 type  2   force =     0.00000000    0.00007937    0.00000013
     atom    7 type  2   force =     0.00000000   -0.00006537   -0.00000018
     atom    8 type  2   force =     0.00000000    0.00009349   -0.00000023

     Total force =     0.000220     Total SCF correction =     0.000014


     Computing stress (Cartesian axis) and pressure

          total   stress  (Ry/bohr**3)                   (kbar)     P=  -78.31
  -0.00054623   0.00000000   0.00000000        -80.35      0.00      0.00
   0.00000000  -0.00050428   0.00000000          0.00    -74.18      0.00
   0.00000000   0.00000000  -0.00054645          0.00      0.00    -80.39


     number of scf cycles    =   5
     number of bfgs steps    =   4

     energy   old            =    -608.3924777193 Ry
     energy   new            =    -608.3924778635 Ry

     CASE: energy  _new < energy  _old

     new trust radius        =       0.0002149543 bohr
     new conv_thr            =            1.0E-10 Ry


ATOMIC_POSITIONS (alat)
Mg       0.000000000   0.000811144  -0.000002878
Mg       0.000000000   0.499160612   0.500002952
Mg       0.500000000   0.000867502   0.500002961
Mg       0.500000000   0.499160534  -0.000003045
O        0.500000000   0.000884845  -0.000003138
O        0.000000000   0.499114461  -0.000003137
O        0.000000000   0.000885162   0.500003137
O        0.500000000   0.499115741   0.500003147



     Writing output data file diamond.8.07347780225.70.4.save
     NEW-OLD atomic charge density approx. for the potential

     Check: negative/imaginary core charge=   -0.000007    0.000000

     total cpu time spent up to now is       44.9 secs

     per-process dynamical memory:    51.9 Mb

     Self-consistent Calculation

     iteration #  1     ecut=    70.00 Ry     beta=0.70
     Davidson diagonalization with overlap
     ethr =  1.00E-06,  avg # of iterations =  1.4

     Threshold (ethr) on eigenvalues was too large:
     Diagonalizing with lowered threshold

     Davidson diagonalization with overlap
     ethr =  3.06E-11,  avg # of iterations =  3.7

     total cpu time spent up to now is       47.8 secs

     total energy              =    -608.39247791 Ry
     Harris-Foulkes estimate   =    -608.39247793 Ry
     estimated scf accuracy    <       0.00000003 Ry

     iteration #  2     ecut=    70.00 Ry     beta=0.70
     Davidson diagonalization with overlap
     ethr =  4.00E-11,  avg # of iterations =  2.1

     total cpu time spent up to now is       49.0 secs

     total energy              =    -608.39247792 Ry
     Harris-Foulkes estimate   =    -608.39247792 Ry
     estimated scf accuracy    <          4.2E-09 Ry

     iteration #  3     ecut=    70.00 Ry     beta=0.70
     Davidson diagonalization with overlap
     ethr =  6.58E-12,  avg # of iterations =  2.0

     total cpu time spent up to now is       50.2 secs

     End of self-consistent calculation

          k = 0.0000 0.0000 0.0000 (  5169 PWs)   bands (ev):

   -64.9449 -64.9358 -64.9357 -64.9350 -31.7389 -31.7389 -31.7371 -31.7030
   -31.7030 -31.7021 -31.7021 -31.7008 -31.7007 -31.6760 -31.6760 -31.6720
    -9.4151  -7.9869  -7.9868  -7.9777   3.6978   3.6978   3.7094   6.2959
     6.2960   6.2988   6.2992   6.3212   6.3212   7.5826   7.5907   7.5908

          k = 0.0000 0.0000 0.2500 (  5190 PWs)   bands (ev):

   -64.9435 -64.9370 -64.9357 -64.9351 -31.7331 -31.7307 -31.7306 -31.7084
   -31.7056 -31.7034 -31.7029 -31.6986 -31.6965 -31.6893 -31.6813 -31.6794
    -9.2101  -8.1987  -7.9581  -7.9515   3.9860   3.9968   4.0317   5.7790
     5.7848   6.0933   6.1106   6.4607   6.4814   6.5791   7.3620   7.3732

          k = 0.0000 0.0000-0.5000 (  5182 PWs)   bands (ev):

   -64.9405 -64.9400 -64.9357 -64.9352 -31.7206 -31.7203 -31.7168 -31.7165
   -31.7108 -31.7108 -31.7041 -31.7040 -31.6899 -31.6897 -31.6882 -31.6880
    -8.7080  -8.7079  -7.9271  -7.9271   4.7778   4.7778   4.7873   4.7873
     5.0528   5.0530   5.9063   5.9066   6.8836   6.8836   6.9002   6.9002

          k = 0.0000 0.2509 0.0000 (  5185 PWs)   bands (ev):

   -64.9435 -64.9369 -64.9358 -64.9352 -31.7330 -31.7330 -31.7273 -31.7078
   -31.7078 -31.7015 -31.7015 -31.6993 -31.6993 -31.6858 -31.6813 -31.6813
    -9.2081  -8.1898  -7.9584  -7.9583   3.9884   3.9884   4.0384   5.7984
     5.7984   6.0876   6.0880   6.4589   6.4590   6.5721   7.3684   7.3685

          k = 0.0000 0.2509 0.2500 (  5183 PWs)   bands (ev):

   -64.9423 -64.9369 -64.9365 -64.9355 -31.7293 -31.7284 -31.7280 -31.7154
   -31.7038 -31.7032 -31.7014 -31.6961 -31.6961 -31.6946 -31.6857 -31.6783
    -9.0212  -8.1342  -8.1277  -7.9626   4.0987   4.1015   4.2661   5.0056
     5.7663   5.9771   5.9940   6.4024   6.4084   6.5123   7.0957   7.4228

          k = 0.0000 0.2509-0.5000 (  5184 PWs)   bands (ev):

   -64.9398 -64.9393 -64.9364 -64.9358 -31.7250 -31.7249 -31.7185 -31.7185
   -31.7163 -31.7161 -31.6949 -31.6947 -31.6933 -31.6932 -31.6840 -31.6838
    -8.5727  -8.5726  -8.0161  -8.0160   4.3548   4.3548   4.6808   4.6810
     5.0274   5.0274   6.4792   6.4795   6.5074   6.5074   7.0122   7.0122

          k = 0.0000-0.5018 0.0000 (  5190 PWs)   bands (ev):

   -64.9404 -64.9399 -64.9358 -64.9352 -31.7211 -31.7211 -31.7209 -31.7209
   -31.7090 -31.7089 -31.6996 -31.6995 -31.6903 -31.6903 -31.6900 -31.6900
    -8.7020  -8.7016  -7.9296  -7.9295   4.7864   4.7865   4.7871   4.7872
     5.0493   5.0497   5.8888   5.8892   6.8853   6.8854   6.8857   6.8857

          k = 0.0000-0.5018 0.2500 (  5188 PWs)   bands (ev):

   -64.9397 -64.9393 -64.9365 -64.9359 -31.7255 -31.7254 -31.7179 -31.7179
   -31.7161 -31.7159 -31.6955 -31.6952 -31.6922 -31.6921 -31.6854 -31.6852
    -8.5687  -8.5684  -8.0183  -8.0182   4.3544   4.3548   4.6780   4.6783
     5.0341   5.0348   6.4687   6.4690   6.4974   6.4978   7.0158   7.0160

          k = 0.0000-0.5018-0.5000 (  5224 PWs)   bands (ev):

   -64.9381 -64.9381 -64.9381 -64.9371 -31.7271 -31.7269 -31.7268 -31.7267
   -31.7067 -31.7065 -31.7065 -31.7062 -31.6857 -31.6855 -31.6854 -31.6854
    -8.2713  -8.2712  -8.2711  -8.2710   4.2252   4.2253   4.2253   4.2255
     5.6984   5.6984   5.6991   5.6991   6.9875   6.9876   6.9877   6.9879

          k = 0.2500 0.0000 0.0000 (  5190 PWs)   bands (ev):

   -64.9435 -64.9370 -64.9357 -64.9351 -31.7331 -31.7307 -31.7306 -31.7084
   -31.7056 -31.7034 -31.7029 -31.6987 -31.6965 -31.6893 -31.6813 -31.6794
    -9.2101  -8.1986  -7.9581  -7.9515   3.9859   3.9968   4.0317   5.7790
     5.7848   6.0932   6.1106   6.4606   6.4814   6.5790   7.3620   7.3732

          k = 0.2500 0.0000 0.2500 (  5179 PWs)   bands (ev):

   -64.9424 -64.9369 -64.9366 -64.9355 -31.7294 -31.7293 -31.7263 -31.7166
   -31.7021 -31.7017 -31.7017 -31.6977 -31.6961 -31.6960 -31.6832 -31.6791
    -9.0230  -8.1345  -8.1344  -7.9582   4.1009   4.1010   4.2741   5.0055
     5.7768   5.9803   5.9806   6.4189   6.4190   6.5006   7.0880   7.4245

          k = 0.2500 0.0000-0.5000 (  5190 PWs)   bands (ev):

   -64.9398 -64.9393 -64.9364 -64.9358 -31.7263 -31.7261 -31.7193 -31.7193
   -31.7141 -31.7139 -31.6941 -31.6940 -31.6928 -31.6926 -31.6859 -31.6858
    -8.5738  -8.5737  -8.0174  -8.0173   4.3597   4.3598   4.6891   4.6893
     5.0334   5.0334   6.4714   6.4717   6.4963   6.4963   7.0183   7.0184

          k = 0.2500 0.2509 0.0000 (  5183 PWs)   bands (ev):

   -64.9423 -64.9369 -64.9365 -64.9355 -31.7293 -31.7284 -31.7280 -31.7154
   -31.7038 -31.7032 -31.7014 -31.6961 -31.6961 -31.6946 -31.6857 -31.6783
    -9.0212  -8.1342  -8.1277  -7.9627   4.0987   4.1015   4.2661   5.0056
     5.7662   5.9771   5.9940   6.4024   6.4083   6.5123   7.0957   7.4228

          k = 0.2500 0.2509 0.2500 (  5178 PWs)   bands (ev):

   -64.9414 -64.9369 -64.9369 -64.9361 -31.7334 -31.7332 -31.7322 -31.7148
   -31.7024 -31.7023 -31.7020 -31.6939 -31.6925 -31.6925 -31.6823 -31.6802
    -8.8544  -8.1014  -8.1013  -8.0966   3.9399   3.9412   3.9413   5.0175
     5.7741   5.7742   5.7796   6.6228   6.6328   6.6330   7.2739   7.2752

          k = 0.2500 0.2509-0.5000 (  5170 PWs)   bands (ev):

   -64.9393 -64.9389 -64.9369 -64.9363 -31.7361 -31.7360 -31.7293 -31.7293
   -31.7013 -31.7011 -31.6905 -31.6905 -31.6882 -31.6880 -31.6862 -31.6860
    -8.4641  -8.4640  -8.0666  -8.0665   3.7637   3.7637   4.1361   4.1362
     5.7606   5.7606   6.6655   6.6657   6.7905   6.7907   6.9398   6.9398

          k = 0.2500-0.5018 0.0000 (  5188 PWs)   bands (ev):

   -64.9397 -64.9393 -64.9365 -64.9359 -31.7255 -31.7254 -31.7179 -31.7179
   -31.7161 -31.7159 -31.6955 -31.6952 -31.6922 -31.6921 -31.6854 -31.6852
    -8.5687  -8.5684  -8.0183  -8.0182   4.3544   4.3547   4.6780   4.6782
     5.0341   5.0348   6.4687   6.4691   6.4974   6.4979   7.0158   7.0160

          k = 0.2500-0.5018 0.2500 (  5168 PWs)   bands (ev):

   -64.9392 -64.9388 -64.9369 -64.9363 -31.7362 -31.7360 -31.7289 -31.7288
   -31.7023 -31.7021 -31.6890 -31.6890 -31.6884 -31.6881 -31.6868 -31.6867
    -8.4609  -8.4606  -8.0678  -8.0677   3.7629   3.7629   4.1305   4.1307
     5.7611   5.7612   6.6626   6.6629   6.7955   6.7957   6.9338   6.9340

          k = 0.2500-0.5018-0.5000 (  5176 PWs)   bands (ev):

   -64.9381 -64.9381 -64.9381 -64.9371 -31.7395 -31.7392 -31.7392 -31.7392
   -31.6932 -31.6930 -31.6930 -31.6928 -31.6844 -31.6842 -31.6841 -31.6841
    -8.2351  -8.2349  -8.2348  -8.2348   3.5807   3.5808   3.5808   3.5809
     6.4486   6.4486   6.4490   6.4490   6.9887   6.9888   6.9888   6.9890

          k =-0.5000 0.0000 0.0000 (  5182 PWs)   bands (ev):

   -64.9405 -64.9400 -64.9357 -64.9352 -31.7206 -31.7203 -31.7167 -31.7165
   -31.7108 -31.7108 -31.7041 -31.7040 -31.6899 -31.6897 -31.6882 -31.6880
    -8.7080  -8.7079  -7.9272  -7.9271   4.7778   4.7778   4.7873   4.7874
     5.0527   5.0530   5.9062   5.9066   6.8835   6.8836   6.9002   6.9002

          k =-0.5000 0.0000 0.2500 (  5190 PWs)   bands (ev):

   -64.9398 -64.9393 -64.9364 -64.9358 -31.7263 -31.7261 -31.7193 -31.7192
   -31.7141 -31.7139 -31.6941 -31.6940 -31.6928 -31.6926 -31.6859 -31.6858
    -8.5738  -8.5737  -8.0174  -8.0173   4.3597   4.3598   4.6891   4.6893
     5.0334   5.0334   6.4714   6.4716   6.4962   6.4963   7.0183   7.0184

          k =-0.5000 0.0000-0.5000 (  5232 PWs)   bands (ev):

   -64.9381 -64.9381 -64.9381 -64.9371 -31.7281 -31.7279 -31.7277 -31.7277
   -31.7047 -31.7045 -31.7045 -31.7042 -31.6869 -31.6867 -31.6866 -31.6866
    -8.2738  -8.2736  -8.2736  -8.2736   4.2385   4.2386   4.2386   4.2388
     5.6970   5.6971   5.6974   5.6974   6.9824   6.9825   6.9825   6.9827

          k =-0.5000 0.2509 0.0000 (  5184 PWs)   bands (ev):

   -64.9398 -64.9393 -64.9364 -64.9358 -31.7250 -31.7249 -31.7185 -31.7185
   -31.7163 -31.7161 -31.6949 -31.6947 -31.6933 -31.6932 -31.6840 -31.6838
    -8.5727  -8.5726  -8.0161  -8.0160   4.3547   4.3548   4.6807   4.6810
     5.0274   5.0274   6.4792   6.4795   6.5074   6.5074   7.0121   7.0122

          k =-0.5000 0.2509 0.2500 (  5170 PWs)   bands (ev):

   -64.9393 -64.9389 -64.9369 -64.9363 -31.7361 -31.7360 -31.7293 -31.7293
   -31.7013 -31.7011 -31.6905 -31.6905 -31.6882 -31.6880 -31.6862 -31.6860
    -8.4641  -8.4640  -8.0666  -8.0665   3.7637   3.7637   4.1361   4.1362
     5.7606   5.7606   6.6655   6.6657   6.7906   6.7907   6.9398   6.9398

          k =-0.5000 0.2509-0.5000 (  5180 PWs)   bands (ev):

   -64.9381 -64.9381 -64.9381 -64.9371 -31.7397 -31.7395 -31.7395 -31.7395
   -31.6917 -31.6915 -31.6914 -31.6913 -31.6858 -31.6856 -31.6855 -31.6855
    -8.2363  -8.2361  -8.2361  -8.2361   3.5851   3.5852   3.5853   3.5853
     6.4528   6.4528   6.4530   6.4531   6.9835   6.9836   6.9836   6.9838

          k =-0.5000-0.5018 0.0000 (  5224 PWs)   bands (ev):

   -64.9381 -64.9381 -64.9381 -64.9371 -31.7271 -31.7269 -31.7268 -31.7267
   -31.7067 -31.7065 -31.7065 -31.7062 -31.6857 -31.6855 -31.6854 -31.6854
    -8.2713  -8.2712  -8.2711  -8.2710   4.2252   4.2252   4.2252   4.2254
     5.6984   5.6984   5.6991   5.6991   6.9875   6.9877   6.9877   6.9879

          k =-0.5000-0.5018 0.2500 (  5176 PWs)   bands (ev):

   -64.9381 -64.9381 -64.9381 -64.9371 -31.7395 -31.7392 -31.7392 -31.7392
   -31.6932 -31.6930 -31.6930 -31.6928 -31.6844 -31.6842 -31.6841 -31.6841
    -8.2351  -8.2349  -8.2348  -8.2348   3.5806   3.5808   3.5808   3.5808
     6.4485   6.4486   6.4490   6.4490   6.9887   6.9888   6.9888   6.9890

          k =-0.5000-0.5018-0.5000 (  5232 PWs)   bands (ev):

   -64.9381 -64.9381 -64.9381 -64.9371 -31.7486 -31.7484 -31.7484 -31.7484
   -31.6866 -31.6864 -31.6863 -31.6863 -31.6848 -31.6846 -31.6846 -31.6844
    -8.1983  -8.1982  -8.1982  -8.1981   3.1626   3.1627   3.1627   3.1627
     6.9842   6.9843   6.9843   6.9845   6.9909   6.9910   6.9912   6.9912

          k = 0.0000 0.2509-0.2500 (  5183 PWs)   bands (ev):

   -64.9423 -64.9369 -64.9365 -64.9355 -31.7293 -31.7284 -31.7280 -31.7154
   -31.7038 -31.7032 -31.7014 -31.6961 -31.6961 -31.6946 -31.6857 -31.6783
    -9.0212  -8.1342  -8.1277  -7.9626   4.0987   4.1015   4.2661   5.0056
     5.7663   5.9771   5.9940   6.4024   6.4084   6.5123   7.0957   7.4228

          k =-0.2500 0.2509-0.2500 (  5178 PWs)   bands (ev):

   -64.9414 -64.9369 -64.9369 -64.9361 -31.7334 -31.7332 -31.7322 -31.7148
   -31.7024 -31.7023 -31.7020 -31.6939 -31.6925 -31.6925 -31.6823 -31.6802
    -8.8544  -8.1014  -8.1013  -8.0966   3.9399   3.9412   3.9413   5.0175
     5.7741   5.7742   5.7796   6.6228   6.6328   6.6330   7.2739   7.2752

          k = 0.5000 0.2509-0.2500 (  5170 PWs)   bands (ev):

   -64.9393 -64.9389 -64.9369 -64.9363 -31.7361 -31.7360 -31.7293 -31.7293
   -31.7013 -31.7011 -31.6905 -31.6905 -31.6882 -31.6880 -31.6862 -31.6860
    -8.4641  -8.4640  -8.0666  -8.0665   3.7637   3.7637   4.1361   4.1362
     5.7606   5.7606   6.6655   6.6657   6.7906   6.7907   6.9398   6.9398

     highest occupied level (ev):     7.5908

!    total energy              =    -608.39247792 Ry
     Harris-Foulkes estimate   =    -608.39247792 Ry
     estimated scf accuracy    <          2.9E-11 Ry

     The total energy is the sum of the following terms:

     one-electron contribution =    -304.93897134 Ry
     hartree contribution      =     168.52867593 Ry
     xc contribution           =     -97.81728050 Ry
     ewald contribution        =    -374.16490201 Ry

     convergence has been achieved in   3 iterations

     Forces acting on atoms (cartesian axes, Ry/au):

     atom    1 type  1   force =     0.00000000    0.00002234   -0.00000011
     atom    2 type  1   force =     0.00000000   -0.00006507    0.00000029
     atom    3 type  1   force =     0.00000000    0.00007772    0.00000029
     atom    4 type  1   force =     0.00000000   -0.00006507   -0.00000035
     atom    5 type  2   force =     0.00000000   -0.00000740   -0.00000002
     atom    6 type  2   force =     0.00000000    0.00001545   -0.00000003
     atom    7 type  2   force =     0.00000000   -0.00000927   -0.00000001
     atom    8 type  2   force =     0.00000000    0.00003130   -0.00000006

     Total force =     0.000128     Total SCF correction =     0.000018
     SCF correction compared to forces is large: reduce conv_thr to get better values


     Computing stress (Cartesian axis) and pressure

          total   stress  (Ry/bohr**3)                   (kbar)     P=  -78.31
  -0.00054623   0.00000000   0.00000000        -80.35      0.00      0.00
   0.00000000  -0.00050428   0.00000000          0.00    -74.18      0.00
   0.00000000   0.00000000  -0.00054645          0.00      0.00    -80.39


     bfgs converged in   6 scf cycles and   5 bfgs steps
     (criteria: energy <  1.0E-05 Ry, force <  1.0E-04 Ry/Bohr)

     End of BFGS Geometry Optimization

     Final energy   =    -608.3924779217 Ry
Begin final coordinates

ATOMIC_POSITIONS (alat)
Mg       0.000000000   0.000811144  -0.000002878
Mg       0.000000000   0.499160612   0.500002952
Mg       0.500000000   0.000867502   0.500002961
Mg       0.500000000   0.499160534  -0.000003045
O        0.500000000   0.000884845  -0.000003138
O        0.000000000   0.499114461  -0.000003137
O        0.000000000   0.000885162   0.500003137
O        0.500000000   0.499115741   0.500003147
End final coordinates



     Writing output data file diamond.8.07347780225.70.4.save
 
     init_run     :      0.54s CPU      0.57s WALL (       1 calls)
     electrons    :     44.46s CPU     45.78s WALL (       6 calls)
     update_pot   :      0.58s CPU      0.59s WALL (       5 calls)
     forces       :      1.02s CPU      1.03s WALL (       6 calls)
     stress       :      2.27s CPU      2.29s WALL (       6 calls)

     Called by init_run:
     wfcinit      :      0.42s CPU      0.44s WALL (       1 calls)
     potinit      :      0.05s CPU      0.05s WALL (       1 calls)

     Called by electrons:
     c_bands      :     38.66s CPU     39.87s WALL (      35 calls)
     sum_band     :      5.58s CPU      5.67s WALL (      35 calls)
     v_of_rho     :      0.18s CPU      0.19s WALL (      36 calls)
     mix_rho      :      0.02s CPU      0.03s WALL (      35 calls)

     Called by c_bands:
     init_us_2    :      0.59s CPU      0.63s WALL (    2490 calls)
     cegterg      :     36.01s CPU     37.10s WALL (    1050 calls)

     Called by sum_band:

     Called by *egterg:
     h_psi        :     26.55s CPU     27.18s WALL (    3395 calls)
     g_psi        :      0.20s CPU      0.20s WALL (    2315 calls)
     cdiaghg      :      4.99s CPU      4.99s WALL (    3065 calls)

     Called by h_psi:
     h_psi:pot    :     26.44s CPU     27.03s WALL (    3395 calls)
     h_psi:calbec :      1.51s CPU      1.51s WALL (    3395 calls)
     vloc_psi     :     23.66s CPU     24.23s WALL (    3395 calls)
     add_vuspsi   :      1.27s CPU      1.28s WALL (    3395 calls)

     General routines
     calbec       :      2.00s CPU      2.00s WALL (    4295 calls)
     fft          :      0.16s CPU      0.16s WALL (     555 calls)
     fftw         :     27.01s CPU     26.59s WALL (  208280 calls)
     davcio       :      0.00s CPU      0.01s WALL (      30 calls)
 
     Parallel routines
     fft_scatter  :      7.00s CPU      6.92s WALL (  208835 calls)
 
     PWSCF        :    49.32s CPU        50.87s WALL

 
   This run was terminated on:  14:57:22  22Apr2018            

=------------------------------------------------------------------------------=
   JOB DONE.
=------------------------------------------------------------------------------=
