
     Program PWSCF v.6.1 (svn rev. 13369) starts on 22Apr2018 at 14:54:30 

     This program is part of the open-source Quantum ESPRESSO suite
     for quantum simulation of materials; please cite
         "P. Giannozzi et al., J. Phys.:Condens. Matter 21 395502 (2009);
          URL http://www.quantum-espresso.org", 
     in publications or presentations arising from this work. More details at
     http://www.quantum-espresso.org/quote

     Parallel version (MPI), running on     8 processors
     R & G space division:  proc/nbgrp/npool/nimage =       8
     Waiting for input...
     Reading input from standard input
Warning: card       &CELL ignored
Warning: card       CELL_DYNAMICS = 'BFGS' ignored
Warning: card       PRESS = 0.0D0 ignored
Warning: card       PRESS_CONV_THR = 0.01D0 ignored
Warning: card       / ignored

     Current dimensions of program PWSCF are:
     Max number of different atomic species (ntypx) = 10
     Max number of k-points (npk) =  40000
     Max angular momentum in pseudopotentials (lmaxx) =  3

     Subspace diagonalization in iterative solution of the eigenvalue problem:
     a serial algorithm will be used

     Found symmetry operation: I + ( -0.5000  0.0000  0.5000)
     This is a supercell, fractional translations are disabled
 
     Parallelization info
     --------------------
     sticks:   dense  smooth     PW     G-vecs:    dense   smooth      PW
     Min         181     181     52                 5167     5167     824
     Max         182     182     53                 5170     5170     829
     Sum        1449    1449    421                41347    41347    6619
 


     bravais-lattice index     =            8
     lattice parameter (alat)  =       8.0505  a.u.
     unit-cell volume          =     521.3839 (a.u.)^3
     number of atoms/cell      =            8
     number of atomic types    =            2
     number of electrons       =        64.00
     number of Kohn-Sham states=           32
     kinetic-energy cutoff     =      70.0000  Ry
     charge density cutoff     =     280.0000  Ry
     convergence threshold     =      1.0E-08
     mixing beta               =       0.7000
     number of iterations used =            8  plain     mixing
     Exchange-correlation      = PBE ( 1  4  3  4 0 0)
     nstep                     =           50


     celldm(1)=   8.050494  celldm(2)=   0.999286  celldm(3)=   1.000001
     celldm(4)=   0.000000  celldm(5)=   0.000000  celldm(6)=   0.000000

     crystal axes: (cart. coord. in units of alat)
               a(1) = (   1.000000   0.000000   0.000000 )  
               a(2) = (   0.000000   0.999286   0.000000 )  
               a(3) = (   0.000000   0.000000   1.000001 )  

     reciprocal axes: (cart. coord. in units 2 pi/alat)
               b(1) = (  1.000000  0.000000  0.000000 )  
               b(2) = (  0.000000  1.000715  0.000000 )  
               b(3) = (  0.000000  0.000000  0.999999 )  


     PseudoPot. # 1 for Mg read from file:
     ../pseudo/Mg.pbe.UPF
     MD5 check sum: 4c04d8c6e0476e83eaecaf72fa8acc4d
     Pseudo is Norm-conserving, Zval = 10.0
     Generated using ONCVPSP code by D. R. Hamann
     Using radial grid of 1510 points,  4 beta functions with: 
                l(1) =   0
                l(2) =   0
                l(3) =   1
                l(4) =   1

     PseudoPot. # 2 for O  read from file:
     ../pseudo/O.pbe.UPF
     MD5 check sum: 3e3f909f7470e8921608ab6b1f57bbae
     Pseudo is Norm-conserving + core correction, Zval =  6.0
     Generated using ONCVPSP code by D. R. Hamann
     Using radial grid of  936 points,  5 beta functions with: 
                l(1) =   0
                l(2) =   0
                l(3) =   1
                l(4) =   1
                l(5) =   2

     atomic species   valence    mass     pseudopotential
        Mg            10.00    24.30500     Mg( 1.00)
        O              6.00    15.99940     O ( 1.00)

      8 Sym. Ops. (no inversion) found



   Cartesian axes

     site n.     atom                  positions (alat units)
         1           Mg  tau(   1) = (   0.0000000   0.0000000   0.0000000  )
         2           Mg  tau(   2) = (   0.0000000   0.5000000   0.5000000  )
         3           Mg  tau(   3) = (   0.5000000   0.0000000   0.5000000  )
         4           Mg  tau(   4) = (   0.5000000   0.5000000   0.0000000  )
         5           O   tau(   5) = (   0.5000000   0.0000000   0.0000000  )
         6           O   tau(   6) = (   0.0000000   0.5000000   0.0000000  )
         7           O   tau(   7) = (   0.0000000   0.0000000   0.5000000  )
         8           O   tau(   8) = (   0.5000000   0.5000000   0.5000000  )

     number of k points=    18
                       cart. coord. in units 2pi/alat
        k(    1) = (   0.0000000   0.0000000   0.0000000), wk =   0.0312500
        k(    2) = (   0.0000000   0.0000000   0.2499999), wk =   0.1250000
        k(    3) = (   0.0000000   0.0000000  -0.4999997), wk =   0.0625000
        k(    4) = (   0.0000000   0.2501786   0.0000000), wk =   0.0625000
        k(    5) = (   0.0000000   0.2501786   0.2499999), wk =   0.2500000
        k(    6) = (   0.0000000   0.2501786  -0.4999997), wk =   0.1250000
        k(    7) = (   0.0000000  -0.5003573   0.0000000), wk =   0.0312500
        k(    8) = (   0.0000000  -0.5003573   0.2499999), wk =   0.1250000
        k(    9) = (   0.0000000  -0.5003573  -0.4999997), wk =   0.0625000
        k(   10) = (   0.2500000   0.0000000   0.2499999), wk =   0.1250000
        k(   11) = (   0.2500000   0.0000000  -0.4999997), wk =   0.1250000
        k(   12) = (   0.2500000   0.2501786   0.2499999), wk =   0.2500000
        k(   13) = (   0.2500000   0.2501786  -0.4999997), wk =   0.2500000
        k(   14) = (   0.2500000  -0.5003573   0.2499999), wk =   0.1250000
        k(   15) = (   0.2500000  -0.5003573  -0.4999997), wk =   0.1250000
        k(   16) = (  -0.5000000   0.0000000  -0.4999997), wk =   0.0312500
        k(   17) = (  -0.5000000   0.2501786  -0.4999997), wk =   0.0625000
        k(   18) = (  -0.5000000  -0.5003573  -0.4999997), wk =   0.0312500

     Dense  grid:    41347 G-vectors     FFT dimensions: (  45,  45,  45)

     Estimated max dynamical RAM per process >      11.58MB

     Estimated total allocated dynamical RAM >      92.66MB

     Check: negative/imaginary core charge=   -0.000007    0.000000

     Initial potential from superposition of free atoms

     starting charge   63.99678, renormalised to   64.00000
     Starting wfc are   36 randomized atomic wfcs

     total cpu time spent up to now is        0.5 secs

     per-process dynamical memory:    47.1 Mb

     Self-consistent Calculation

     iteration #  1     ecut=    70.00 Ry     beta=0.70
     Davidson diagonalization with overlap
     ethr =  1.00E-02,  avg # of iterations =  2.0

     total cpu time spent up to now is        1.3 secs

     total energy              =    -607.72015695 Ry
     Harris-Foulkes estimate   =    -608.84394933 Ry
     estimated scf accuracy    <       1.56151807 Ry

     iteration #  2     ecut=    70.00 Ry     beta=0.70
     Davidson diagonalization with overlap
     ethr =  2.44E-03,  avg # of iterations =  2.9

     total cpu time spent up to now is        2.1 secs

     total energy              =    -608.10528625 Ry
     Harris-Foulkes estimate   =    -608.80422930 Ry
     estimated scf accuracy    <       1.45158536 Ry

     iteration #  3     ecut=    70.00 Ry     beta=0.70
     Davidson diagonalization with overlap
     ethr =  2.27E-03,  avg # of iterations =  2.0

     total cpu time spent up to now is        2.9 secs

     total energy              =    -608.39141015 Ry
     Harris-Foulkes estimate   =    -608.39207744 Ry
     estimated scf accuracy    <       0.00676991 Ry

     iteration #  4     ecut=    70.00 Ry     beta=0.70
     Davidson diagonalization with overlap
     ethr =  1.06E-05,  avg # of iterations =  2.0

     total cpu time spent up to now is        3.6 secs

     total energy              =    -608.39289621 Ry
     Harris-Foulkes estimate   =    -608.39294004 Ry
     estimated scf accuracy    <       0.00010967 Ry

     iteration #  5     ecut=    70.00 Ry     beta=0.70
     Davidson diagonalization with overlap
     ethr =  1.71E-07,  avg # of iterations =  1.6

     total cpu time spent up to now is        4.2 secs

     total energy              =    -608.39290364 Ry
     Harris-Foulkes estimate   =    -608.39290210 Ry
     estimated scf accuracy    <       0.00001025 Ry

     iteration #  6     ecut=    70.00 Ry     beta=0.70
     Davidson diagonalization with overlap
     ethr =  1.60E-08,  avg # of iterations =  2.0

     total cpu time spent up to now is        5.1 secs

     total energy              =    -608.39290521 Ry
     Harris-Foulkes estimate   =    -608.39290559 Ry
     estimated scf accuracy    <       0.00000094 Ry

     iteration #  7     ecut=    70.00 Ry     beta=0.70
     Davidson diagonalization with overlap
     ethr =  1.46E-09,  avg # of iterations =  2.0

     total cpu time spent up to now is        5.8 secs

     total energy              =    -608.39290520 Ry
     Harris-Foulkes estimate   =    -608.39290529 Ry
     estimated scf accuracy    <       0.00000022 Ry

     iteration #  8     ecut=    70.00 Ry     beta=0.70
     Davidson diagonalization with overlap
     ethr =  3.49E-10,  avg # of iterations =  2.0

     total cpu time spent up to now is        6.5 secs

     total energy              =    -608.39290521 Ry
     Harris-Foulkes estimate   =    -608.39290522 Ry
     estimated scf accuracy    <       0.00000004 Ry

     iteration #  9     ecut=    70.00 Ry     beta=0.70
     Davidson diagonalization with overlap
     ethr =  6.14E-11,  avg # of iterations =  2.0

     total cpu time spent up to now is        7.4 secs

     End of self-consistent calculation

          k = 0.0000 0.0000 0.0000 (  5137 PWs)   bands (ev):

   -64.8563 -64.8469 -64.8469 -64.8461 -31.6523 -31.6523 -31.6519 -31.6151
   -31.6151 -31.6149 -31.6149 -31.6147 -31.6146 -31.5850 -31.5850 -31.5846
    -9.3748  -7.9285  -7.9284  -7.9266   3.7460   3.7460   3.7483   6.3631
     6.3631   6.3636   6.3639   6.3682   6.3682   7.6545   7.6562   7.6562

          k = 0.0000 0.0000 0.2500 (  5161 PWs)   bands (ev):

   -64.8549 -64.8481 -64.8469 -64.8463 -31.6458 -31.6454 -31.6418 -31.6200
   -31.6195 -31.6156 -31.6155 -31.6106 -31.6103 -31.5999 -31.5932 -31.5928
    -9.1671  -8.1427  -7.8999  -7.8986   4.0358   4.0380   4.0829   5.8423
     5.8434   6.1551   6.1586   6.5262   6.5304   6.6430   7.4326   7.4348

          k = 0.0000 0.0000-0.5000 (  5110 PWs)   bands (ev):

   -64.8517 -64.8512 -64.8469 -64.8463 -31.6309 -31.6307 -31.6305 -31.6303
   -31.6235 -31.6235 -31.6122 -31.6122 -31.6022 -31.6020 -31.6019 -31.6016
    -8.6585  -8.6584  -7.8707  -7.8706   4.8341   4.8341   4.8358   4.8359
     5.1086   5.1089   5.9601   5.9605   6.9513   6.9513   6.9546   6.9546

          k = 0.0000 0.2502 0.0000 (  5161 PWs)   bands (ev):

   -64.8549 -64.8481 -64.8469 -64.8463 -31.6458 -31.6458 -31.6415 -31.6198
   -31.6198 -31.6152 -31.6152 -31.6108 -31.6108 -31.5995 -31.5932 -31.5932
    -9.1666  -8.1409  -7.9000  -7.9000   4.0363   4.0363   4.0841   5.8463
     5.8463   6.1539   6.1542   6.5259   6.5259   6.6415   7.4338   7.4338

          k = 0.0000 0.2502 0.2500 (  5169 PWs)   bands (ev):

   -64.8537 -64.8481 -64.8477 -64.8467 -31.6427 -31.6424 -31.6409 -31.6285
   -31.6161 -31.6160 -31.6144 -31.6093 -31.6086 -31.6082 -31.5971 -31.5900
    -8.9772  -8.0780  -8.0767  -7.9048   4.1486   4.1492   4.3161   5.0581
     5.8308   6.0396   6.0430   6.4681   6.4693   6.5691   7.1578   7.4891

          k = 0.0000 0.2502-0.5000 (  5158 PWs)   bands (ev):

   -64.8510 -64.8505 -64.8476 -64.8470 -31.6386 -31.6384 -31.6316 -31.6315
   -31.6284 -31.6282 -31.6069 -31.6067 -31.6056 -31.6055 -31.5968 -31.5966
    -8.5223  -8.5222  -7.9609  -7.9608   4.4056   4.4057   4.7369   4.7372
     5.0824   5.0824   6.5339   6.5342   6.5621   6.5621   7.0776   7.0777

          k = 0.0000-0.5004 0.0000 (  5110 PWs)   bands (ev):

   -64.8517 -64.8512 -64.8469 -64.8463 -31.6309 -31.6309 -31.6306 -31.6306
   -31.6232 -31.6230 -31.6119 -31.6119 -31.6023 -31.6023 -31.6021 -31.6021
    -8.6591  -8.6552  -7.8712  -7.8711   4.8330   4.8330   4.8390   4.8390
     5.1069   5.1093   5.9565   5.9568   6.9498   6.9498   6.9535   6.9535

          k = 0.0000-0.5004 0.2500 (  5162 PWs)   bands (ev):

   -64.8510 -64.8505 -64.8476 -64.8470 -31.6387 -31.6385 -31.6315 -31.6313
   -31.6285 -31.6282 -31.6070 -31.6067 -31.6054 -31.6053 -31.5973 -31.5972
    -8.5231  -8.5197  -7.9616  -7.9609   4.4044   4.4068   4.7352   4.7379
     5.0808   5.0867   6.5309   6.5331   6.5580   6.5623   7.0778   7.0789

          k = 0.0000-0.5004-0.5000 (  5216 PWs)   bands (ev):

   -64.8493 -64.8493 -64.8493 -64.8482 -31.6407 -31.6405 -31.6404 -31.6404
   -31.6191 -31.6189 -31.6189 -31.6186 -31.5984 -31.5982 -31.5981 -31.5981
    -8.2197  -8.2196  -8.2175  -8.2175   4.2791   4.2792   4.2801   4.2802
     5.7507   5.7507   5.7560   5.7560   7.0471   7.0473   7.0489   7.0491

          k = 0.2500 0.0000 0.2500 (  5169 PWs)   bands (ev):

   -64.8537 -64.8481 -64.8477 -64.8466 -31.6428 -31.6427 -31.6406 -31.6287
   -31.6157 -31.6157 -31.6146 -31.6096 -31.6087 -31.6085 -31.5967 -31.5902
    -8.9775  -8.0781  -8.0781  -7.9039   4.1490   4.1490   4.3177   5.0581
     5.8329   6.0401   6.0404   6.4714   6.4714   6.5668   7.1562   7.4893

          k = 0.2500 0.0000-0.5000 (  5162 PWs)   bands (ev):

   -64.8510 -64.8505 -64.8476 -64.8470 -31.6389 -31.6388 -31.6316 -31.6316
   -31.6281 -31.6279 -31.6063 -31.6060 -31.6059 -31.6059 -31.5973 -31.5972
    -8.5225  -8.5224  -7.9611  -7.9610   4.4066   4.4067   4.7386   4.7389
     5.0835   5.0836   6.5323   6.5325   6.5599   6.5599   7.0789   7.0789

          k = 0.2500 0.2502 0.2500 (  5166 PWs)   bands (ev):

   -64.8527 -64.8481 -64.8481 -64.8473 -31.6466 -31.6464 -31.6463 -31.6277
   -31.6154 -31.6153 -31.6151 -31.6059 -31.6056 -31.6056 -31.5934 -31.5931
    -8.8079  -8.0449  -8.0449  -8.0440   3.9882   3.9885   3.9885   5.0747
     5.8312   5.8313   5.8324   6.6887   6.6906   6.6908   7.3390   7.3392

          k = 0.2500 0.2502-0.5000 (  5142 PWs)   bands (ev):

   -64.8505 -64.8501 -64.8481 -64.8474 -31.6494 -31.6493 -31.6423 -31.6422
   -31.6144 -31.6142 -31.6026 -31.6025 -31.5995 -31.5994 -31.5992 -31.5990
    -8.4122  -8.4121  -8.0112  -8.0111   3.8098   3.8099   4.1855   4.1856
     5.8163   5.8163   6.7251   6.7253   6.8530   6.8532   7.0007   7.0007

          k = 0.2500-0.5004 0.2500 (  5144 PWs)   bands (ev):

   -64.8505 -64.8501 -64.8481 -64.8474 -31.6497 -31.6496 -31.6423 -31.6422
   -31.6148 -31.6146 -31.6020 -31.6019 -31.5997 -31.5994 -31.5992 -31.5991
    -8.4129  -8.4100  -8.0114  -8.0114   3.8095   3.8096   4.1830   4.1858
     5.8162   5.8162   6.7246   6.7248   6.8536   6.8547   6.9982   7.0009

          k = 0.2500-0.5004-0.5000 (  5140 PWs)   bands (ev):

   -64.8493 -64.8493 -64.8493 -64.8482 -31.6528 -31.6526 -31.6525 -31.6525
   -31.6047 -31.6045 -31.6044 -31.6043 -31.5970 -31.5969 -31.5967 -31.5967
    -8.1821  -8.1820  -8.1806  -8.1805   3.6276   3.6277   3.6291   3.6292
     6.5077   6.5077   6.5107   6.5107   7.0485   7.0487   7.0498   7.0500

          k =-0.5000 0.0000-0.5000 (  5216 PWs)   bands (ev):

   -64.8493 -64.8493 -64.8493 -64.8482 -31.6408 -31.6406 -31.6405 -31.6405
   -31.6187 -31.6185 -31.6185 -31.6182 -31.5987 -31.5985 -31.5984 -31.5984
    -8.2192  -8.2190  -8.2190  -8.2190   4.2822   4.2823   4.2823   4.2825
     5.7529   5.7530   5.7532   5.7532   7.0469   7.0471   7.0471   7.0472

          k =-0.5000 0.2502-0.5000 (  5140 PWs)   bands (ev):

   -64.8493 -64.8493 -64.8493 -64.8482 -31.6528 -31.6526 -31.6525 -31.6525
   -31.6044 -31.6042 -31.6042 -31.6040 -31.5973 -31.5971 -31.5970 -31.5970
    -8.1816  -8.1815  -8.1815  -8.1815   3.6292   3.6293   3.6293   3.6294
     6.5099   6.5099   6.5102   6.5102   7.0480   7.0482   7.0482   7.0483

          k =-0.5000-0.5004-0.5000 (  5232 PWs)   bands (ev):

   -64.8493 -64.8493 -64.8493 -64.8482 -31.6629 -31.6626 -31.6626 -31.6626
   -31.5984 -31.5982 -31.5981 -31.5981 -31.5980 -31.5978 -31.5978 -31.5977
    -8.1437  -8.1436  -8.1436  -8.1435   3.2061   3.2062   3.2062   3.2062
     7.0484   7.0486   7.0486   7.0487   7.0498   7.0499   7.0501   7.0501

     highest occupied level (ev):     7.6562

!    total energy              =    -608.39290521 Ry
     Harris-Foulkes estimate   =    -608.39290521 Ry
     estimated scf accuracy    <          1.2E-09 Ry

     The total energy is the sum of the following terms:

     one-electron contribution =    -303.83506714 Ry
     hartree contribution      =     168.16065706 Ry
     xc contribution           =     -97.84057327 Ry
     ewald contribution        =    -374.87792186 Ry

     convergence has been achieved in   9 iterations

     Forces acting on atoms (cartesian axes, Ry/au):

     atom    1 type  1   force =     0.00000000    0.00038972    0.00000000
     atom    2 type  1   force =     0.00000000   -0.00038238    0.00000000
     atom    3 type  1   force =     0.00000000    0.00038971    0.00000000
     atom    4 type  1   force =     0.00000000   -0.00038238    0.00000000
     atom    5 type  2   force =     0.00000000    0.00044481    0.00000000
     atom    6 type  2   force =     0.00000000   -0.00045116    0.00000000
     atom    7 type  2   force =     0.00000000    0.00044481    0.00000000
     atom    8 type  2   force =     0.00000000   -0.00045313    0.00000000

     Total force =     0.001184     Total SCF correction =     0.000010


     Computing stress (Cartesian axis) and pressure

          total   stress  (Ry/bohr**3)                   (kbar)     P=  -69.91
  -0.00047778   0.00000000   0.00000000        -70.28      0.00      0.00
   0.00000000  -0.00047007   0.00000000          0.00    -69.15      0.00
   0.00000000   0.00000000  -0.00047778          0.00      0.00    -70.28


     BFGS Geometry Optimization

     number of scf cycles    =   1
     number of bfgs steps    =   0

     energy   new            =    -608.3929052101 Ry

     new trust radius        =       0.0004531268 bohr
     new conv_thr            =       0.0000000100 Ry


ATOMIC_POSITIONS (alat)
Mg       0.000000000   0.000048410   0.000000000
Mg       0.000000000   0.499952502   0.500000000
Mg       0.500000000   0.000048408   0.500000000
Mg       0.500000000   0.499952502   0.000000000
O        0.500000000   0.000055253   0.000000000
O        0.000000000   0.499943958   0.000000000
O        0.000000000   0.000055253   0.500000000
O        0.500000000   0.499943714   0.500000000



 %%%%%%%%%%%%%%%%%%%%%%%%%%%%%%%%%%%%%%%%%%%%%%%%%%%%%%%%%%%%%%%%%%%%%%%%%%%%%%
     Error in routine checkallsym (3):
     not orthogonal operation
 %%%%%%%%%%%%%%%%%%%%%%%%%%%%%%%%%%%%%%%%%%%%%%%%%%%%%%%%%%%%%%%%%%%%%%%%%%%%%%

     stopping ...
