
     Program PWSCF v.6.1 (svn rev. 13369) starts on 22Apr2018 at 14:58:10 

     This program is part of the open-source Quantum ESPRESSO suite
     for quantum simulation of materials; please cite
         "P. Giannozzi et al., J. Phys.:Condens. Matter 21 395502 (2009);
          URL http://www.quantum-espresso.org", 
     in publications or presentations arising from this work. More details at
     http://www.quantum-espresso.org/quote

     Parallel version (MPI), running on     8 processors
     R & G space division:  proc/nbgrp/npool/nimage =       8
     Waiting for input...
     Reading input from standard input
Warning: card       &CELL ignored
Warning: card       CELL_DYNAMICS = 'BFGS' ignored
Warning: card       PRESS = 0.0D0 ignored
Warning: card       PRESS_CONV_THR = 0.01D0 ignored
Warning: card       / ignored

     Current dimensions of program PWSCF are:
     Max number of different atomic species (ntypx) = 10
     Max number of k-points (npk) =  40000
     Max angular momentum in pseudopotentials (lmaxx) =  3

     Subspace diagonalization in iterative solution of the eigenvalue problem:
     a serial algorithm will be used

 
     Parallelization info
     --------------------
     sticks:   dense  smooth     PW     G-vecs:    dense   smooth      PW
     Min         181     181     52                 5215     5215     824
     Max         182     182     53                 5218     5218     829
     Sum        1453    1453    421                41731    41731    6619
 


     bravais-lattice index     =            8
     lattice parameter (alat)  =       8.0850  a.u.
     unit-cell volume          =     525.8596 (a.u.)^3
     number of atoms/cell      =            8
     number of atomic types    =            2
     number of electrons       =        64.00
     number of Kohn-Sham states=           32
     kinetic-energy cutoff     =      70.0000  Ry
     charge density cutoff     =     280.0000  Ry
     convergence threshold     =      1.0E-08
     mixing beta               =       0.7000
     number of iterations used =            8  plain     mixing
     Exchange-correlation      = PBE ( 1  4  3  4 0 0)
     nstep                     =           50


     celldm(1)=   8.084974  celldm(2)=   0.995000  celldm(3)=   1.000025
     celldm(4)=   0.000000  celldm(5)=   0.000000  celldm(6)=   0.000000

     crystal axes: (cart. coord. in units of alat)
               a(1) = (   1.000000   0.000000   0.000000 )  
               a(2) = (   0.000000   0.995000   0.000000 )  
               a(3) = (   0.000000   0.000000   1.000025 )  

     reciprocal axes: (cart. coord. in units 2 pi/alat)
               b(1) = (  1.000000  0.000000  0.000000 )  
               b(2) = (  0.000000  1.005025  0.000000 )  
               b(3) = (  0.000000  0.000000  0.999975 )  


     PseudoPot. # 1 for Mg read from file:
     ../pseudo/Mg.pbe.UPF
     MD5 check sum: 4c04d8c6e0476e83eaecaf72fa8acc4d
     Pseudo is Norm-conserving, Zval = 10.0
     Generated using ONCVPSP code by D. R. Hamann
     Using radial grid of 1510 points,  4 beta functions with: 
                l(1) =   0
                l(2) =   0
                l(3) =   1
                l(4) =   1

     PseudoPot. # 2 for O  read from file:
     ../pseudo/O.pbe.UPF
     MD5 check sum: 3e3f909f7470e8921608ab6b1f57bbae
     Pseudo is Norm-conserving + core correction, Zval =  6.0
     Generated using ONCVPSP code by D. R. Hamann
     Using radial grid of  936 points,  5 beta functions with: 
                l(1) =   0
                l(2) =   0
                l(3) =   1
                l(4) =   1
                l(5) =   2

     atomic species   valence    mass     pseudopotential
        Mg            10.00    24.30500     Mg( 1.00)
        O              6.00    15.99940     O ( 1.00)

      2 Sym. Ops. (no inversion) found



   Cartesian axes

     site n.     atom                  positions (alat units)
         1           Mg  tau(   1) = (   0.0000000   0.0000000   0.0000000  )
         2           Mg  tau(   2) = (   0.0000000   0.5000000   0.5000000  )
         3           Mg  tau(   3) = (   0.5000000   0.0000000   0.5000000  )
         4           Mg  tau(   4) = (   0.5000000   0.5000000   0.0000000  )
         5           O   tau(   5) = (   0.5000000   0.0000000   0.0000000  )
         6           O   tau(   6) = (   0.0000000   0.5000000   0.0000000  )
         7           O   tau(   7) = (   0.0000000   0.0000000   0.5000000  )
         8           O   tau(   8) = (   0.5000000   0.5000000   0.5000000  )

     number of k points=    30
                       cart. coord. in units 2pi/alat
        k(    1) = (   0.0000000   0.0000000   0.0000000), wk =   0.0312500
        k(    2) = (   0.0000000   0.0000000   0.2499938), wk =   0.0625000
        k(    3) = (   0.0000000   0.0000000  -0.4999875), wk =   0.0312500
        k(    4) = (   0.0000000   0.2512563   0.0000000), wk =   0.0625000
        k(    5) = (   0.0000000   0.2512563   0.2499938), wk =   0.0625000
        k(    6) = (   0.0000000   0.2512563  -0.4999875), wk =   0.0625000
        k(    7) = (   0.0000000  -0.5025126   0.0000000), wk =   0.0312500
        k(    8) = (   0.0000000  -0.5025126   0.2499938), wk =   0.0625000
        k(    9) = (   0.0000000  -0.5025126  -0.4999875), wk =   0.0312500
        k(   10) = (   0.2500000   0.0000000   0.0000000), wk =   0.0625000
        k(   11) = (   0.2500000   0.0000000   0.2499938), wk =   0.1250000
        k(   12) = (   0.2500000   0.0000000  -0.4999875), wk =   0.0625000
        k(   13) = (   0.2500000   0.2512563   0.0000000), wk =   0.1250000
        k(   14) = (   0.2500000   0.2512563   0.2499938), wk =   0.1250000
        k(   15) = (   0.2500000   0.2512563  -0.4999875), wk =   0.1250000
        k(   16) = (   0.2500000  -0.5025126   0.0000000), wk =   0.0625000
        k(   17) = (   0.2500000  -0.5025126   0.2499938), wk =   0.1250000
        k(   18) = (   0.2500000  -0.5025126  -0.4999875), wk =   0.0625000
        k(   19) = (  -0.5000000   0.0000000   0.0000000), wk =   0.0312500
        k(   20) = (  -0.5000000   0.0000000   0.2499938), wk =   0.0625000
        k(   21) = (  -0.5000000   0.0000000  -0.4999875), wk =   0.0312500
        k(   22) = (  -0.5000000   0.2512563   0.0000000), wk =   0.0625000
        k(   23) = (  -0.5000000   0.2512563   0.2499938), wk =   0.0625000
        k(   24) = (  -0.5000000   0.2512563  -0.4999875), wk =   0.0625000
        k(   25) = (  -0.5000000  -0.5025126   0.0000000), wk =   0.0312500
        k(   26) = (  -0.5000000  -0.5025126   0.2499938), wk =   0.0625000
        k(   27) = (  -0.5000000  -0.5025126  -0.4999875), wk =   0.0312500
        k(   28) = (   0.0000000   0.2512563  -0.2499938), wk =   0.0625000
        k(   29) = (  -0.2500000   0.2512563  -0.2499938), wk =   0.1250000
        k(   30) = (   0.5000000   0.2512563  -0.2499938), wk =   0.0625000

     Dense  grid:    41731 G-vectors     FFT dimensions: (  45,  45,  45)

     Estimated max dynamical RAM per process >      15.49MB

     Estimated total allocated dynamical RAM >     123.89MB

     Check: negative/imaginary core charge=   -0.000007    0.000000

     Initial potential from superposition of free atoms

     starting charge   63.99678, renormalised to   64.00000
     Starting wfc are   36 randomized atomic wfcs

     total cpu time spent up to now is        0.7 secs

     per-process dynamical memory:    51.3 Mb

     Self-consistent Calculation

     iteration #  1     ecut=    70.00 Ry     beta=0.70
     Davidson diagonalization with overlap
     ethr =  1.00E-02,  avg # of iterations =  2.0

     total cpu time spent up to now is        1.9 secs

     total energy              =    -607.71562570 Ry
     Harris-Foulkes estimate   =    -608.84347119 Ry
     estimated scf accuracy    <       1.56648124 Ry

     iteration #  2     ecut=    70.00 Ry     beta=0.70
     Davidson diagonalization with overlap
     ethr =  2.45E-03,  avg # of iterations =  2.9

     total cpu time spent up to now is        3.3 secs

     total energy              =    -608.09939171 Ry
     Harris-Foulkes estimate   =    -608.81028476 Ry
     estimated scf accuracy    <       1.48050623 Ry

     iteration #  3     ecut=    70.00 Ry     beta=0.70
     Davidson diagonalization with overlap
     ethr =  2.31E-03,  avg # of iterations =  2.0

     total cpu time spent up to now is        4.6 secs

     total energy              =    -608.39079371 Ry
     Harris-Foulkes estimate   =    -608.39149227 Ry
     estimated scf accuracy    <       0.00688644 Ry

     iteration #  4     ecut=    70.00 Ry     beta=0.70
     Davidson diagonalization with overlap
     ethr =  1.08E-05,  avg # of iterations =  2.0

     total cpu time spent up to now is        5.8 secs

     total energy              =    -608.39231937 Ry
     Harris-Foulkes estimate   =    -608.39236631 Ry
     estimated scf accuracy    <       0.00011566 Ry

     iteration #  5     ecut=    70.00 Ry     beta=0.70
     Davidson diagonalization with overlap
     ethr =  1.81E-07,  avg # of iterations =  1.7

     total cpu time spent up to now is        6.9 secs

     total energy              =    -608.39232711 Ry
     Harris-Foulkes estimate   =    -608.39232564 Ry
     estimated scf accuracy    <       0.00001037 Ry

     iteration #  6     ecut=    70.00 Ry     beta=0.70
     Davidson diagonalization with overlap
     ethr =  1.62E-08,  avg # of iterations =  2.0

     total cpu time spent up to now is        8.3 secs

     total energy              =    -608.39232858 Ry
     Harris-Foulkes estimate   =    -608.39232900 Ry
     estimated scf accuracy    <       0.00000098 Ry

     iteration #  7     ecut=    70.00 Ry     beta=0.70
     Davidson diagonalization with overlap
     ethr =  1.53E-09,  avg # of iterations =  2.0

     total cpu time spent up to now is        9.5 secs

     total energy              =    -608.39232861 Ry
     Harris-Foulkes estimate   =    -608.39232870 Ry
     estimated scf accuracy    <       0.00000024 Ry

     iteration #  8     ecut=    70.00 Ry     beta=0.70
     Davidson diagonalization with overlap
     ethr =  3.73E-10,  avg # of iterations =  2.0

     total cpu time spent up to now is       10.6 secs

     total energy              =    -608.39232861 Ry
     Harris-Foulkes estimate   =    -608.39232863 Ry
     estimated scf accuracy    <       0.00000005 Ry

     iteration #  9     ecut=    70.00 Ry     beta=0.70
     Davidson diagonalization with overlap
     ethr =  7.95E-11,  avg # of iterations =  2.0

     total cpu time spent up to now is       12.0 secs

     End of self-consistent calculation

          k = 0.0000 0.0000 0.0000 (  5185 PWs)   bands (ev):

   -64.9881 -64.9791 -64.9790 -64.9783 -31.7813 -31.7813 -31.7787 -31.7460
   -31.7460 -31.7448 -31.7448 -31.7429 -31.7428 -31.7196 -31.7195 -31.7167
    -9.4355  -8.0162  -8.0161  -8.0032   3.6736   3.6736   3.6901   6.2622
     6.2623   6.2665   6.2669   6.2979   6.2979   7.5462   7.5583   7.5584

          k = 0.0000 0.0000 0.2500 (  5198 PWs)   bands (ev):

   -64.9867 -64.9803 -64.9790 -64.9784 -31.7756 -31.7733 -31.7730 -31.7515
   -31.7476 -31.7465 -31.7456 -31.7414 -31.7392 -31.7324 -31.7244 -31.7217
    -9.2318  -8.2267  -7.9872  -7.9780   3.9610   3.9764   4.0065   5.7474
     5.7556   6.0622   6.0865   6.4283   6.4571   6.5475   7.3268   7.3426

          k = 0.0000 0.0000-0.5000 (  5214 PWs)   bands (ev):

   -64.9837 -64.9832 -64.9790 -64.9784 -31.7645 -31.7642 -31.7603 -31.7601
   -31.7535 -31.7535 -31.7475 -31.7475 -31.7328 -31.7325 -31.7304 -31.7301
    -8.7329  -8.7328  -7.9553  -7.9553   4.7494   4.7496   4.7623   4.7625
     5.0250   5.0253   5.8796   5.8800   6.8500   6.8501   6.8730   6.8732

          k = 0.0000 0.2513 0.0000 (  5185 PWs)   bands (ev):

   -64.9867 -64.9801 -64.9791 -64.9785 -31.7754 -31.7754 -31.7690 -31.7505
   -31.7505 -31.7436 -31.7436 -31.7423 -31.7423 -31.7280 -31.7243 -31.7243
    -9.2290  -8.2142  -7.9877  -7.9876   3.9642   3.9643   4.0159   5.7751
     5.7752   6.0547   6.0550   6.4253   6.4254   6.5373   7.3360   7.3360

          k = 0.0000 0.2513 0.2500 (  5213 PWs)   bands (ev):

   -64.9855 -64.9802 -64.9798 -64.9788 -31.7734 -31.7710 -31.7701 -31.7580
   -31.7479 -31.7475 -31.7440 -31.7400 -31.7386 -31.7372 -31.7287 -31.7209
    -9.0435  -8.1625  -8.1532  -7.9916   4.0731   4.0777   4.2410   4.9795
     5.7340   5.9450   5.9690   6.3690   6.3778   6.4845   7.0651   7.3899

          k = 0.0000 0.2513-0.5000 (  5204 PWs)   bands (ev):

   -64.9830 -64.9826 -64.9797 -64.9791 -31.7674 -31.7673 -31.7616 -31.7616
   -31.7592 -31.7590 -31.7382 -31.7379 -31.7363 -31.7362 -31.7267 -31.7265
    -8.5981  -8.5979  -8.0436  -8.0436   4.3294   4.3296   4.6526   4.6528
     4.9995   4.9997   6.4517   6.4520   6.4801   6.4802   6.9794   6.9795

          k = 0.0000-0.5025 0.0000 (  5190 PWs)   bands (ev):

   -64.9837 -64.9831 -64.9791 -64.9785 -31.7641 -31.7641 -31.7630 -31.7630
   -31.7517 -31.7502 -31.7417 -31.7416 -31.7336 -31.7336 -31.7328 -31.7328
    -8.7376  -8.7108  -7.9588  -7.9588   4.7419   4.7420   4.7843   4.7843
     5.0118   5.0288   5.8554   5.8557   6.8395   6.8396   6.8654   6.8656

          k = 0.0000-0.5025 0.2500 (  5194 PWs)   bands (ev):

   -64.9830 -64.9825 -64.9798 -64.9792 -31.7685 -31.7677 -31.7605 -31.7597
   -31.7595 -31.7582 -31.7389 -31.7378 -31.7348 -31.7342 -31.7281 -31.7280
    -8.6040  -8.5803  -8.0491  -8.0445   4.3209   4.3375   4.6397   4.6585
     4.9892   5.0302   6.4298   6.4451   6.4515   6.4817   6.9809   6.9888

          k = 0.0000-0.5025-0.5000 (  5224 PWs)   bands (ev):

   -64.9814 -64.9813 -64.9813 -64.9803 -31.7695 -31.7693 -31.7688 -31.7687
   -31.7500 -31.7498 -31.7489 -31.7487 -31.7285 -31.7283 -31.7278 -31.7277
    -8.3050  -8.3049  -8.2901  -8.2900   4.1946   4.1948   4.2018   4.2019
     5.6530   5.6532   5.6898   5.6900   6.9512   6.9514   6.9636   6.9638

          k = 0.2500 0.0000 0.0000 (  5198 PWs)   bands (ev):

   -64.9867 -64.9803 -64.9790 -64.9784 -31.7756 -31.7733 -31.7730 -31.7515
   -31.7476 -31.7465 -31.7456 -31.7414 -31.7392 -31.7324 -31.7244 -31.7217
    -9.2318  -8.2266  -7.9873  -7.9780   3.9609   3.9764   4.0065   5.7475
     5.7558   6.0621   6.0864   6.4282   6.4571   6.5474   7.3268   7.3426

          k = 0.2500 0.0000 0.2500 (  5209 PWs)   bands (ev):

   -64.9856 -64.9802 -64.9798 -64.9788 -31.7733 -31.7731 -31.7680 -31.7593
   -31.7449 -31.7441 -31.7441 -31.7408 -31.7399 -31.7398 -31.7259 -31.7226
    -9.0459  -8.1627  -8.1627  -7.9854   4.0763   4.0763   4.2526   4.9791
     5.7489   5.9504   5.9507   6.3926   6.3926   6.4674   7.0535   7.3921

          k = 0.2500 0.0000-0.5000 (  5206 PWs)   bands (ev):

   -64.9830 -64.9826 -64.9797 -64.9791 -31.7693 -31.7691 -31.7619 -31.7619
   -31.7561 -31.7559 -31.7376 -31.7376 -31.7349 -31.7347 -31.7294 -31.7292
    -8.5996  -8.5994  -8.0455  -8.0454   4.3362   4.3363   4.6643   4.6645
     5.0086   5.0088   6.4387   6.4389   6.4667   6.4668   6.9882   6.9883

          k = 0.2500 0.2513 0.0000 (  5213 PWs)   bands (ev):

   -64.9855 -64.9802 -64.9798 -64.9788 -31.7734 -31.7710 -31.7701 -31.7580
   -31.7479 -31.7475 -31.7440 -31.7400 -31.7386 -31.7372 -31.7287 -31.7209
    -9.0435  -8.1624  -8.1532  -7.9916   4.0731   4.0777   4.2410   4.9795
     5.7339   5.9451   5.9690   6.3690   6.3777   6.4845   7.0652   7.3899

          k = 0.2500 0.2513 0.2500 (  5200 PWs)   bands (ev):

   -64.9846 -64.9802 -64.9802 -64.9794 -31.7762 -31.7761 -31.7749 -31.7575
   -31.7453 -31.7451 -31.7447 -31.7376 -31.7352 -31.7352 -31.7258 -31.7232
    -8.8778  -8.1296  -8.1295  -8.1230   3.9155   3.9176   3.9176   4.9889
     5.7455   5.7456   5.7531   6.5894   6.6039   6.6040   7.2416   7.2430

          k = 0.2500 0.2513-0.5000 (  5182 PWs)   bands (ev):

   -64.9825 -64.9821 -64.9802 -64.9796 -31.7786 -31.7784 -31.7717 -31.7716
   -31.7441 -31.7439 -31.7337 -31.7336 -31.7314 -31.7312 -31.7286 -31.7284
    -8.4902  -8.4901  -8.0943  -8.0943   3.7406   3.7407   4.1115   4.1116
     5.7327   5.7327   6.6355   6.6357   6.7595   6.7596   6.9097   6.9098

          k = 0.2500-0.5025 0.0000 (  5194 PWs)   bands (ev):

   -64.9830 -64.9825 -64.9798 -64.9792 -31.7685 -31.7677 -31.7605 -31.7597
   -31.7595 -31.7582 -31.7389 -31.7378 -31.7348 -31.7342 -31.7281 -31.7280
    -8.6040  -8.5803  -8.0491  -8.0445   4.3208   4.3375   4.6396   4.6585
     4.9891   5.0302   6.4299   6.4452   6.4516   6.4818   6.9809   6.9888

          k = 0.2500-0.5025 0.2500 (  5192 PWs)   bands (ev):

   -64.9825 -64.9820 -64.9802 -64.9796 -31.7791 -31.7790 -31.7716 -31.7713
   -31.7456 -31.7454 -31.7321 -31.7316 -31.7316 -31.7313 -31.7295 -31.7292
    -8.4955  -8.4754  -8.0960  -8.0960   3.7394   3.7394   4.0939   4.1135
     5.7333   5.7333   6.6318   6.6320   6.7622   6.7706   6.8918   6.9106

          k = 0.2500-0.5025-0.5000 (  5200 PWs)   bands (ev):

   -64.9814 -64.9813 -64.9813 -64.9803 -31.7820 -31.7817 -31.7817 -31.7816
   -31.7367 -31.7365 -31.7362 -31.7360 -31.7275 -31.7273 -31.7270 -31.7269
    -8.2672  -8.2671  -8.2565  -8.2564   3.5520   3.5521   3.5620   3.5621
     6.4077   6.4079   6.4291   6.4292   6.9541   6.9543   6.9628   6.9630

          k =-0.5000 0.0000 0.0000 (  5214 PWs)   bands (ev):

   -64.9837 -64.9832 -64.9790 -64.9784 -31.7645 -31.7642 -31.7603 -31.7601
   -31.7535 -31.7534 -31.7475 -31.7475 -31.7328 -31.7326 -31.7304 -31.7301
    -8.7329  -8.7328  -7.9554  -7.9553   4.7495   4.7495   4.7625   4.7625
     5.0250   5.0253   5.8795   5.8799   6.8499   6.8500   6.8731   6.8731

          k =-0.5000 0.0000 0.2500 (  5206 PWs)   bands (ev):

   -64.9830 -64.9826 -64.9797 -64.9791 -31.7693 -31.7692 -31.7619 -31.7619
   -31.7561 -31.7559 -31.7376 -31.7376 -31.7349 -31.7347 -31.7294 -31.7292
    -8.5995  -8.5994  -8.0455  -8.0454   4.3362   4.3363   4.6642   4.6645
     5.0087   5.0088   6.4386   6.4389   6.4667   6.4667   6.9882   6.9883

          k =-0.5000 0.0000-0.5000 (  5248 PWs)   bands (ev):

   -64.9813 -64.9813 -64.9813 -64.9803 -31.7708 -31.7705 -31.7704 -31.7704
   -31.7469 -31.7467 -31.7467 -31.7464 -31.7305 -31.7303 -31.7302 -31.7302
    -8.3010  -8.3009  -8.3009  -8.3008   4.2166   4.2167   4.2167   4.2168
     5.6694   5.6694   5.6697   5.6698   6.9499   6.9501   6.9501   6.9502

          k =-0.5000 0.2513 0.0000 (  5204 PWs)   bands (ev):

   -64.9830 -64.9826 -64.9797 -64.9791 -31.7674 -31.7673 -31.7616 -31.7616
   -31.7592 -31.7590 -31.7382 -31.7379 -31.7363 -31.7362 -31.7267 -31.7265
    -8.5980  -8.5979  -8.0437  -8.0436   4.3294   4.3295   4.6525   4.6527
     4.9996   4.9997   6.4517   6.4519   6.4802   6.4802   6.9794   6.9795

          k =-0.5000 0.2513 0.2500 (  5180 PWs)   bands (ev):

   -64.9825 -64.9821 -64.9802 -64.9796 -31.7786 -31.7784 -31.7717 -31.7716
   -31.7441 -31.7439 -31.7335 -31.7335 -31.7314 -31.7312 -31.7286 -31.7284
    -8.4902  -8.4901  -8.0944  -8.0943   3.7406   3.7407   4.1115   4.1116
     5.7327   5.7328   6.6355   6.6357   6.7595   6.7597   6.9096   6.9097

          k =-0.5000 0.2513-0.5000 (  5208 PWs)   bands (ev):

   -64.9813 -64.9813 -64.9813 -64.9803 -31.7824 -31.7821 -31.7821 -31.7821
   -31.7341 -31.7339 -31.7339 -31.7337 -31.7298 -31.7296 -31.7295 -31.7295
    -8.2636  -8.2635  -8.2635  -8.2634   3.5631   3.5633   3.5633   3.5633
     6.4243   6.4244   6.4246   6.4246   6.9510   6.9512   6.9512   6.9514

          k =-0.5000-0.5025 0.0000 (  5224 PWs)   bands (ev):

   -64.9814 -64.9813 -64.9813 -64.9803 -31.7695 -31.7693 -31.7688 -31.7687
   -31.7500 -31.7498 -31.7489 -31.7487 -31.7285 -31.7283 -31.7278 -31.7277
    -8.3050  -8.3049  -8.2901  -8.2900   4.1945   4.1947   4.2017   4.2018
     5.6531   5.6531   5.6899   5.6899   6.9513   6.9514   6.9636   6.9638

          k =-0.5000-0.5025 0.2500 (  5200 PWs)   bands (ev):

   -64.9814 -64.9813 -64.9813 -64.9803 -31.7820 -31.7817 -31.7817 -31.7816
   -31.7367 -31.7365 -31.7362 -31.7360 -31.7275 -31.7273 -31.7270 -31.7269
    -8.2672  -8.2671  -8.2565  -8.2564   3.5520   3.5521   3.5619   3.5620
     6.4078   6.4078   6.4291   6.4291   6.9542   6.9543   6.9629   6.9630

          k =-0.5000-0.5025-0.5000 (  5232 PWs)   bands (ev):

   -64.9813 -64.9813 -64.9813 -64.9803 -31.7906 -31.7904 -31.7904 -31.7903
   -31.7298 -31.7296 -31.7295 -31.7295 -31.7272 -31.7270 -31.7270 -31.7268
    -8.2256  -8.2256  -8.2255  -8.2255   3.1409   3.1410   3.1410   3.1411
     6.9520   6.9522   6.9522   6.9523   6.9615   6.9616   6.9618   6.9618

          k = 0.0000 0.2513-0.2500 (  5213 PWs)   bands (ev):

   -64.9855 -64.9802 -64.9798 -64.9788 -31.7734 -31.7710 -31.7701 -31.7580
   -31.7479 -31.7475 -31.7440 -31.7400 -31.7386 -31.7372 -31.7287 -31.7209
    -9.0435  -8.1625  -8.1532  -7.9916   4.0731   4.0777   4.2410   4.9795
     5.7340   5.9450   5.9690   6.3690   6.3778   6.4845   7.0651   7.3899

          k =-0.2500 0.2513-0.2500 (  5200 PWs)   bands (ev):

   -64.9846 -64.9802 -64.9802 -64.9794 -31.7762 -31.7761 -31.7749 -31.7575
   -31.7453 -31.7451 -31.7447 -31.7376 -31.7352 -31.7352 -31.7258 -31.7232
    -8.8778  -8.1296  -8.1295  -8.1230   3.9155   3.9176   3.9176   4.9889
     5.7455   5.7456   5.7531   6.5894   6.6039   6.6040   7.2416   7.2430

          k = 0.5000 0.2513-0.2500 (  5180 PWs)   bands (ev):

   -64.9825 -64.9821 -64.9802 -64.9796 -31.7786 -31.7784 -31.7717 -31.7716
   -31.7441 -31.7439 -31.7335 -31.7335 -31.7314 -31.7312 -31.7286 -31.7284
    -8.4902  -8.4901  -8.0944  -8.0943   3.7406   3.7407   4.1115   4.1116
     5.7327   5.7328   6.6355   6.6357   6.7595   6.7597   6.9096   6.9097

     highest occupied level (ev):     7.5584

!    total energy              =    -608.39232862 Ry
     Harris-Foulkes estimate   =    -608.39232862 Ry
     estimated scf accuracy    <          2.4E-09 Ry

     The total energy is the sum of the following terms:

     one-electron contribution =    -305.51289715 Ry
     hartree contribution      =     168.72451188 Ry
     xc contribution           =     -97.80601951 Ry
     ewald contribution        =    -373.79792384 Ry

     convergence has been achieved in   9 iterations

     Forces acting on atoms (cartesian axes, Ry/au):

     atom    1 type  1   force =     0.00000000    0.00272557   -0.00001272
     atom    2 type  1   force =     0.00000000   -0.00267787    0.00001229
     atom    3 type  1   force =     0.00000000    0.00272839    0.00001248
     atom    4 type  1   force =     0.00000000   -0.00267680   -0.00001253
     atom    5 type  2   force =     0.00000000    0.00311090   -0.00001496
     atom    6 type  2   force =     0.00000000   -0.00315382   -0.00001481
     atom    7 type  2   force =     0.00000000    0.00311316    0.00001523
     atom    8 type  2   force =     0.00000000   -0.00316952    0.00001502

     Total force =     0.008281     Total SCF correction =     0.000055


     Computing stress (Cartesian axis) and pressure

          total   stress  (Ry/bohr**3)                   (kbar)     P=  -81.61
  -0.00057375   0.00000000   0.00000000        -84.40      0.00      0.00
   0.00000000  -0.00051669   0.00000000          0.00    -76.01      0.00
   0.00000000   0.00000000  -0.00057397          0.00      0.00    -84.43


     BFGS Geometry Optimization

     number of scf cycles    =   1
     number of bfgs steps    =   0

     energy   new            =    -608.3923286152 Ry

     new trust radius        =       0.0031695585 bohr
     new conv_thr            =       0.0000000100 Ry


ATOMIC_POSITIONS (alat)
Mg       0.000000000   0.000337116  -0.000001573
Mg       0.000000000   0.499668784   0.500001520
Mg       0.500000000   0.000337464   0.500001543
Mg       0.500000000   0.499668916  -0.000001550
O        0.500000000   0.000384776  -0.000001850
O        0.000000000   0.499609916  -0.000001832
O        0.000000000   0.000385055   0.500001884
O        0.500000000   0.499607974   0.500001858



     Writing output data file diamond.8.08497375.70.4.save
     NEW-OLD atomic charge density approx. for the potential

     Check: negative/imaginary core charge=   -0.000007    0.000000

     total cpu time spent up to now is       12.8 secs

     per-process dynamical memory:    52.0 Mb

     Self-consistent Calculation

     iteration #  1     ecut=    70.00 Ry     beta=0.70
     Davidson diagonalization with overlap
     ethr =  1.00E-06,  avg # of iterations =  3.0

     Threshold (ethr) on eigenvalues was too large:
     Diagonalizing with lowered threshold

     Davidson diagonalization with overlap
     ethr =  1.92E-08,  avg # of iterations =  1.2

     total cpu time spent up to now is       15.6 secs

     total energy              =    -608.39238262 Ry
     Harris-Foulkes estimate   =    -608.39239174 Ry
     estimated scf accuracy    <       0.00001245 Ry

     iteration #  2     ecut=    70.00 Ry     beta=0.70
     Davidson diagonalization with overlap
     ethr =  1.95E-08,  avg # of iterations =  2.2

     total cpu time spent up to now is       16.8 secs

     total energy              =    -608.39238638 Ry
     Harris-Foulkes estimate   =    -608.39238764 Ry
     estimated scf accuracy    <       0.00000210 Ry

     iteration #  3     ecut=    70.00 Ry     beta=0.70
     Davidson diagonalization with overlap
     ethr =  3.28E-09,  avg # of iterations =  2.0

     total cpu time spent up to now is       18.0 secs

     total energy              =    -608.39238683 Ry
     Harris-Foulkes estimate   =    -608.39238683 Ry
     estimated scf accuracy    <       0.00000002 Ry

     iteration #  4     ecut=    70.00 Ry     beta=0.70
     Davidson diagonalization with overlap
     ethr =  2.36E-11,  avg # of iterations =  2.7

     total cpu time spent up to now is       19.5 secs

     End of self-consistent calculation

          k = 0.0000 0.0000 0.0000 (  5185 PWs)   bands (ev):

   -64.9884 -64.9794 -64.9793 -64.9786 -31.7815 -31.7815 -31.7790 -31.7462
   -31.7462 -31.7451 -31.7451 -31.7431 -31.7431 -31.7198 -31.7198 -31.7170
    -9.4354  -8.0162  -8.0161  -8.0032   3.6737   3.6738   3.6900   6.2623
     6.2624   6.2665   6.2668   6.2979   6.2979   7.5463   7.5583   7.5584

          k = 0.0000 0.0000 0.2500 (  5198 PWs)   bands (ev):

   -64.9870 -64.9806 -64.9793 -64.9787 -31.7758 -31.7735 -31.7732 -31.7518
   -31.7478 -31.7468 -31.7458 -31.7417 -31.7395 -31.7326 -31.7246 -31.7219
    -9.2317  -8.2267  -7.9872  -7.9780   3.9611   3.9763   4.0066   5.7475
     5.7556   6.0624   6.0866   6.4282   6.4571   6.5475   7.3268   7.3426

          k = 0.0000 0.0000-0.5000 (  5214 PWs)   bands (ev):

   -64.9840 -64.9835 -64.9793 -64.9788 -31.7647 -31.7645 -31.7606 -31.7603
   -31.7538 -31.7537 -31.7477 -31.7477 -31.7331 -31.7328 -31.7306 -31.7304
    -8.7329  -8.7328  -7.9553  -7.9553   4.7495   4.7497   4.7623   4.7625
     5.0250   5.0252   5.8798   5.8801   6.8499   6.8500   6.8730   6.8731

          k = 0.0000 0.2513 0.0000 (  5185 PWs)   bands (ev):

   -64.9870 -64.9804 -64.9794 -64.9788 -31.7757 -31.7757 -31.7693 -31.7507
   -31.7507 -31.7439 -31.7438 -31.7426 -31.7425 -31.7283 -31.7246 -31.7246
    -9.2289  -8.2142  -7.9876  -7.9876   3.9644   3.9644   4.0159   5.7751
     5.7751   6.0547   6.0550   6.4254   6.4255   6.5374   7.3359   7.3360

          k = 0.0000 0.2513 0.2500 (  5213 PWs)   bands (ev):

   -64.9858 -64.9805 -64.9801 -64.9791 -31.7736 -31.7712 -31.7703 -31.7582
   -31.7482 -31.7478 -31.7442 -31.7403 -31.7389 -31.7375 -31.7290 -31.7212
    -9.0434  -8.1624  -8.1532  -7.9915   4.0732   4.0776   4.2412   4.9795
     5.7340   5.9451   5.9689   6.3692   6.3778   6.4842   7.0650   7.3900

          k = 0.0000 0.2513-0.5000 (  5204 PWs)   bands (ev):

   -64.9833 -64.9829 -64.9800 -64.9794 -31.7677 -31.7675 -31.7619 -31.7619
   -31.7594 -31.7592 -31.7384 -31.7382 -31.7366 -31.7365 -31.7270 -31.7268
    -8.5979  -8.5979  -8.0436  -8.0436   4.3294   4.3295   4.6526   4.6528
     4.9997   4.9998   6.4518   6.4520   6.4800   6.4801   6.9794   6.9795

          k = 0.0000-0.5025 0.0000 (  5190 PWs)   bands (ev):

   -64.9839 -64.9834 -64.9794 -64.9788 -31.7643 -31.7642 -31.7634 -31.7634
   -31.7517 -31.7506 -31.7419 -31.7419 -31.7338 -31.7338 -31.7332 -31.7331
    -8.7335  -8.7148  -7.9588  -7.9587   4.7482   4.7483   4.7780   4.7780
     5.0144   5.0262   5.8554   5.8556   6.8434   6.8435   6.8615   6.8617

          k = 0.0000-0.5025 0.2500 (  5194 PWs)   bands (ev):

   -64.9833 -64.9828 -64.9801 -64.9795 -31.7687 -31.7681 -31.7606 -31.7600
   -31.7596 -31.7586 -31.7390 -31.7382 -31.7350 -31.7346 -31.7284 -31.7283
    -8.6004  -8.5839  -8.0484  -8.0451   4.3233   4.3351   4.6426   4.6556
     4.9953   5.0241   6.4321   6.4428   6.4561   6.4772   6.9821   6.9877

          k = 0.0000-0.5025-0.5000 (  5224 PWs)   bands (ev):

   -64.9817 -64.9816 -64.9816 -64.9806 -31.7696 -31.7695 -31.7691 -31.7690
   -31.7501 -31.7499 -31.7493 -31.7491 -31.7287 -31.7285 -31.7282 -31.7281
    -8.3027  -8.3026  -8.2923  -8.2922   4.1958   4.1959   4.2006   4.2007
     5.6585   5.6587   5.6843   5.6845   6.9531   6.9533   6.9617   6.9619

          k = 0.2500 0.0000 0.0000 (  5198 PWs)   bands (ev):

   -64.9870 -64.9806 -64.9793 -64.9787 -31.7758 -31.7735 -31.7732 -31.7518
   -31.7478 -31.7468 -31.7458 -31.7417 -31.7395 -31.7326 -31.7247 -31.7219
    -9.2317  -8.2266  -7.9872  -7.9780   3.9610   3.9763   4.0066   5.7476
     5.7557   6.0622   6.0866   6.4280   6.4570   6.5474   7.3268   7.3426

          k = 0.2500 0.0000 0.2500 (  5209 PWs)   bands (ev):

   -64.9859 -64.9805 -64.9801 -64.9791 -31.7735 -31.7734 -31.7683 -31.7595
   -31.7452 -31.7444 -31.7443 -31.7410 -31.7402 -31.7401 -31.7262 -31.7229
    -9.0458  -8.1627  -8.1626  -7.9854   4.0764   4.0764   4.2525   4.9792
     5.7489   5.9504   5.9506   6.3925   6.3926   6.4675   7.0535   7.3921

          k = 0.2500 0.0000-0.5000 (  5206 PWs)   bands (ev):

   -64.9833 -64.9829 -64.9800 -64.9794 -31.7696 -31.7694 -31.7621 -31.7621
   -31.7564 -31.7562 -31.7379 -31.7378 -31.7352 -31.7350 -31.7297 -31.7295
    -8.5995  -8.5994  -8.0455  -8.0454   4.3363   4.3364   4.6644   4.6646
     5.0084   5.0086   6.4398   6.4400   6.4656   6.4657   6.9882   6.9883

          k = 0.2500 0.2513 0.0000 (  5213 PWs)   bands (ev):

   -64.9858 -64.9805 -64.9801 -64.9791 -31.7736 -31.7712 -31.7703 -31.7582
   -31.7482 -31.7478 -31.7442 -31.7403 -31.7389 -31.7375 -31.7290 -31.7212
    -9.0434  -8.1624  -8.1532  -7.9916   4.0732   4.0776   4.2411   4.9795
     5.7340   5.9452   5.9689   6.3692   6.3777   6.4843   7.0651   7.3900

          k = 0.2500 0.2513 0.2500 (  5200 PWs)   bands (ev):

   -64.9849 -64.9805 -64.9805 -64.9797 -31.7765 -31.7763 -31.7751 -31.7578
   -31.7455 -31.7454 -31.7449 -31.7378 -31.7355 -31.7355 -31.7261 -31.7235
    -8.8777  -8.1295  -8.1295  -8.1230   3.9155   3.9176   3.9177   4.9889
     5.7455   5.7456   5.7531   6.5895   6.6038   6.6040   7.2416   7.2430

          k = 0.2500 0.2513-0.5000 (  5182 PWs)   bands (ev):

   -64.9828 -64.9824 -64.9805 -64.9799 -31.7788 -31.7787 -31.7719 -31.7718
   -31.7444 -31.7442 -31.7339 -31.7339 -31.7316 -31.7315 -31.7288 -31.7286
    -8.4901  -8.4900  -8.0943  -8.0943   3.7406   3.7407   4.1115   4.1116
     5.7327   5.7328   6.6356   6.6358   6.7594   6.7596   6.9096   6.9097

          k = 0.2500-0.5025 0.0000 (  5194 PWs)   bands (ev):

   -64.9833 -64.9828 -64.9801 -64.9795 -31.7687 -31.7681 -31.7606 -31.7600
   -31.7596 -31.7586 -31.7390 -31.7382 -31.7350 -31.7346 -31.7284 -31.7283
    -8.6004  -8.5839  -8.0484  -8.0451   4.3233   4.3351   4.6425   4.6555
     4.9953   5.0241   6.4322   6.4428   6.4562   6.4773   6.9821   6.9876

          k = 0.2500-0.5025 0.2500 (  5192 PWs)   bands (ev):

   -64.9828 -64.9824 -64.9805 -64.9799 -31.7794 -31.7792 -31.7718 -31.7716
   -31.7459 -31.7457 -31.7322 -31.7319 -31.7319 -31.7317 -31.7297 -31.7295
    -8.4924  -8.4783  -8.0960  -8.0960   3.7394   3.7395   4.0969   4.1104
     5.7333   5.7334   6.6317   6.6319   6.7634   6.7694   6.8947   6.9078

          k = 0.2500-0.5025-0.5000 (  5200 PWs)   bands (ev):

   -64.9817 -64.9816 -64.9816 -64.9806 -31.7822 -31.7820 -31.7819 -31.7819
   -31.7369 -31.7367 -31.7365 -31.7364 -31.7277 -31.7275 -31.7273 -31.7272
    -8.2655  -8.2654  -8.2580  -8.2580   3.5535   3.5537   3.5604   3.5605
     6.4110   6.4111   6.4259   6.4260   6.9555   6.9556   6.9615   6.9617

          k =-0.5000 0.0000 0.0000 (  5214 PWs)   bands (ev):

   -64.9840 -64.9835 -64.9793 -64.9788 -31.7647 -31.7645 -31.7606 -31.7603
   -31.7537 -31.7537 -31.7477 -31.7477 -31.7331 -31.7328 -31.7306 -31.7304
    -8.7328  -8.7327  -7.9554  -7.9552   4.7496   4.7497   4.7624   4.7625
     5.0249   5.0253   5.8796   5.8800   6.8498   6.8499   6.8730   6.8731

          k =-0.5000 0.0000 0.2500 (  5206 PWs)   bands (ev):

   -64.9833 -64.9829 -64.9800 -64.9794 -31.7696 -31.7694 -31.7621 -31.7621
   -31.7564 -31.7562 -31.7379 -31.7378 -31.7352 -31.7350 -31.7297 -31.7295
    -8.5995  -8.5993  -8.0455  -8.0454   4.3363   4.3364   4.6644   4.6646
     5.0085   5.0086   6.4397   6.4400   6.4656   6.4656   6.9882   6.9883

          k =-0.5000 0.0000-0.5000 (  5248 PWs)   bands (ev):

   -64.9816 -64.9816 -64.9816 -64.9806 -31.7710 -31.7708 -31.7707 -31.7707
   -31.7471 -31.7470 -31.7469 -31.7467 -31.7308 -31.7305 -31.7305 -31.7305
    -8.3010  -8.3009  -8.3009  -8.3008   4.2166   4.2168   4.2168   4.2169
     5.6693   5.6694   5.6695   5.6697   6.9499   6.9501   6.9501   6.9502

          k =-0.5000 0.2513 0.0000 (  5204 PWs)   bands (ev):

   -64.9833 -64.9829 -64.9800 -64.9794 -31.7677 -31.7675 -31.7619 -31.7619
   -31.7595 -31.7592 -31.7385 -31.7382 -31.7365 -31.7365 -31.7270 -31.7268
    -8.5979  -8.5978  -8.0437  -8.0435   4.3294   4.3295   4.6525   4.6528
     4.9997   4.9998   6.4518   6.4520   6.4801   6.4801   6.9794   6.9794

          k =-0.5000 0.2513 0.2500 (  5180 PWs)   bands (ev):

   -64.9828 -64.9824 -64.9805 -64.9799 -31.7788 -31.7787 -31.7719 -31.7718
   -31.7443 -31.7441 -31.7338 -31.7337 -31.7316 -31.7315 -31.7288 -31.7286
    -8.4901  -8.4900  -8.0944  -8.0942   3.7407   3.7407   4.1115   4.1116
     5.7327   5.7328   6.6356   6.6359   6.7595   6.7596   6.9095   6.9096

          k =-0.5000 0.2513-0.5000 (  5208 PWs)   bands (ev):

   -64.9816 -64.9816 -64.9816 -64.9806 -31.7826 -31.7823 -31.7823 -31.7823
   -31.7344 -31.7342 -31.7342 -31.7340 -31.7301 -31.7299 -31.7298 -31.7298
    -8.2636  -8.2635  -8.2634  -8.2634   3.5631   3.5633   3.5633   3.5633
     6.4243   6.4244   6.4245   6.4246   6.9510   6.9513   6.9513   6.9514

          k =-0.5000-0.5025 0.0000 (  5224 PWs)   bands (ev):

   -64.9817 -64.9816 -64.9816 -64.9806 -31.7696 -31.7695 -31.7691 -31.7690
   -31.7501 -31.7499 -31.7493 -31.7491 -31.7287 -31.7285 -31.7281 -31.7281
    -8.3027  -8.3026  -8.2923  -8.2922   4.1957   4.1958   4.2005   4.2006
     5.6586   5.6587   5.6844   5.6844   6.9532   6.9533   6.9617   6.9619

          k =-0.5000-0.5025 0.2500 (  5200 PWs)   bands (ev):

   -64.9817 -64.9816 -64.9816 -64.9806 -31.7822 -31.7820 -31.7819 -31.7819
   -31.7369 -31.7367 -31.7365 -31.7364 -31.7277 -31.7275 -31.7273 -31.7272
    -8.2655  -8.2654  -8.2581  -8.2579   3.5535   3.5536   3.5604   3.5605
     6.4110   6.4110   6.4259   6.4260   6.9555   6.9557   6.9615   6.9617

          k =-0.5000-0.5025-0.5000 (  5232 PWs)   bands (ev):

   -64.9816 -64.9816 -64.9816 -64.9806 -31.7909 -31.7906 -31.7906 -31.7906
   -31.7301 -31.7298 -31.7298 -31.7298 -31.7275 -31.7272 -31.7272 -31.7271
    -8.2256  -8.2256  -8.2255  -8.2254   3.1409   3.1410   3.1410   3.1411
     6.9520   6.9523   6.9523   6.9523   6.9616   6.9616   6.9617   6.9618

          k = 0.0000 0.2513-0.2500 (  5213 PWs)   bands (ev):

   -64.9858 -64.9805 -64.9801 -64.9791 -31.7736 -31.7712 -31.7703 -31.7582
   -31.7482 -31.7478 -31.7442 -31.7403 -31.7389 -31.7375 -31.7290 -31.7212
    -9.0434  -8.1624  -8.1532  -7.9915   4.0732   4.0776   4.2412   4.9795
     5.7340   5.9451   5.9689   6.3692   6.3778   6.4842   7.0650   7.3900

          k =-0.2500 0.2513-0.2500 (  5200 PWs)   bands (ev):

   -64.9849 -64.9805 -64.9805 -64.9797 -31.7765 -31.7763 -31.7751 -31.7578
   -31.7455 -31.7454 -31.7449 -31.7378 -31.7355 -31.7355 -31.7261 -31.7235
    -8.8777  -8.1295  -8.1295  -8.1230   3.9155   3.9176   3.9177   4.9889
     5.7455   5.7456   5.7531   6.5895   6.6038   6.6040   7.2416   7.2430

          k = 0.5000 0.2513-0.2500 (  5180 PWs)   bands (ev):

   -64.9828 -64.9824 -64.9805 -64.9799 -31.7788 -31.7787 -31.7719 -31.7718
   -31.7443 -31.7441 -31.7338 -31.7337 -31.7316 -31.7315 -31.7288 -31.7286
    -8.4901  -8.4900  -8.0944  -8.0942   3.7407   3.7407   4.1115   4.1116
     5.7327   5.7328   6.6356   6.6359   6.7595   6.7596   6.9096   6.9096

     highest occupied level (ev):     7.5584

!    total energy              =    -608.39238684 Ry
     Harris-Foulkes estimate   =    -608.39238684 Ry
     estimated scf accuracy    <          3.3E-09 Ry

     The total energy is the sum of the following terms:

     one-electron contribution =    -305.50278676 Ry
     hartree contribution      =     168.71960236 Ry
     xc contribution           =     -97.80599227 Ry
     ewald contribution        =    -373.80321017 Ry

     convergence has been achieved in   4 iterations

     Forces acting on atoms (cartesian axes, Ry/au):

     atom    1 type  1   force =     0.00000000    0.00193667   -0.00000935
     atom    2 type  1   force =     0.00000000   -0.00194311    0.00000930
     atom    3 type  1   force =     0.00000000    0.00199262    0.00000937
     atom    4 type  1   force =     0.00000000   -0.00194324   -0.00000965
     atom    5 type  2   force =     0.00000000    0.00212887   -0.00001017
     atom    6 type  2   force =     0.00000000   -0.00214681   -0.00001024
     atom    7 type  2   force =     0.00000000    0.00213022    0.00001031
     atom    8 type  2   force =     0.00000000   -0.00215522    0.00001042

     Total force =     0.005796     Total SCF correction =     0.000306


     Computing stress (Cartesian axis) and pressure

          total   stress  (Ry/bohr**3)                   (kbar)     P=  -81.56
  -0.00057306   0.00000000   0.00000000        -84.30      0.00      0.00
   0.00000000  -0.00051707   0.00000000          0.00    -76.06      0.00
   0.00000000   0.00000000  -0.00057328          0.00      0.00    -84.33


     number of scf cycles    =   2
     number of bfgs steps    =   1

     energy   old            =    -608.3923286152 Ry
     energy   new            =    -608.3923868367 Ry

     CASE: energy  _new < energy  _old

     new trust radius        =       0.0034865144 bohr
     new conv_thr            =       0.0000000006 Ry


ATOMIC_POSITIONS (alat)
Mg       0.000000000   0.000724581  -0.000003443
Mg       0.000000000   0.499280046   0.500003381
Mg       0.500000000   0.000736101   0.500003417
Mg       0.500000000   0.499280154  -0.000003480
O        0.500000000   0.000810726  -0.000003886
O        0.000000000   0.499180370  -0.000003880
O        0.000000000   0.000811276   0.500003947
O        0.500000000   0.499176745   0.500003943



     Writing output data file diamond.8.08497375.70.4.save
     NEW-OLD atomic charge density approx. for the potential

     Check: negative/imaginary core charge=   -0.000007    0.000000

     total cpu time spent up to now is       20.2 secs

     per-process dynamical memory:    52.0 Mb

     Self-consistent Calculation

     iteration #  1     ecut=    70.00 Ry     beta=0.70
     Davidson diagonalization with overlap
     ethr =  1.00E-06,  avg # of iterations =  3.0

     Threshold (ethr) on eigenvalues was too large:
     Diagonalizing with lowered threshold

     Davidson diagonalization with overlap
     ethr =  2.38E-08,  avg # of iterations =  1.2

     total cpu time spent up to now is       23.0 secs

     total energy              =    -608.39242285 Ry
     Harris-Foulkes estimate   =    -608.39243415 Ry
     estimated scf accuracy    <       0.00001544 Ry

     iteration #  2     ecut=    70.00 Ry     beta=0.70
     Davidson diagonalization with overlap
     ethr =  2.41E-08,  avg # of iterations =  2.2

     total cpu time spent up to now is       24.3 secs

     total energy              =    -608.39242752 Ry
     Harris-Foulkes estimate   =    -608.39242909 Ry
     estimated scf accuracy    <       0.00000262 Ry

     iteration #  3     ecut=    70.00 Ry     beta=0.70
     Davidson diagonalization with overlap
     ethr =  4.09E-09,  avg # of iterations =  2.0

     total cpu time spent up to now is       25.5 secs

     total energy              =    -608.39242809 Ry
     Harris-Foulkes estimate   =    -608.39242808 Ry
     estimated scf accuracy    <       0.00000002 Ry

     iteration #  4     ecut=    70.00 Ry     beta=0.70
     Davidson diagonalization with overlap
     ethr =  3.23E-11,  avg # of iterations =  3.0

     total cpu time spent up to now is       27.0 secs

     total energy              =    -608.39242809 Ry
     Harris-Foulkes estimate   =    -608.39242809 Ry
     estimated scf accuracy    <          8.2E-09 Ry

     iteration #  5     ecut=    70.00 Ry     beta=0.70
     Davidson diagonalization with overlap
     ethr =  1.29E-11,  avg # of iterations =  3.0

     total cpu time spent up to now is       28.3 secs

     total energy              =    -608.39242809 Ry
     Harris-Foulkes estimate   =    -608.39242809 Ry
     estimated scf accuracy    <          6.4E-10 Ry

     iteration #  6     ecut=    70.00 Ry     beta=0.70
     Davidson diagonalization with overlap
     ethr =  9.96E-13,  avg # of iterations =  2.8

     total cpu time spent up to now is       29.6 secs

     End of self-consistent calculation

          k = 0.0000 0.0000 0.0000 (  5185 PWs)   bands (ev):

   -64.9884 -64.9795 -64.9794 -64.9786 -31.7816 -31.7816 -31.7790 -31.7463
   -31.7463 -31.7452 -31.7451 -31.7432 -31.7431 -31.7199 -31.7199 -31.7171
    -9.4353  -8.0160  -8.0159  -8.0031   3.6738   3.6739   3.6900   6.2624
     6.2626   6.2666   6.2669   6.2979   6.2980   7.5465   7.5584   7.5585

          k = 0.0000 0.0000 0.2500 (  5198 PWs)   bands (ev):

   -64.9871 -64.9806 -64.9794 -64.9788 -31.7759 -31.7736 -31.7733 -31.7518
   -31.7479 -31.7468 -31.7459 -31.7417 -31.7395 -31.7327 -31.7247 -31.7220
    -9.2315  -8.2265  -7.9870  -7.9779   3.9612   3.9763   4.0067   5.7476
     5.7556   6.0625   6.0868   6.4281   6.4571   6.5476   7.3269   7.3427

          k = 0.0000 0.0000-0.5000 (  5214 PWs)   bands (ev):

   -64.9841 -64.9836 -64.9794 -64.9788 -31.7648 -31.7645 -31.7606 -31.7604
   -31.7539 -31.7538 -31.7478 -31.7478 -31.7331 -31.7329 -31.7307 -31.7305
    -8.7327  -8.7326  -7.9552  -7.9551   4.7497   4.7498   4.7624   4.7625
     5.0250   5.0253   5.8800   5.8803   6.8499   6.8500   6.8731   6.8732

          k = 0.0000 0.2513 0.0000 (  5185 PWs)   bands (ev):

   -64.9871 -64.9805 -64.9795 -64.9789 -31.7757 -31.7757 -31.7693 -31.7508
   -31.7508 -31.7439 -31.7439 -31.7426 -31.7426 -31.7283 -31.7247 -31.7247
    -9.2287  -8.2141  -7.9875  -7.9874   3.9645   3.9646   4.0159   5.7751
     5.7751   6.0547   6.0551   6.4256   6.4257   6.5375   7.3360   7.3361

          k = 0.0000 0.2513 0.2500 (  5213 PWs)   bands (ev):

   -64.9859 -64.9806 -64.9802 -64.9792 -31.7737 -31.7713 -31.7704 -31.7583
   -31.7482 -31.7479 -31.7443 -31.7404 -31.7389 -31.7375 -31.7290 -31.7213
    -9.0432  -8.1623  -8.1531  -7.9914   4.0733   4.0777   4.2413   4.9795
     5.7342   5.9453   5.9689   6.3695   6.3779   6.4841   7.0651   7.3901

          k = 0.0000 0.2513-0.5000 (  5204 PWs)   bands (ev):

   -64.9834 -64.9830 -64.9801 -64.9795 -31.7677 -31.7676 -31.7620 -31.7619
   -31.7595 -31.7593 -31.7385 -31.7383 -31.7366 -31.7366 -31.7270 -31.7269
    -8.5978  -8.5977  -8.0435  -8.0435   4.3295   4.3296   4.6527   4.6529
     4.9999   5.0000   6.4520   6.4522   6.4801   6.4802   6.9794   6.9795

          k = 0.0000-0.5025 0.0000 (  5190 PWs)   bands (ev):

   -64.9840 -64.9835 -64.9795 -64.9789 -31.7642 -31.7641 -31.7636 -31.7636
   -31.7515 -31.7509 -31.7420 -31.7419 -31.7337 -31.7337 -31.7333 -31.7333
    -8.7289  -8.7191  -7.9586  -7.9586   4.7554   4.7555   4.7710   4.7710
     5.0173   5.0233   5.8554   5.8557   6.8479   6.8481   6.8573   6.8574

          k = 0.0000-0.5025 0.2500 (  5194 PWs)   bands (ev):

   -64.9833 -64.9829 -64.9801 -64.9795 -31.7686 -31.7682 -31.7606 -31.7602
   -31.7594 -31.7589 -31.7389 -31.7384 -31.7350 -31.7347 -31.7285 -31.7283
    -8.5963  -8.5877  -8.0474  -8.0457   4.3262   4.3324   4.6459   4.6524
     5.0023   5.0174   6.4348   6.4403   6.4613   6.4722   6.9836   6.9865

          k = 0.0000-0.5025-0.5000 (  5224 PWs)   bands (ev):

   -64.9818 -64.9817 -64.9817 -64.9807 -31.7696 -31.7695 -31.7692 -31.7692
   -31.7500 -31.7498 -31.7495 -31.7493 -31.7287 -31.7285 -31.7283 -31.7282
    -8.3001  -8.3000  -8.2947  -8.2946   4.1971   4.1973   4.1994   4.1995
     5.6648   5.6649   5.6783   5.6784   6.9554   6.9555   6.9597   6.9599

          k = 0.2500 0.0000 0.0000 (  5198 PWs)   bands (ev):

   -64.9871 -64.9806 -64.9794 -64.9788 -31.7759 -31.7736 -31.7733 -31.7518
   -31.7479 -31.7468 -31.7459 -31.7417 -31.7395 -31.7327 -31.7247 -31.7220
    -9.2315  -8.2264  -7.9871  -7.9779   3.9611   3.9763   4.0068   5.7477
     5.7558   6.0624   6.0868   6.4280   6.4571   6.5475   7.3269   7.3427

          k = 0.2500 0.0000 0.2500 (  5209 PWs)   bands (ev):

   -64.9859 -64.9806 -64.9802 -64.9791 -31.7736 -31.7735 -31.7683 -31.7596
   -31.7452 -31.7444 -31.7444 -31.7411 -31.7403 -31.7402 -31.7262 -31.7230
    -9.0457  -8.1626  -8.1625  -7.9852   4.0765   4.0766   4.2526   4.9794
     5.7490   5.9504   5.9508   6.3926   6.3926   6.4677   7.0536   7.3922

          k = 0.2500 0.0000-0.5000 (  5206 PWs)   bands (ev):

   -64.9834 -64.9830 -64.9801 -64.9795 -31.7696 -31.7695 -31.7622 -31.7621
   -31.7565 -31.7563 -31.7379 -31.7379 -31.7353 -31.7351 -31.7297 -31.7296
    -8.5993  -8.5992  -8.0453  -8.0453   4.3364   4.3365   4.6646   4.6648
     5.0084   5.0085   6.4407   6.4410   6.4649   6.4650   6.9883   6.9884

          k = 0.2500 0.2513 0.0000 (  5213 PWs)   bands (ev):

   -64.9859 -64.9806 -64.9802 -64.9792 -31.7737 -31.7713 -31.7704 -31.7583
   -31.7483 -31.7479 -31.7443 -31.7404 -31.7389 -31.7375 -31.7290 -31.7213
    -9.0432  -8.1622  -8.1531  -7.9914   4.0733   4.0777   4.2413   4.9795
     5.7341   5.9454   5.9689   6.3694   6.3778   6.4842   7.0652   7.3901

          k = 0.2500 0.2513 0.2500 (  5200 PWs)   bands (ev):

   -64.9850 -64.9806 -64.9805 -64.9798 -31.7765 -31.7764 -31.7752 -31.7578
   -31.7456 -31.7455 -31.7450 -31.7379 -31.7355 -31.7355 -31.7262 -31.7235
    -8.8776  -8.1294  -8.1293  -8.1229   3.9156   3.9178   3.9178   4.9890
     5.7456   5.7457   5.7532   6.5897   6.6039   6.6040   7.2417   7.2432

          k = 0.2500 0.2513-0.5000 (  5182 PWs)   bands (ev):

   -64.9829 -64.9825 -64.9805 -64.9799 -31.7789 -31.7787 -31.7720 -31.7719
   -31.7445 -31.7442 -31.7340 -31.7339 -31.7317 -31.7316 -31.7289 -31.7287
    -8.4899  -8.4899  -8.0942  -8.0941   3.7407   3.7408   4.1116   4.1117
     5.7328   5.7328   6.6358   6.6360   6.7595   6.7597   6.9097   6.9097

          k = 0.2500-0.5025 0.0000 (  5194 PWs)   bands (ev):

   -64.9833 -64.9829 -64.9801 -64.9795 -31.7686 -31.7682 -31.7606 -31.7602
   -31.7595 -31.7589 -31.7389 -31.7385 -31.7350 -31.7347 -31.7285 -31.7283
    -8.5963  -8.5877  -8.0474  -8.0457   4.3261   4.3324   4.6458   4.6524
     5.0022   5.0173   6.4348   6.4403   6.4614   6.4723   6.9835   6.9864

          k = 0.2500-0.5025 0.2500 (  5192 PWs)   bands (ev):

   -64.9829 -64.9824 -64.9806 -64.9800 -31.7794 -31.7793 -31.7718 -31.7717
   -31.7460 -31.7458 -31.7322 -31.7320 -31.7320 -31.7318 -31.7298 -31.7296
    -8.4889  -8.4816  -8.0959  -8.0958   3.7395   3.7396   4.1003   4.1071
     5.7335   5.7335   6.6318   6.6320   6.7649   6.7681   6.8980   6.9047

          k = 0.2500-0.5025-0.5000 (  5200 PWs)   bands (ev):

   -64.9817 -64.9817 -64.9817 -64.9807 -31.7823 -31.7820 -31.7820 -31.7820
   -31.7369 -31.7367 -31.7366 -31.7365 -31.7277 -31.7276 -31.7274 -31.7273
    -8.2636  -8.2635  -8.2597  -8.2596   3.5553   3.5554   3.5588   3.5589
     6.4147   6.4148   6.4225   6.4225   6.9571   6.9572   6.9601   6.9603

          k =-0.5000 0.0000 0.0000 (  5214 PWs)   bands (ev):

   -64.9841 -64.9836 -64.9794 -64.9788 -31.7648 -31.7646 -31.7606 -31.7604
   -31.7538 -31.7538 -31.7478 -31.7478 -31.7331 -31.7329 -31.7307 -31.7305
    -8.7327  -8.7326  -7.9552  -7.9551   4.7497   4.7498   4.7625   4.7626
     5.0250   5.0253   5.8798   5.8802   6.8498   6.8499   6.8732   6.8732

          k =-0.5000 0.0000 0.2500 (  5206 PWs)   bands (ev):

   -64.9834 -64.9829 -64.9801 -64.9795 -31.7696 -31.7695 -31.7622 -31.7621
   -31.7565 -31.7563 -31.7379 -31.7379 -31.7353 -31.7351 -31.7297 -31.7296
    -8.5993  -8.5992  -8.0454  -8.0453   4.3364   4.3365   4.6645   4.6648
     5.0085   5.0085   6.4406   6.4409   6.4649   6.4649   6.9883   6.9884

          k =-0.5000 0.0000-0.5000 (  5248 PWs)   bands (ev):

   -64.9817 -64.9817 -64.9817 -64.9807 -31.7711 -31.7708 -31.7707 -31.7707
   -31.7472 -31.7470 -31.7470 -31.7468 -31.7308 -31.7306 -31.7305 -31.7305
    -8.3009  -8.3007  -8.3007  -8.3007   4.2168   4.2169   4.2169   4.2171
     5.6693   5.6694   5.6696   5.6697   6.9501   6.9502   6.9502   6.9504

          k =-0.5000 0.2513 0.0000 (  5204 PWs)   bands (ev):

   -64.9834 -64.9829 -64.9801 -64.9795 -31.7677 -31.7676 -31.7620 -31.7619
   -31.7595 -31.7593 -31.7385 -31.7383 -31.7366 -31.7365 -31.7270 -31.7269
    -8.5977  -8.5976  -8.0436  -8.0435   4.3295   4.3295   4.6526   4.6529
     4.9999   5.0000   6.4519   6.4522   6.4801   6.4802   6.9794   6.9795

          k =-0.5000 0.2513 0.2500 (  5180 PWs)   bands (ev):

   -64.9829 -64.9825 -64.9806 -64.9799 -31.7789 -31.7787 -31.7720 -31.7719
   -31.7444 -31.7442 -31.7339 -31.7338 -31.7317 -31.7316 -31.7289 -31.7287
    -8.4899  -8.4898  -8.0942  -8.0941   3.7407   3.7408   4.1115   4.1117
     5.7328   5.7329   6.6358   6.6361   6.7596   6.7597   6.9096   6.9097

          k =-0.5000 0.2513-0.5000 (  5208 PWs)   bands (ev):

   -64.9817 -64.9817 -64.9817 -64.9807 -31.7827 -31.7824 -31.7824 -31.7824
   -31.7345 -31.7342 -31.7342 -31.7341 -31.7302 -31.7300 -31.7299 -31.7299
    -8.2634  -8.2633  -8.2633  -8.2633   3.5632   3.5634   3.5634   3.5634
     6.4244   6.4244   6.4246   6.4247   6.9512   6.9514   6.9514   6.9516

          k =-0.5000-0.5025 0.0000 (  5224 PWs)   bands (ev):

   -64.9818 -64.9817 -64.9817 -64.9807 -31.7696 -31.7695 -31.7692 -31.7692
   -31.7500 -31.7498 -31.7496 -31.7493 -31.7287 -31.7285 -31.7283 -31.7282
    -8.3001  -8.3000  -8.2947  -8.2945   4.1970   4.1972   4.1993   4.1994
     5.6649   5.6649   5.6783   5.6784   6.9554   6.9556   6.9598   6.9599

          k =-0.5000-0.5025 0.2500 (  5200 PWs)   bands (ev):

   -64.9817 -64.9817 -64.9817 -64.9807 -31.7823 -31.7820 -31.7820 -31.7819
   -31.7369 -31.7367 -31.7366 -31.7365 -31.7277 -31.7275 -31.7274 -31.7273
    -8.2636  -8.2635  -8.2597  -8.2596   3.5553   3.5554   3.5588   3.5588
     6.4147   6.4147   6.4225   6.4225   6.9571   6.9573   6.9602   6.9603

          k =-0.5000-0.5025-0.5000 (  5232 PWs)   bands (ev):

   -64.9817 -64.9817 -64.9817 -64.9807 -31.7909 -31.7907 -31.7907 -31.7906
   -31.7301 -31.7299 -31.7298 -31.7298 -31.7275 -31.7273 -31.7273 -31.7272
    -8.2255  -8.2253  -8.2253  -8.2253   3.1410   3.1411   3.1411   3.1411
     6.9522   6.9524   6.9524   6.9525   6.9617   6.9617   6.9619   6.9619

          k = 0.0000 0.2513-0.2500 (  5213 PWs)   bands (ev):

   -64.9859 -64.9806 -64.9802 -64.9792 -31.7737 -31.7713 -31.7704 -31.7583
   -31.7482 -31.7479 -31.7443 -31.7404 -31.7389 -31.7375 -31.7290 -31.7213
    -9.0432  -8.1623  -8.1531  -7.9914   4.0733   4.0777   4.2413   4.9795
     5.7342   5.9453   5.9689   6.3695   6.3779   6.4841   7.0651   7.3901

          k =-0.2500 0.2513-0.2500 (  5200 PWs)   bands (ev):

   -64.9850 -64.9806 -64.9805 -64.9798 -31.7765 -31.7764 -31.7752 -31.7578
   -31.7456 -31.7455 -31.7450 -31.7379 -31.7355 -31.7355 -31.7262 -31.7235
    -8.8776  -8.1294  -8.1293  -8.1229   3.9156   3.9178   3.9178   4.9890
     5.7456   5.7457   5.7532   6.5897   6.6039   6.6040   7.2417   7.2432

          k = 0.5000 0.2513-0.2500 (  5180 PWs)   bands (ev):

   -64.9829 -64.9825 -64.9806 -64.9799 -31.7789 -31.7787 -31.7720 -31.7719
   -31.7444 -31.7442 -31.7339 -31.7338 -31.7317 -31.7316 -31.7289 -31.7287
    -8.4899  -8.4898  -8.0942  -8.0941   3.7407   3.7408   4.1115   4.1117
     5.7328   5.7329   6.6358   6.6361   6.7596   6.7597   6.9096   6.9097

     highest occupied level (ev):     7.5585

!    total energy              =    -608.39242809 Ry
     Harris-Foulkes estimate   =    -608.39242809 Ry
     estimated scf accuracy    <          9.5E-11 Ry

     The total energy is the sum of the following terms:

     one-electron contribution =    -305.49503351 Ry
     hartree contribution      =     168.71551887 Ry
     xc contribution           =     -97.80582587 Ry
     ewald contribution        =    -373.80708759 Ry

     convergence has been achieved in   6 iterations

     Forces acting on atoms (cartesian axes, Ry/au):

     atom    1 type  1   force =     0.00000000    0.00102253   -0.00000520
     atom    2 type  1   force =     0.00000000   -0.00108375    0.00000548
     atom    3 type  1   force =     0.00000000    0.00112521    0.00000550
     atom    4 type  1   force =     0.00000000   -0.00108433   -0.00000572
     atom    5 type  2   force =     0.00000000    0.00105500   -0.00000536
     atom    6 type  2   force =     0.00000000   -0.00104474   -0.00000539
     atom    7 type  2   force =     0.00000000    0.00105373    0.00000533
     atom    8 type  2   force =     0.00000000   -0.00104365    0.00000537

     Total force =     0.003011     Total SCF correction =     0.000005


     Computing stress (Cartesian axis) and pressure

          total   stress  (Ry/bohr**3)                   (kbar)     P=  -81.66
  -0.00057342   0.00000000   0.00000000        -84.35      0.00      0.00
   0.00000000  -0.00051820   0.00000000          0.00    -76.23      0.00
   0.00000000   0.00000000  -0.00057364          0.00      0.00    -84.39


     number of scf cycles    =   3
     number of bfgs steps    =   2

     energy   old            =    -608.3923868367 Ry
     energy   new            =    -608.3924280915 Ry

     CASE: energy  _new < energy  _old

     new trust radius        =       0.0036699756 bohr
     new conv_thr            =       0.0000000004 Ry


ATOMIC_POSITIONS (alat)
Mg       0.000000000   0.001147550  -0.000005553
Mg       0.000000000   0.498840859   0.500005558
Mg       0.500000000   0.001190022   0.500005604
Mg       0.500000000   0.498840809  -0.000005747
O        0.500000000   0.001258028  -0.000006105
O        0.000000000   0.498734206  -0.000006112
O        0.000000000   0.001258365   0.500006170
O        0.500000000   0.498730161   0.500006185



     Writing output data file diamond.8.08497375.70.4.save
     NEW-OLD atomic charge density approx. for the potential

     Check: negative/imaginary core charge=   -0.000007    0.000000

     total cpu time spent up to now is       30.4 secs

     per-process dynamical memory:    52.0 Mb

     Self-consistent Calculation

     iteration #  1     ecut=    70.00 Ry     beta=0.70
     Davidson diagonalization with overlap
     ethr =  1.00E-06,  avg # of iterations =  3.0

     Threshold (ethr) on eigenvalues was too large:
     Diagonalizing with lowered threshold

     Davidson diagonalization with overlap
     ethr =  2.69E-08,  avg # of iterations =  1.1

     total cpu time spent up to now is       33.2 secs

     total energy              =    -608.39243753 Ry
     Harris-Foulkes estimate   =    -608.39245021 Ry
     estimated scf accuracy    <       0.00001734 Ry

     iteration #  2     ecut=    70.00 Ry     beta=0.70
     Davidson diagonalization with overlap
     ethr =  2.71E-08,  avg # of iterations =  2.2

     total cpu time spent up to now is       34.5 secs

     total energy              =    -608.39244277 Ry
     Harris-Foulkes estimate   =    -608.39244453 Ry
     estimated scf accuracy    <       0.00000293 Ry

     iteration #  3     ecut=    70.00 Ry     beta=0.70
     Davidson diagonalization with overlap
     ethr =  4.57E-09,  avg # of iterations =  2.0

     total cpu time spent up to now is       35.7 secs

     total energy              =    -608.39244341 Ry
     Harris-Foulkes estimate   =    -608.39244340 Ry
     estimated scf accuracy    <       0.00000002 Ry

     iteration #  4     ecut=    70.00 Ry     beta=0.70
     Davidson diagonalization with overlap
     ethr =  3.26E-11,  avg # of iterations =  2.2

     total cpu time spent up to now is       37.0 secs

     total energy              =    -608.39244341 Ry
     Harris-Foulkes estimate   =    -608.39244341 Ry
     estimated scf accuracy    <          1.5E-09 Ry

     iteration #  5     ecut=    70.00 Ry     beta=0.70
     Davidson diagonalization with overlap
     ethr =  2.37E-12,  avg # of iterations =  2.1

     total cpu time spent up to now is       38.2 secs

     End of self-consistent calculation

          k = 0.0000 0.0000 0.0000 (  5185 PWs)   bands (ev):

   -64.9885 -64.9795 -64.9794 -64.9787 -31.7816 -31.7816 -31.7791 -31.7463
   -31.7463 -31.7452 -31.7452 -31.7432 -31.7431 -31.7199 -31.7199 -31.7171
    -9.4352  -8.0160  -8.0159  -8.0031   3.6738   3.6739   3.6900   6.2625
     6.2626   6.2666   6.2670   6.2979   6.2980   7.5465   7.5584   7.5585

          k = 0.0000 0.0000 0.2500 (  5198 PWs)   bands (ev):

   -64.9871 -64.9807 -64.9794 -64.9788 -31.7759 -31.7736 -31.7733 -31.7518
   -31.7479 -31.7469 -31.7459 -31.7417 -31.7395 -31.7327 -31.7247 -31.7220
    -9.2315  -8.2265  -7.9870  -7.9779   3.9612   3.9763   4.0068   5.7477
     5.7556   6.0626   6.0869   6.4281   6.4571   6.5476   7.3270   7.3427

          k = 0.0000 0.0000-0.5000 (  5214 PWs)   bands (ev):

   -64.9841 -64.9836 -64.9794 -64.9789 -31.7648 -31.7646 -31.7606 -31.7604
   -31.7539 -31.7539 -31.7478 -31.7478 -31.7331 -31.7329 -31.7307 -31.7305
    -8.7327  -8.7326  -7.9552  -7.9551   4.7498   4.7498   4.7625   4.7625
     5.0250   5.0253   5.8800   5.8804   6.8499   6.8499   6.8731   6.8732

          k = 0.0000 0.2513 0.0000 (  5185 PWs)   bands (ev):

   -64.9871 -64.9805 -64.9795 -64.9789 -31.7757 -31.7757 -31.7693 -31.7508
   -31.7508 -31.7439 -31.7439 -31.7426 -31.7426 -31.7283 -31.7247 -31.7247
    -9.2287  -8.2141  -7.9875  -7.9874   3.9646   3.9646   4.0159   5.7751
     5.7751   6.0547   6.0551   6.4256   6.4257   6.5375   7.3360   7.3361

          k = 0.0000 0.2513 0.2500 (  5213 PWs)   bands (ev):

   -64.9859 -64.9806 -64.9802 -64.9792 -31.7737 -31.7713 -31.7704 -31.7583
   -31.7483 -31.7479 -31.7443 -31.7404 -31.7389 -31.7375 -31.7290 -31.7213
    -9.0432  -8.1622  -8.1531  -7.9914   4.0733   4.0777   4.2414   4.9795
     5.7342   5.9453   5.9689   6.3695   6.3779   6.4841   7.0651   7.3901

          k = 0.0000 0.2513-0.5000 (  5204 PWs)   bands (ev):

   -64.9834 -64.9830 -64.9801 -64.9795 -31.7677 -31.7676 -31.7620 -31.7620
   -31.7595 -31.7593 -31.7385 -31.7383 -31.7366 -31.7366 -31.7270 -31.7269
    -8.5978  -8.5976  -8.0435  -8.0434   4.3295   4.3296   4.6527   4.6529
     5.0000   5.0000   6.4520   6.4522   6.4801   6.4801   6.9794   6.9795

          k = 0.0000-0.5025 0.0000 (  5190 PWs)   bands (ev):

   -64.9840 -64.9836 -64.9795 -64.9789 -31.7640 -31.7640 -31.7638 -31.7638
   -31.7513 -31.7512 -31.7420 -31.7419 -31.7337 -31.7336 -31.7334 -31.7334
    -8.7241  -8.7239  -7.9586  -7.9585   4.7630   4.7630   4.7635   4.7635
     5.0202   5.0205   5.8554   5.8557   6.8526   6.8527   6.8527   6.8528

          k = 0.0000-0.5025 0.2500 (  5194 PWs)   bands (ev):

   -64.9833 -64.9829 -64.9801 -64.9796 -31.7685 -31.7684 -31.7604 -31.7604
   -31.7593 -31.7591 -31.7388 -31.7386 -31.7349 -31.7348 -31.7285 -31.7284
    -8.5921  -8.5919  -8.0466  -8.0465   4.3291   4.3295   4.6490   4.6493
     5.0096   5.0101   6.4374   6.4377   6.4667   6.4669   6.9850   6.9851

          k = 0.0000-0.5025-0.5000 (  5224 PWs)   bands (ev):

   -64.9817 -64.9817 -64.9817 -64.9807 -31.7696 -31.7694 -31.7693 -31.7693
   -31.7499 -31.7497 -31.7497 -31.7494 -31.7287 -31.7285 -31.7283 -31.7283
    -8.2974  -8.2973  -8.2973  -8.2972   4.1982   4.1982   4.1984   4.1986
     5.6714   5.6714   5.6718   5.6719   6.9575   6.9576   6.9576   6.9578

          k = 0.2500 0.0000 0.0000 (  5198 PWs)   bands (ev):

   -64.9871 -64.9807 -64.9794 -64.9788 -31.7759 -31.7736 -31.7733 -31.7518
   -31.7479 -31.7468 -31.7459 -31.7418 -31.7395 -31.7327 -31.7248 -31.7220
    -9.2315  -8.2264  -7.9871  -7.9779   3.9612   3.9763   4.0068   5.7478
     5.7558   6.0624   6.0868   6.4280   6.4571   6.5475   7.3269   7.3427

          k = 0.2500 0.0000 0.2500 (  5209 PWs)   bands (ev):

   -64.9860 -64.9806 -64.9802 -64.9792 -31.7736 -31.7735 -31.7683 -31.7596
   -31.7453 -31.7444 -31.7444 -31.7411 -31.7403 -31.7402 -31.7262 -31.7230
    -9.0457  -8.1626  -8.1624  -7.9852   4.0766   4.0766   4.2525   4.9794
     5.7490   5.9504   5.9508   6.3926   6.3926   6.4677   7.0536   7.3922

          k = 0.2500 0.0000-0.5000 (  5206 PWs)   bands (ev):

   -64.9834 -64.9830 -64.9801 -64.9795 -31.7696 -31.7695 -31.7622 -31.7621
   -31.7565 -31.7563 -31.7380 -31.7379 -31.7353 -31.7351 -31.7297 -31.7296
    -8.5993  -8.5992  -8.0453  -8.0452   4.3365   4.3365   4.6646   4.6648
     5.0084   5.0084   6.4410   6.4413   6.4647   6.4647   6.9883   6.9884

          k = 0.2500 0.2513 0.0000 (  5213 PWs)   bands (ev):

   -64.9859 -64.9806 -64.9802 -64.9792 -31.7737 -31.7713 -31.7704 -31.7583
   -31.7483 -31.7479 -31.7443 -31.7404 -31.7389 -31.7375 -31.7291 -31.7213
    -9.0432  -8.1622  -8.1531  -7.9914   4.0733   4.0776   4.2413   4.9795
     5.7341   5.9454   5.9689   6.3695   6.3778   6.4841   7.0652   7.3901

          k = 0.2500 0.2513 0.2500 (  5200 PWs)   bands (ev):

   -64.9850 -64.9806 -64.9806 -64.9798 -31.7765 -31.7764 -31.7752 -31.7578
   -31.7456 -31.7455 -31.7450 -31.7379 -31.7356 -31.7355 -31.7262 -31.7235
    -8.8775  -8.1294  -8.1293  -8.1229   3.9156   3.9178   3.9178   4.9890
     5.7456   5.7458   5.7532   6.5897   6.6039   6.6040   7.2417   7.2432

          k = 0.2500 0.2513-0.5000 (  5182 PWs)   bands (ev):

   -64.9829 -64.9825 -64.9806 -64.9800 -31.7789 -31.7787 -31.7720 -31.7719
   -31.7445 -31.7442 -31.7340 -31.7340 -31.7317 -31.7316 -31.7289 -31.7287
    -8.4899  -8.4898  -8.0942  -8.0941   3.7408   3.7408   4.1116   4.1117
     5.7328   5.7329   6.6358   6.6361   6.7595   6.7597   6.9097   6.9097

          k = 0.2500-0.5025 0.0000 (  5194 PWs)   bands (ev):

   -64.9833 -64.9829 -64.9801 -64.9796 -31.7685 -31.7684 -31.7604 -31.7604
   -31.7593 -31.7591 -31.7388 -31.7386 -31.7349 -31.7348 -31.7285 -31.7283
    -8.5921  -8.5919  -8.0466  -8.0465   4.3291   4.3295   4.6490   4.6492
     5.0096   5.0100   6.4375   6.4377   6.4668   6.4670   6.9849   6.9851

          k = 0.2500-0.5025 0.2500 (  5192 PWs)   bands (ev):

   -64.9829 -64.9825 -64.9806 -64.9800 -31.7795 -31.7793 -31.7718 -31.7717
   -31.7460 -31.7458 -31.7322 -31.7320 -31.7320 -31.7319 -31.7297 -31.7297
    -8.4853  -8.4851  -8.0959  -8.0958   3.7395   3.7396   4.1036   4.1038
     5.7335   5.7336   6.6317   6.6320   6.7664   6.7667   6.9013   6.9014

          k = 0.2500-0.5025-0.5000 (  5200 PWs)   bands (ev):

   -64.9817 -64.9817 -64.9817 -64.9807 -31.7823 -31.7820 -31.7820 -31.7820
   -31.7369 -31.7367 -31.7367 -31.7365 -31.7277 -31.7275 -31.7274 -31.7274
    -8.2617  -8.2616  -8.2615  -8.2615   3.5570   3.5571   3.5571   3.5572
     6.4185   6.4185   6.4188   6.4188   6.9585   6.9587   6.9587   6.9589

          k =-0.5000 0.0000 0.0000 (  5214 PWs)   bands (ev):

   -64.9841 -64.9836 -64.9794 -64.9789 -31.7648 -31.7646 -31.7606 -31.7604
   -31.7539 -31.7538 -31.7478 -31.7478 -31.7332 -31.7329 -31.7307 -31.7305
    -8.7326  -8.7325  -7.9552  -7.9551   4.7498   4.7498   4.7625   4.7626
     5.0250   5.0253   5.8799   5.8802   6.8498   6.8498   6.8732   6.8732

          k =-0.5000 0.0000 0.2500 (  5206 PWs)   bands (ev):

   -64.9834 -64.9830 -64.9801 -64.9795 -31.7696 -31.7695 -31.7622 -31.7621
   -31.7565 -31.7563 -31.7379 -31.7379 -31.7353 -31.7351 -31.7297 -31.7296
    -8.5993  -8.5992  -8.0453  -8.0453   4.3365   4.3365   4.6646   4.6648
     5.0085   5.0085   6.4410   6.4412   6.4646   6.4646   6.9883   6.9884

          k =-0.5000 0.0000-0.5000 (  5248 PWs)   bands (ev):

   -64.9817 -64.9817 -64.9817 -64.9807 -31.7711 -31.7709 -31.7708 -31.7708
   -31.7472 -31.7470 -31.7470 -31.7468 -31.7309 -31.7307 -31.7305 -31.7305
    -8.3009  -8.3007  -8.3007  -8.3006   4.2168   4.2169   4.2169   4.2171
     5.6693   5.6693   5.6696   5.6696   6.9501   6.9502   6.9502   6.9505

          k =-0.5000 0.2513 0.0000 (  5204 PWs)   bands (ev):

   -64.9834 -64.9830 -64.9801 -64.9795 -31.7677 -31.7676 -31.7620 -31.7619
   -31.7595 -31.7593 -31.7385 -31.7383 -31.7366 -31.7366 -31.7270 -31.7269
    -8.5977  -8.5976  -8.0435  -8.0435   4.3295   4.3295   4.6527   4.6529
     5.0000   5.0000   6.4520   6.4522   6.4801   6.4801   6.9794   6.9795

          k =-0.5000 0.2513 0.2500 (  5180 PWs)   bands (ev):

   -64.9829 -64.9825 -64.9806 -64.9800 -31.7789 -31.7787 -31.7720 -31.7719
   -31.7444 -31.7442 -31.7339 -31.7338 -31.7317 -31.7316 -31.7289 -31.7287
    -8.4899  -8.4898  -8.0942  -8.0941   3.7407   3.7408   4.1116   4.1117
     5.7329   5.7329   6.6359   6.6361   6.7596   6.7597   6.9096   6.9096

          k =-0.5000 0.2513-0.5000 (  5208 PWs)   bands (ev):

   -64.9817 -64.9817 -64.9817 -64.9807 -31.7827 -31.7824 -31.7824 -31.7824
   -31.7345 -31.7343 -31.7343 -31.7341 -31.7302 -31.7300 -31.7299 -31.7299
    -8.2634  -8.2633  -8.2633  -8.2632   3.5633   3.5634   3.5634   3.5634
     6.4244   6.4244   6.4246   6.4247   6.9513   6.9514   6.9514   6.9516

          k =-0.5000-0.5025 0.0000 (  5224 PWs)   bands (ev):

   -64.9817 -64.9817 -64.9817 -64.9807 -31.7696 -31.7694 -31.7693 -31.7693
   -31.7499 -31.7497 -31.7497 -31.7495 -31.7286 -31.7285 -31.7283 -31.7283
    -8.2974  -8.2973  -8.2972  -8.2972   4.1981   4.1981   4.1983   4.1985
     5.6714   5.6714   5.6719   5.6719   6.9575   6.9576   6.9577   6.9579

          k =-0.5000-0.5025 0.2500 (  5200 PWs)   bands (ev):

   -64.9817 -64.9817 -64.9817 -64.9807 -31.7823 -31.7820 -31.7820 -31.7820
   -31.7369 -31.7367 -31.7367 -31.7366 -31.7277 -31.7275 -31.7274 -31.7274
    -8.2617  -8.2616  -8.2615  -8.2615   3.5570   3.5570   3.5571   3.5572
     6.4184   6.4185   6.4188   6.4188   6.9586   6.9587   6.9587   6.9589

          k =-0.5000-0.5025-0.5000 (  5232 PWs)   bands (ev):

   -64.9817 -64.9817 -64.9817 -64.9807 -31.7909 -31.7907 -31.7907 -31.7907
   -31.7302 -31.7300 -31.7298 -31.7298 -31.7276 -31.7273 -31.7273 -31.7272
    -8.2255  -8.2253  -8.2253  -8.2253   3.1410   3.1411   3.1411   3.1411
     6.9522   6.9524   6.9524   6.9526   6.9617   6.9617   6.9619   6.9619

          k = 0.0000 0.2513-0.2500 (  5213 PWs)   bands (ev):

   -64.9859 -64.9806 -64.9802 -64.9792 -31.7737 -31.7713 -31.7704 -31.7583
   -31.7483 -31.7479 -31.7443 -31.7404 -31.7389 -31.7375 -31.7290 -31.7213
    -9.0432  -8.1622  -8.1531  -7.9914   4.0733   4.0777   4.2414   4.9795
     5.7342   5.9453   5.9689   6.3695   6.3779   6.4841   7.0651   7.3901

          k =-0.2500 0.2513-0.2500 (  5200 PWs)   bands (ev):

   -64.9850 -64.9806 -64.9806 -64.9798 -31.7765 -31.7764 -31.7752 -31.7578
   -31.7456 -31.7455 -31.7450 -31.7379 -31.7356 -31.7355 -31.7262 -31.7235
    -8.8775  -8.1294  -8.1293  -8.1229   3.9156   3.9178   3.9178   4.9890
     5.7456   5.7458   5.7532   6.5897   6.6039   6.6040   7.2417   7.2432

          k = 0.5000 0.2513-0.2500 (  5180 PWs)   bands (ev):

   -64.9829 -64.9825 -64.9806 -64.9800 -31.7789 -31.7787 -31.7720 -31.7719
   -31.7444 -31.7442 -31.7339 -31.7338 -31.7317 -31.7316 -31.7289 -31.7287
    -8.4899  -8.4898  -8.0942  -8.0941   3.7407   3.7408   4.1116   4.1117
     5.7329   5.7329   6.6359   6.6361   6.7596   6.7597   6.9096   6.9096

     highest occupied level (ev):     7.5585

!    total energy              =    -608.39244341 Ry
     Harris-Foulkes estimate   =    -608.39244341 Ry
     estimated scf accuracy    <          2.4E-10 Ry

     The total energy is the sum of the following terms:

     one-electron contribution =    -305.49185961 Ry
     hartree contribution      =     168.71391667 Ry
     xc contribution           =     -97.80579128 Ry
     ewald contribution        =    -373.80870920 Ry

     convergence has been achieved in   5 iterations

     Forces acting on atoms (cartesian axes, Ry/au):

     atom    1 type  1   force =     0.00000000    0.00001392   -0.00000045
     atom    2 type  1   force =     0.00000000   -0.00011291    0.00000097
     atom    3 type  1   force =     0.00000000    0.00014005    0.00000095
     atom    4 type  1   force =     0.00000000   -0.00011303   -0.00000108
     atom    5 type  2   force =     0.00000000   -0.00006306   -0.00000010
     atom    6 type  2   force =     0.00000000    0.00009146   -0.00000008
     atom    7 type  2   force =     0.00000000   -0.00006498   -0.00000008
     atom    8 type  2   force =     0.00000000    0.00010854   -0.00000013

     Total force =     0.000271     Total SCF correction =     0.000148
     SCF correction compared to forces is large: reduce conv_thr to get better values


     Computing stress (Cartesian axis) and pressure

          total   stress  (Ry/bohr**3)                   (kbar)     P=  -81.67
  -0.00057344   0.00000000   0.00000000        -84.36      0.00      0.00
   0.00000000  -0.00051854   0.00000000          0.00    -76.28      0.00
   0.00000000   0.00000000  -0.00057366          0.00      0.00    -84.39


     number of scf cycles    =   4
     number of bfgs steps    =   3

     energy   old            =    -608.3924280915 Ry
     energy   new            =    -608.3924434143 Ry

     CASE: energy  _new < energy  _old

     new trust radius        =       0.0001619717 bohr
     new conv_thr            =       0.0000000001 Ry


ATOMIC_POSITIONS (alat)
Mg       0.000000000   0.001151770  -0.000005621
Mg       0.000000000   0.498824275   0.500005691
Mg       0.500000000   0.001210055   0.500005734
Mg       0.500000000   0.498824211  -0.000005894
O        0.500000000   0.001252885  -0.000006132
O        0.000000000   0.498742873  -0.000006134
O        0.000000000   0.001252984   0.500006173
O        0.500000000   0.498740946   0.500006182



     Writing output data file diamond.8.08497375.70.4.save
     NEW-OLD atomic charge density approx. for the potential

     Check: negative/imaginary core charge=   -0.000007    0.000000

     total cpu time spent up to now is       39.0 secs

     per-process dynamical memory:    52.0 Mb

     Self-consistent Calculation

     iteration #  1     ecut=    70.00 Ry     beta=0.70
     Davidson diagonalization with overlap
     ethr =  1.00E-06,  avg # of iterations =  1.6

     Threshold (ethr) on eigenvalues was too large:
     Diagonalizing with lowered threshold

     Davidson diagonalization with overlap
     ethr =  1.44E-11,  avg # of iterations =  3.2

     total cpu time spent up to now is       41.9 secs

     total energy              =    -608.39244348 Ry
     Harris-Foulkes estimate   =    -608.39244348 Ry
     estimated scf accuracy    <          2.4E-09 Ry

     iteration #  2     ecut=    70.00 Ry     beta=0.70
     Davidson diagonalization with overlap
     ethr =  3.82E-12,  avg # of iterations =  3.0

     total cpu time spent up to now is       43.2 secs

     total energy              =    -608.39244348 Ry
     Harris-Foulkes estimate   =    -608.39244348 Ry
     estimated scf accuracy    <          1.2E-09 Ry

     iteration #  3     ecut=    70.00 Ry     beta=0.70
     Davidson diagonalization with overlap
     ethr =  1.84E-12,  avg # of iterations =  3.0

     total cpu time spent up to now is       44.6 secs

     total energy              =    -608.39244348 Ry
     Harris-Foulkes estimate   =    -608.39244348 Ry
     estimated scf accuracy    <          2.1E-10 Ry

     iteration #  4     ecut=    70.00 Ry     beta=0.70
     Davidson diagonalization with overlap
     ethr =  3.32E-13,  avg # of iterations =  2.8

     total cpu time spent up to now is       45.8 secs

     End of self-consistent calculation

          k = 0.0000 0.0000 0.0000 (  5185 PWs)   bands (ev):

   -64.9885 -64.9795 -64.9794 -64.9787 -31.7816 -31.7816 -31.7790 -31.7463
   -31.7463 -31.7452 -31.7452 -31.7432 -31.7431 -31.7199 -31.7199 -31.7171
    -9.4352  -8.0160  -8.0159  -8.0031   3.6738   3.6739   3.6900   6.2625
     6.2626   6.2666   6.2670   6.2979   6.2980   7.5465   7.5584   7.5585

          k = 0.0000 0.0000 0.2500 (  5198 PWs)   bands (ev):

   -64.9871 -64.9807 -64.9794 -64.9788 -31.7759 -31.7736 -31.7733 -31.7518
   -31.7479 -31.7469 -31.7459 -31.7417 -31.7395 -31.7327 -31.7247 -31.7220
    -9.2315  -8.2265  -7.9870  -7.9779   3.9612   3.9763   4.0067   5.7477
     5.7556   6.0626   6.0869   6.4281   6.4571   6.5476   7.3269   7.3427

          k = 0.0000 0.0000-0.5000 (  5214 PWs)   bands (ev):

   -64.9841 -64.9836 -64.9794 -64.9789 -31.7648 -31.7646 -31.7606 -31.7604
   -31.7539 -31.7539 -31.7478 -31.7478 -31.7331 -31.7329 -31.7307 -31.7305
    -8.7327  -8.7326  -7.9552  -7.9551   4.7498   4.7498   4.7625   4.7625
     5.0250   5.0253   5.8800   5.8804   6.8499   6.8499   6.8731   6.8732

          k = 0.0000 0.2513 0.0000 (  5185 PWs)   bands (ev):

   -64.9871 -64.9805 -64.9795 -64.9789 -31.7757 -31.7757 -31.7693 -31.7508
   -31.7508 -31.7439 -31.7439 -31.7426 -31.7426 -31.7283 -31.7247 -31.7247
    -9.2287  -8.2141  -7.9875  -7.9874   3.9646   3.9646   4.0159   5.7751
     5.7751   6.0547   6.0551   6.4256   6.4257   6.5375   7.3360   7.3361

          k = 0.0000 0.2513 0.2500 (  5213 PWs)   bands (ev):

   -64.9859 -64.9806 -64.9802 -64.9792 -31.7737 -31.7713 -31.7704 -31.7583
   -31.7483 -31.7479 -31.7443 -31.7404 -31.7389 -31.7375 -31.7290 -31.7213
    -9.0432  -8.1623  -8.1531  -7.9914   4.0733   4.0777   4.2414   4.9795
     5.7342   5.9453   5.9689   6.3695   6.3779   6.4841   7.0651   7.3901

          k = 0.0000 0.2513-0.5000 (  5204 PWs)   bands (ev):

   -64.9834 -64.9830 -64.9801 -64.9795 -31.7677 -31.7676 -31.7620 -31.7620
   -31.7595 -31.7593 -31.7385 -31.7383 -31.7366 -31.7366 -31.7270 -31.7269
    -8.5978  -8.5977  -8.0435  -8.0435   4.3295   4.3296   4.6527   4.6529
     5.0000   5.0000   6.4520   6.4522   6.4801   6.4801   6.9794   6.9795

          k = 0.0000-0.5025 0.0000 (  5190 PWs)   bands (ev):

   -64.9840 -64.9835 -64.9795 -64.9789 -31.7640 -31.7640 -31.7638 -31.7638
   -31.7513 -31.7512 -31.7420 -31.7419 -31.7337 -31.7336 -31.7334 -31.7334
    -8.7241  -8.7239  -7.9586  -7.9585   4.7629   4.7630   4.7635   4.7635
     5.0202   5.0205   5.8554   5.8557   6.8525   6.8527   6.8527   6.8528

          k = 0.0000-0.5025 0.2500 (  5194 PWs)   bands (ev):

   -64.9833 -64.9829 -64.9801 -64.9796 -31.7685 -31.7684 -31.7604 -31.7604
   -31.7593 -31.7591 -31.7388 -31.7386 -31.7349 -31.7348 -31.7285 -31.7284
    -8.5921  -8.5919  -8.0466  -8.0465   4.3291   4.3295   4.6490   4.6493
     5.0096   5.0101   6.4374   6.4377   6.4667   6.4669   6.9850   6.9851

          k = 0.0000-0.5025-0.5000 (  5224 PWs)   bands (ev):

   -64.9817 -64.9817 -64.9817 -64.9807 -31.7696 -31.7694 -31.7693 -31.7693
   -31.7499 -31.7497 -31.7497 -31.7494 -31.7286 -31.7285 -31.7283 -31.7283
    -8.2974  -8.2973  -8.2972  -8.2972   4.1982   4.1983   4.1984   4.1985
     5.6713   5.6714   5.6719   5.6719   6.9575   6.9576   6.9576   6.9578

          k = 0.2500 0.0000 0.0000 (  5198 PWs)   bands (ev):

   -64.9871 -64.9807 -64.9794 -64.9788 -31.7759 -31.7736 -31.7733 -31.7518
   -31.7479 -31.7468 -31.7459 -31.7418 -31.7395 -31.7327 -31.7247 -31.7220
    -9.2315  -8.2264  -7.9871  -7.9779   3.9612   3.9763   4.0068   5.7478
     5.7558   6.0624   6.0868   6.4279   6.4571   6.5475   7.3269   7.3427

          k = 0.2500 0.0000 0.2500 (  5209 PWs)   bands (ev):

   -64.9860 -64.9806 -64.9802 -64.9792 -31.7736 -31.7735 -31.7683 -31.7596
   -31.7453 -31.7444 -31.7444 -31.7411 -31.7403 -31.7402 -31.7262 -31.7230
    -9.0457  -8.1626  -8.1625  -7.9852   4.0766   4.0766   4.2525   4.9794
     5.7490   5.9504   5.9508   6.3925   6.3926   6.4677   7.0536   7.3922

          k = 0.2500 0.0000-0.5000 (  5206 PWs)   bands (ev):

   -64.9834 -64.9830 -64.9801 -64.9795 -31.7696 -31.7695 -31.7622 -31.7621
   -31.7565 -31.7563 -31.7379 -31.7379 -31.7353 -31.7351 -31.7297 -31.7296
    -8.5993  -8.5992  -8.0453  -8.0453   4.3365   4.3365   4.6646   4.6648
     5.0084   5.0084   6.4410   6.4413   6.4647   6.4647   6.9883   6.9884

          k = 0.2500 0.2513 0.0000 (  5213 PWs)   bands (ev):

   -64.9859 -64.9806 -64.9802 -64.9792 -31.7737 -31.7713 -31.7704 -31.7583
   -31.7483 -31.7479 -31.7443 -31.7404 -31.7389 -31.7375 -31.7291 -31.7213
    -9.0432  -8.1622  -8.1531  -7.9914   4.0733   4.0776   4.2413   4.9795
     5.7341   5.9454   5.9689   6.3695   6.3778   6.4841   7.0651   7.3901

          k = 0.2500 0.2513 0.2500 (  5200 PWs)   bands (ev):

   -64.9850 -64.9806 -64.9806 -64.9798 -31.7765 -31.7764 -31.7752 -31.7578
   -31.7456 -31.7455 -31.7450 -31.7379 -31.7356 -31.7355 -31.7262 -31.7235
    -8.8775  -8.1294  -8.1293  -8.1229   3.9156   3.9178   3.9178   4.9890
     5.7456   5.7457   5.7532   6.5897   6.6038   6.6040   7.2417   7.2432

          k = 0.2500 0.2513-0.5000 (  5182 PWs)   bands (ev):

   -64.9829 -64.9825 -64.9806 -64.9800 -31.7789 -31.7787 -31.7720 -31.7719
   -31.7445 -31.7442 -31.7340 -31.7340 -31.7317 -31.7316 -31.7289 -31.7287
    -8.4899  -8.4898  -8.0942  -8.0941   3.7407   3.7408   4.1116   4.1117
     5.7328   5.7329   6.6358   6.6361   6.7595   6.7597   6.9097   6.9097

          k = 0.2500-0.5025 0.0000 (  5194 PWs)   bands (ev):

   -64.9833 -64.9829 -64.9801 -64.9796 -31.7685 -31.7684 -31.7604 -31.7604
   -31.7593 -31.7591 -31.7388 -31.7386 -31.7349 -31.7348 -31.7285 -31.7283
    -8.5921  -8.5919  -8.0466  -8.0465   4.3291   4.3294   4.6490   4.6492
     5.0095   5.0100   6.4375   6.4377   6.4667   6.4670   6.9849   6.9851

          k = 0.2500-0.5025 0.2500 (  5192 PWs)   bands (ev):

   -64.9829 -64.9825 -64.9806 -64.9800 -31.7794 -31.7793 -31.7718 -31.7717
   -31.7460 -31.7458 -31.7322 -31.7320 -31.7320 -31.7319 -31.7297 -31.7297
    -8.4853  -8.4851  -8.0959  -8.0958   3.7395   3.7396   4.1037   4.1038
     5.7335   5.7336   6.6317   6.6320   6.7664   6.7667   6.9013   6.9014

          k = 0.2500-0.5025-0.5000 (  5200 PWs)   bands (ev):

   -64.9817 -64.9817 -64.9817 -64.9807 -31.7823 -31.7820 -31.7820 -31.7820
   -31.7369 -31.7367 -31.7367 -31.7365 -31.7277 -31.7275 -31.7274 -31.7274
    -8.2617  -8.2616  -8.2615  -8.2615   3.5570   3.5571   3.5571   3.5572
     6.4184   6.4185   6.4188   6.4188   6.9585   6.9587   6.9587   6.9589

          k =-0.5000 0.0000 0.0000 (  5214 PWs)   bands (ev):

   -64.9841 -64.9836 -64.9794 -64.9789 -31.7648 -31.7646 -31.7606 -31.7604
   -31.7539 -31.7538 -31.7478 -31.7478 -31.7332 -31.7329 -31.7307 -31.7305
    -8.7326  -8.7325  -7.9552  -7.9551   4.7498   4.7498   4.7625   4.7626
     5.0250   5.0253   5.8799   5.8802   6.8498   6.8498   6.8732   6.8732

          k =-0.5000 0.0000 0.2500 (  5206 PWs)   bands (ev):

   -64.9834 -64.9830 -64.9801 -64.9795 -31.7696 -31.7695 -31.7622 -31.7621
   -31.7565 -31.7563 -31.7379 -31.7379 -31.7353 -31.7351 -31.7297 -31.7296
    -8.5993  -8.5992  -8.0454  -8.0453   4.3365   4.3365   4.6646   4.6648
     5.0084   5.0085   6.4409   6.4412   6.4646   6.4646   6.9883   6.9884

          k =-0.5000 0.0000-0.5000 (  5248 PWs)   bands (ev):

   -64.9817 -64.9817 -64.9817 -64.9807 -31.7711 -31.7709 -31.7708 -31.7708
   -31.7472 -31.7470 -31.7470 -31.7468 -31.7309 -31.7306 -31.7305 -31.7305
    -8.3009  -8.3007  -8.3007  -8.3007   4.2168   4.2169   4.2169   4.2171
     5.6693   5.6693   5.6696   5.6696   6.9501   6.9502   6.9502   6.9504

          k =-0.5000 0.2513 0.0000 (  5204 PWs)   bands (ev):

   -64.9834 -64.9830 -64.9801 -64.9795 -31.7677 -31.7676 -31.7620 -31.7619
   -31.7595 -31.7593 -31.7385 -31.7383 -31.7366 -31.7366 -31.7270 -31.7269
    -8.5977  -8.5976  -8.0435  -8.0435   4.3295   4.3295   4.6526   4.6529
     5.0000   5.0000   6.4520   6.4522   6.4801   6.4801   6.9794   6.9795

          k =-0.5000 0.2513 0.2500 (  5180 PWs)   bands (ev):

   -64.9829 -64.9825 -64.9806 -64.9800 -31.7789 -31.7787 -31.7720 -31.7719
   -31.7444 -31.7442 -31.7339 -31.7338 -31.7317 -31.7316 -31.7289 -31.7287
    -8.4899  -8.4898  -8.0942  -8.0941   3.7407   3.7408   4.1115   4.1117
     5.7328   5.7329   6.6358   6.6361   6.7596   6.7597   6.9096   6.9096

          k =-0.5000 0.2513-0.5000 (  5208 PWs)   bands (ev):

   -64.9817 -64.9817 -64.9817 -64.9807 -31.7827 -31.7824 -31.7824 -31.7824
   -31.7345 -31.7343 -31.7343 -31.7341 -31.7302 -31.7300 -31.7299 -31.7299
    -8.2634  -8.2633  -8.2633  -8.2633   3.5632   3.5634   3.5634   3.5634
     6.4244   6.4244   6.4246   6.4246   6.9513   6.9514   6.9514   6.9516

          k =-0.5000-0.5025 0.0000 (  5224 PWs)   bands (ev):

   -64.9817 -64.9817 -64.9817 -64.9807 -31.7696 -31.7694 -31.7693 -31.7693
   -31.7499 -31.7497 -31.7497 -31.7495 -31.7286 -31.7285 -31.7283 -31.7283
    -8.2974  -8.2973  -8.2972  -8.2972   4.1981   4.1982   4.1983   4.1985
     5.6714   5.6714   5.6719   5.6719   6.9575   6.9576   6.9577   6.9578

          k =-0.5000-0.5025 0.2500 (  5200 PWs)   bands (ev):

   -64.9817 -64.9817 -64.9817 -64.9807 -31.7823 -31.7820 -31.7820 -31.7820
   -31.7369 -31.7367 -31.7367 -31.7365 -31.7277 -31.7275 -31.7274 -31.7274
    -8.2617  -8.2616  -8.2615  -8.2615   3.5570   3.5571   3.5571   3.5572
     6.4184   6.4185   6.4188   6.4188   6.9586   6.9587   6.9587   6.9589

          k =-0.5000-0.5025-0.5000 (  5232 PWs)   bands (ev):

   -64.9817 -64.9817 -64.9817 -64.9807 -31.7909 -31.7907 -31.7907 -31.7907
   -31.7301 -31.7299 -31.7298 -31.7298 -31.7276 -31.7273 -31.7273 -31.7272
    -8.2255  -8.2253  -8.2253  -8.2253   3.1410   3.1411   3.1411   3.1411
     6.9522   6.9524   6.9524   6.9526   6.9617   6.9617   6.9619   6.9619

          k = 0.0000 0.2513-0.2500 (  5213 PWs)   bands (ev):

   -64.9859 -64.9806 -64.9802 -64.9792 -31.7737 -31.7713 -31.7704 -31.7583
   -31.7483 -31.7479 -31.7443 -31.7404 -31.7389 -31.7375 -31.7290 -31.7213
    -9.0432  -8.1623  -8.1531  -7.9914   4.0733   4.0777   4.2414   4.9795
     5.7342   5.9453   5.9689   6.3695   6.3779   6.4841   7.0651   7.3901

          k =-0.2500 0.2513-0.2500 (  5200 PWs)   bands (ev):

   -64.9850 -64.9806 -64.9806 -64.9798 -31.7765 -31.7764 -31.7752 -31.7578
   -31.7456 -31.7455 -31.7450 -31.7379 -31.7356 -31.7355 -31.7262 -31.7235
    -8.8775  -8.1294  -8.1293  -8.1229   3.9156   3.9178   3.9178   4.9890
     5.7456   5.7457   5.7532   6.5897   6.6038   6.6040   7.2417   7.2432

          k = 0.5000 0.2513-0.2500 (  5180 PWs)   bands (ev):

   -64.9829 -64.9825 -64.9806 -64.9800 -31.7789 -31.7787 -31.7720 -31.7719
   -31.7444 -31.7442 -31.7339 -31.7338 -31.7317 -31.7316 -31.7289 -31.7287
    -8.4899  -8.4898  -8.0942  -8.0941   3.7407   3.7408   4.1115   4.1117
     5.7328   5.7329   6.6358   6.6361   6.7596   6.7597   6.9096   6.9096

     highest occupied level (ev):     7.5585

!    total energy              =    -608.39244348 Ry
     Harris-Foulkes estimate   =    -608.39244348 Ry
     estimated scf accuracy    <          4.9E-12 Ry

     The total energy is the sum of the following terms:

     one-electron contribution =    -305.49186814 Ry
     hartree contribution      =     168.71393462 Ry
     xc contribution           =     -97.80579836 Ry
     ewald contribution        =    -373.80871160 Ry

     convergence has been achieved in   4 iterations

     Forces acting on atoms (cartesian axes, Ry/au):

     atom    1 type  1   force =     0.00000000   -0.00000737   -0.00000024
     atom    2 type  1   force =     0.00000000   -0.00007530    0.00000068
     atom    3 type  1   force =     0.00000000    0.00009842    0.00000066
     atom    4 type  1   force =     0.00000000   -0.00007555   -0.00000079
     atom    5 type  2   force =     0.00000000   -0.00004658   -0.00000005
     atom    6 type  2   force =     0.00000000    0.00006654   -0.00000006
     atom    7 type  2   force =     0.00000000   -0.00004675   -0.00000006
     atom    8 type  2   force =     0.00000000    0.00008660   -0.00000014

     Total force =     0.000193     Total SCF correction =     0.000008


     Computing stress (Cartesian axis) and pressure

          total   stress  (Ry/bohr**3)                   (kbar)     P=  -81.67
  -0.00057341   0.00000000   0.00000000        -84.35      0.00      0.00
   0.00000000  -0.00051851   0.00000000          0.00    -76.28      0.00
   0.00000000   0.00000000  -0.00057363          0.00      0.00    -84.38


     bfgs converged in   5 scf cycles and   4 bfgs steps
     (criteria: energy <  1.0E-05 Ry, force <  1.0E-04 Ry/Bohr)

     End of BFGS Geometry Optimization

     Final energy   =    -608.3924434779 Ry
Begin final coordinates

ATOMIC_POSITIONS (alat)
Mg       0.000000000   0.001151770  -0.000005621
Mg       0.000000000   0.498824275   0.500005691
Mg       0.500000000   0.001210055   0.500005734
Mg       0.500000000   0.498824211  -0.000005894
O        0.500000000   0.001252885  -0.000006132
O        0.000000000   0.498742873  -0.000006134
O        0.000000000   0.001252984   0.500006173
O        0.500000000   0.498740946   0.500006182
End final coordinates



     Writing output data file diamond.8.08497375.70.4.save
 
     init_run     :      0.55s CPU      0.56s WALL (       1 calls)
     electrons    :     41.18s CPU     42.21s WALL (       5 calls)
     update_pot   :      0.46s CPU      0.47s WALL (       4 calls)
     forces       :      0.81s CPU      0.82s WALL (       5 calls)
     stress       :      1.88s CPU      1.90s WALL (       5 calls)

     Called by init_run:
     wfcinit      :      0.43s CPU      0.44s WALL (       1 calls)
     potinit      :      0.05s CPU      0.05s WALL (       1 calls)

     Called by electrons:
     c_bands      :     35.90s CPU     36.82s WALL (      32 calls)
     sum_band     :      5.08s CPU      5.18s WALL (      32 calls)
     v_of_rho     :      0.17s CPU      0.17s WALL (      33 calls)
     mix_rho      :      0.02s CPU      0.02s WALL (      32 calls)

     Called by c_bands:
     init_us_2    :      0.54s CPU      0.57s WALL (    2250 calls)
     cegterg      :     33.44s CPU     34.28s WALL (     960 calls)

     Called by sum_band:

     Called by *egterg:
     h_psi        :     24.60s CPU     25.11s WALL (    3184 calls)
     g_psi        :      0.19s CPU      0.19s WALL (    2194 calls)
     cdiaghg      :      4.73s CPU      4.73s WALL (    2914 calls)

     Called by h_psi:
     h_psi:pot    :     24.50s CPU     24.98s WALL (    3184 calls)
     h_psi:calbec :      1.41s CPU      1.41s WALL (    3184 calls)
     vloc_psi     :     21.92s CPU     22.38s WALL (    3184 calls)
     add_vuspsi   :      1.16s CPU      1.17s WALL (    3184 calls)

     General routines
     calbec       :      1.82s CPU      1.82s WALL (    3934 calls)
     fft          :      0.14s CPU      0.14s WALL (     495 calls)
     fftw         :     24.82s CPU     24.52s WALL (  191886 calls)
     davcio       :      0.00s CPU      0.01s WALL (      30 calls)
 
     Parallel routines
     fft_scatter  :      6.54s CPU      6.40s WALL (  192381 calls)
 
     PWSCF        :    45.28s CPU        46.48s WALL

 
   This run was terminated on:  14:58:57  22Apr2018            

=------------------------------------------------------------------------------=
   JOB DONE.
=------------------------------------------------------------------------------=
