
     Program PWSCF v.6.1 (svn rev. 13369) starts on 22Apr2018 at 15: 3:24 

     This program is part of the open-source Quantum ESPRESSO suite
     for quantum simulation of materials; please cite
         "P. Giannozzi et al., J. Phys.:Condens. Matter 21 395502 (2009);
          URL http://www.quantum-espresso.org", 
     in publications or presentations arising from this work. More details at
     http://www.quantum-espresso.org/quote

     Parallel version (MPI), running on     8 processors
     R & G space division:  proc/nbgrp/npool/nimage =       8
     Waiting for input...
     Reading input from standard input
Warning: card       &CELL ignored
Warning: card       CELL_DYNAMICS = 'BFGS' ignored
Warning: card       PRESS = 0.0D0 ignored
Warning: card       PRESS_CONV_THR = 0.01D0 ignored
Warning: card       / ignored

     Current dimensions of program PWSCF are:
     Max number of different atomic species (ntypx) = 10
     Max number of k-points (npk) =  40000
     Max angular momentum in pseudopotentials (lmaxx) =  3

     Subspace diagonalization in iterative solution of the eigenvalue problem:
     a serial algorithm will be used

 
     Parallelization info
     --------------------
     sticks:   dense  smooth     PW     G-vecs:    dense   smooth      PW
     Min         182     182     52                 5256     5256     826
     Max         183     183     53                 5259     5259     831
     Sum        1461    1461    421                42059    42059    6627
 


     bravais-lattice index     =            8
     lattice parameter (alat)  =       8.1195  a.u.
     unit-cell volume          =     530.3544 (a.u.)^3
     number of atoms/cell      =            8
     number of atomic types    =            2
     number of electrons       =        64.00
     number of Kohn-Sham states=           32
     kinetic-energy cutoff     =      70.0000  Ry
     charge density cutoff     =     280.0000  Ry
     convergence threshold     =      1.0E-08
     mixing beta               =       0.7000
     number of iterations used =            8  plain     mixing
     Exchange-correlation      = PBE ( 1  4  3  4 0 0)
     nstep                     =           50


     celldm(1)=   8.119454  celldm(2)=   0.990714  celldm(3)=   1.000086
     celldm(4)=   0.000000  celldm(5)=   0.000000  celldm(6)=   0.000000

     crystal axes: (cart. coord. in units of alat)
               a(1) = (   1.000000   0.000000   0.000000 )  
               a(2) = (   0.000000   0.990714   0.000000 )  
               a(3) = (   0.000000   0.000000   1.000086 )  

     reciprocal axes: (cart. coord. in units 2 pi/alat)
               b(1) = (  1.000000  0.000000  0.000000 )  
               b(2) = (  0.000000  1.009373  0.000000 )  
               b(3) = (  0.000000  0.000000  0.999914 )  


     PseudoPot. # 1 for Mg read from file:
     ../pseudo/Mg.pbe.UPF
     MD5 check sum: 4c04d8c6e0476e83eaecaf72fa8acc4d
     Pseudo is Norm-conserving, Zval = 10.0
     Generated using ONCVPSP code by D. R. Hamann
     Using radial grid of 1510 points,  4 beta functions with: 
                l(1) =   0
                l(2) =   0
                l(3) =   1
                l(4) =   1

     PseudoPot. # 2 for O  read from file:
     ../pseudo/O.pbe.UPF
     MD5 check sum: 3e3f909f7470e8921608ab6b1f57bbae
     Pseudo is Norm-conserving + core correction, Zval =  6.0
     Generated using ONCVPSP code by D. R. Hamann
     Using radial grid of  936 points,  5 beta functions with: 
                l(1) =   0
                l(2) =   0
                l(3) =   1
                l(4) =   1
                l(5) =   2

     atomic species   valence    mass     pseudopotential
        Mg            10.00    24.30500     Mg( 1.00)
        O              6.00    15.99940     O ( 1.00)

      2 Sym. Ops. (no inversion) found



   Cartesian axes

     site n.     atom                  positions (alat units)
         1           Mg  tau(   1) = (   0.0000000   0.0000000   0.0000000  )
         2           Mg  tau(   2) = (   0.0000000   0.5000000   0.5000000  )
         3           Mg  tau(   3) = (   0.5000000   0.0000000   0.5000000  )
         4           Mg  tau(   4) = (   0.5000000   0.5000000   0.0000000  )
         5           O   tau(   5) = (   0.5000000   0.0000000   0.0000000  )
         6           O   tau(   6) = (   0.0000000   0.5000000   0.0000000  )
         7           O   tau(   7) = (   0.0000000   0.0000000   0.5000000  )
         8           O   tau(   8) = (   0.5000000   0.5000000   0.5000000  )

     number of k points=    30
                       cart. coord. in units 2pi/alat
        k(    1) = (   0.0000000   0.0000000   0.0000000), wk =   0.0312500
        k(    2) = (   0.0000000   0.0000000   0.2499784), wk =   0.0625000
        k(    3) = (   0.0000000   0.0000000  -0.4999569), wk =   0.0312500
        k(    4) = (   0.0000000   0.2523433   0.0000000), wk =   0.0625000
        k(    5) = (   0.0000000   0.2523433   0.2499784), wk =   0.0625000
        k(    6) = (   0.0000000   0.2523433  -0.4999569), wk =   0.0625000
        k(    7) = (   0.0000000  -0.5046865   0.0000000), wk =   0.0312500
        k(    8) = (   0.0000000  -0.5046865   0.2499784), wk =   0.0625000
        k(    9) = (   0.0000000  -0.5046865  -0.4999569), wk =   0.0312500
        k(   10) = (   0.2500000   0.0000000   0.0000000), wk =   0.0625000
        k(   11) = (   0.2500000   0.0000000   0.2499784), wk =   0.1250000
        k(   12) = (   0.2500000   0.0000000  -0.4999569), wk =   0.0625000
        k(   13) = (   0.2500000   0.2523433   0.0000000), wk =   0.1250000
        k(   14) = (   0.2500000   0.2523433   0.2499784), wk =   0.1250000
        k(   15) = (   0.2500000   0.2523433  -0.4999569), wk =   0.1250000
        k(   16) = (   0.2500000  -0.5046865   0.0000000), wk =   0.0625000
        k(   17) = (   0.2500000  -0.5046865   0.2499784), wk =   0.1250000
        k(   18) = (   0.2500000  -0.5046865  -0.4999569), wk =   0.0625000
        k(   19) = (  -0.5000000   0.0000000   0.0000000), wk =   0.0312500
        k(   20) = (  -0.5000000   0.0000000   0.2499784), wk =   0.0625000
        k(   21) = (  -0.5000000   0.0000000  -0.4999569), wk =   0.0312500
        k(   22) = (  -0.5000000   0.2523433   0.0000000), wk =   0.0625000
        k(   23) = (  -0.5000000   0.2523433   0.2499784), wk =   0.0625000
        k(   24) = (  -0.5000000   0.2523433  -0.4999569), wk =   0.0625000
        k(   25) = (  -0.5000000  -0.5046865   0.0000000), wk =   0.0312500
        k(   26) = (  -0.5000000  -0.5046865   0.2499784), wk =   0.0625000
        k(   27) = (  -0.5000000  -0.5046865  -0.4999569), wk =   0.0312500
        k(   28) = (   0.0000000   0.2523433  -0.2499784), wk =   0.0625000
        k(   29) = (  -0.2500000   0.2523433  -0.2499784), wk =   0.1250000
        k(   30) = (   0.5000000   0.2523433  -0.2499784), wk =   0.0625000

     Dense  grid:    42059 G-vectors     FFT dimensions: (  45,  45,  45)

     Estimated max dynamical RAM per process >      15.60MB

     Estimated total allocated dynamical RAM >     124.76MB

     Check: negative/imaginary core charge=   -0.000007    0.000000

     Initial potential from superposition of free atoms

     starting charge   63.99678, renormalised to   64.00000
     Starting wfc are   36 randomized atomic wfcs

     total cpu time spent up to now is        0.7 secs

     per-process dynamical memory:    51.4 Mb

     Self-consistent Calculation

     iteration #  1     ecut=    70.00 Ry     beta=0.70
     Davidson diagonalization with overlap
     ethr =  1.00E-02,  avg # of iterations =  2.0

     total cpu time spent up to now is        1.9 secs

     total energy              =    -607.70841150 Ry
     Harris-Foulkes estimate   =    -608.84247536 Ry
     estimated scf accuracy    <       1.57419848 Ry

     iteration #  2     ecut=    70.00 Ry     beta=0.70
     Davidson diagonalization with overlap
     ethr =  2.46E-03,  avg # of iterations =  2.9

     total cpu time spent up to now is        3.3 secs

     total energy              =    -608.09203549 Ry
     Harris-Foulkes estimate   =    -608.81725554 Ry
     estimated scf accuracy    <       1.51503714 Ry

     iteration #  3     ecut=    70.00 Ry     beta=0.70
     Davidson diagonalization with overlap
     ethr =  2.37E-03,  avg # of iterations =  2.0

     total cpu time spent up to now is        4.6 secs

     total energy              =    -608.38964870 Ry
     Harris-Foulkes estimate   =    -608.39036446 Ry
     estimated scf accuracy    <       0.00698030 Ry

     iteration #  4     ecut=    70.00 Ry     beta=0.70
     Davidson diagonalization with overlap
     ethr =  1.09E-05,  avg # of iterations =  2.0

     total cpu time spent up to now is        5.8 secs

     total energy              =    -608.39121294 Ry
     Harris-Foulkes estimate   =    -608.39126312 Ry
     estimated scf accuracy    <       0.00012221 Ry

     iteration #  5     ecut=    70.00 Ry     beta=0.70
     Davidson diagonalization with overlap
     ethr =  1.91E-07,  avg # of iterations =  1.8

     total cpu time spent up to now is        6.9 secs

     total energy              =    -608.39122108 Ry
     Harris-Foulkes estimate   =    -608.39121960 Ry
     estimated scf accuracy    <       0.00001071 Ry

     iteration #  6     ecut=    70.00 Ry     beta=0.70
     Davidson diagonalization with overlap
     ethr =  1.67E-08,  avg # of iterations =  2.0

     total cpu time spent up to now is        8.2 secs

     total energy              =    -608.39122254 Ry
     Harris-Foulkes estimate   =    -608.39122301 Ry
     estimated scf accuracy    <       0.00000103 Ry

     iteration #  7     ecut=    70.00 Ry     beta=0.70
     Davidson diagonalization with overlap
     ethr =  1.61E-09,  avg # of iterations =  2.1

     total cpu time spent up to now is        9.5 secs

     total energy              =    -608.39122261 Ry
     Harris-Foulkes estimate   =    -608.39122270 Ry
     estimated scf accuracy    <       0.00000025 Ry

     iteration #  8     ecut=    70.00 Ry     beta=0.70
     Davidson diagonalization with overlap
     ethr =  3.91E-10,  avg # of iterations =  2.0

     total cpu time spent up to now is       10.6 secs

     total energy              =    -608.39122261 Ry
     Harris-Foulkes estimate   =    -608.39122264 Ry
     estimated scf accuracy    <       0.00000006 Ry

     iteration #  9     ecut=    70.00 Ry     beta=0.70
     Davidson diagonalization with overlap
     ethr =  8.79E-11,  avg # of iterations =  2.0

     total cpu time spent up to now is       12.1 secs

     End of self-consistent calculation

          k = 0.0000 0.0000 0.0000 (  5233 PWs)   bands (ev):

   -65.1181 -65.1096 -65.1094 -65.1087 -31.9086 -31.9086 -31.9039 -31.8751
   -31.8751 -31.8730 -31.8729 -31.8694 -31.8693 -31.8536 -31.8535 -31.8456
    -9.4959  -8.1033  -8.1030  -8.0793   3.6019   3.6021   3.6329   6.1621
     6.1627   6.1703   6.1709   6.2289   6.2289   7.4375   7.4590   7.4592

          k = 0.0000 0.0000 0.2500 (  5220 PWs)   bands (ev):

   -65.1168 -65.1107 -65.1094 -65.1088 -31.9039 -31.9017 -31.8983 -31.8805
   -31.8760 -31.8744 -31.8740 -31.8710 -31.8659 -31.8617 -31.8545 -31.8488
    -9.2961  -8.3100  -8.0737  -8.0568   3.8862   3.9157   3.9323   5.6540
     5.6689   5.9704   6.0150   6.3320   6.3840   6.4538   7.2219   7.2512

          k = 0.0000 0.0000-0.5000 (  5262 PWs)   bands (ev):

   -65.1140 -65.1135 -65.1094 -65.1089 -31.8929 -31.8926 -31.8871 -31.8869
   -31.8834 -31.8833 -31.8765 -31.8765 -31.8638 -31.8635 -31.8577 -31.8575
    -8.8071  -8.8066  -8.0392  -8.0390   4.6672   4.6679   4.6905   4.6913
     4.9418   4.9423   5.8012   5.8015   6.7497   6.7501   6.7913   6.7917

          k = 0.0000 0.2523 0.0000 (  5237 PWs)   bands (ev):

   -65.1168 -65.1104 -65.1096 -65.1090 -31.9040 -31.9040 -31.8947 -31.8792
   -31.8791 -31.8729 -31.8728 -31.8702 -31.8701 -31.8564 -31.8557 -31.8556
    -9.2912  -8.2868  -8.0746  -8.0744   3.8920   3.8923   3.9489   5.7057
     5.7058   5.9565   5.9570   6.3247   6.3252   6.4332   7.2386   7.2389

          k = 0.0000 0.2523 0.2500 (  5241 PWs)   bands (ev):

   -65.1157 -65.1106 -65.1102 -65.1093 -31.9019 -31.8989 -31.8965 -31.8858
   -31.8776 -31.8765 -31.8724 -31.8694 -31.8662 -31.8644 -31.8587 -31.8495
    -9.1095  -8.2462  -8.2289  -8.0775   3.9985   4.0070   4.1669   4.9017
     5.6380   5.8517   5.8969   6.2705   6.2875   6.4014   6.9741   7.2921

          k = 0.0000 0.2523-0.5000 (  5244 PWs)   bands (ev):

   -65.1133 -65.1129 -65.1101 -65.1095 -31.8949 -31.8948 -31.8899 -31.8899
   -31.8885 -31.8882 -31.8681 -31.8678 -31.8652 -31.8651 -31.8544 -31.8542
    -8.6734  -8.6730  -8.1256  -8.1255   4.2540   4.2543   4.5692   4.5696
     4.9172   4.9179   6.3701   6.3705   6.3995   6.4000   6.8825   6.8826

          k = 0.0000-0.5047 0.0000 (  5222 PWs)   bands (ev):

   -65.1139 -65.1132 -65.1096 -65.1090 -31.8925 -31.8924 -31.8904 -31.8904
   -31.8786 -31.8759 -31.8682 -31.8681 -31.8651 -31.8650 -31.8635 -31.8634
    -8.8155  -8.7660  -8.0456  -8.0456   4.6535   4.6537   4.7322   4.7324
     4.9170   4.9493   5.7556   5.7559   6.7287   6.7291   6.7772   6.7776

          k = 0.0000-0.5047 0.2500 (  5260 PWs)   bands (ev):

   -65.1133 -65.1126 -65.1102 -65.1096 -31.8977 -31.8963 -31.8890 -31.8884
   -31.8873 -31.8868 -31.8697 -31.8679 -31.8632 -31.8623 -31.8581 -31.8578
    -8.6842  -8.6406  -8.1358  -8.1273   4.2379   4.2685   4.5448   4.5802
     4.8985   4.9749   6.3292   6.3460   6.3578   6.4021   6.8846   6.8996

          k = 0.0000-0.5047-0.5000 (  5252 PWs)   bands (ev):

   -65.1118 -65.1117 -65.1115 -65.1106 -31.8978 -31.8976 -31.8967 -31.8966
   -31.8792 -31.8789 -31.8772 -31.8769 -31.8570 -31.8569 -31.8559 -31.8558
    -8.3897  -8.3894  -8.3623  -8.3620   4.1109   4.1111   4.1242   4.1244
     5.5561   5.5567   5.6245   5.6251   6.8562   6.8564   6.8789   6.8792

          k = 0.2500 0.0000 0.0000 (  5220 PWs)   bands (ev):

   -65.1168 -65.1107 -65.1094 -65.1088 -31.9039 -31.9016 -31.8983 -31.8805
   -31.8760 -31.8743 -31.8739 -31.8711 -31.8659 -31.8617 -31.8545 -31.8488
    -9.2961  -8.3098  -8.0739  -8.0568   3.8860   3.9158   3.9324   5.6544
     5.6693   5.9698   6.0149   6.3315   6.3840   6.4537   7.2218   7.2514

          k = 0.2500 0.0000 0.2500 (  5257 PWs)   bands (ev):

   -65.1157 -65.1106 -65.1103 -65.1091 -31.9024 -31.9023 -31.8940 -31.8890
   -31.8741 -31.8713 -31.8712 -31.8704 -31.8700 -31.8699 -31.8531 -31.8528
    -9.1139  -8.2467  -8.2465  -8.0661   4.0042   4.0043   4.1883   4.9005
     5.6660   5.8613   5.8617   6.3148   6.3150   6.3690   6.9521   7.2964

          k = 0.2500 0.0000-0.5000 (  5260 PWs)   bands (ev):

   -65.1133 -65.1129 -65.1101 -65.1095 -31.8981 -31.8979 -31.8910 -31.8909
   -31.8826 -31.8823 -31.8687 -31.8686 -31.8621 -31.8619 -31.8596 -31.8594
    -8.6761  -8.6757  -8.1291  -8.1290   4.2661   4.2664   4.5903   4.5907
     4.9345   4.9352   6.3429   6.3433   6.3770   6.3775   6.8988   6.8989

          k = 0.2500 0.2523 0.0000 (  5241 PWs)   bands (ev):

   -65.1157 -65.1106 -65.1102 -65.1093 -31.9018 -31.8989 -31.8965 -31.8858
   -31.8776 -31.8766 -31.8724 -31.8693 -31.8662 -31.8644 -31.8587 -31.8494
    -9.1095  -8.2461  -8.2289  -8.0776   3.9985   4.0069   4.1667   4.9017
     5.6377   5.8521   5.8968   6.2702   6.2871   6.4016   6.9743   7.2921

          k = 0.2500 0.2523 0.2500 (  5246 PWs)   bands (ev):

   -65.1148 -65.1106 -65.1105 -65.1098 -31.9045 -31.9044 -31.9022 -31.8861
   -31.8744 -31.8743 -31.8732 -31.8678 -31.8630 -31.8629 -31.8565 -31.8513
    -8.9474  -8.2135  -8.2134  -8.2011   3.8438   3.8473   3.8473   4.9039
     5.6603   5.6604   5.6747   6.4912   6.5183   6.5186   7.1456   7.1479

          k = 0.2500 0.2523-0.5000 (  5244 PWs)   bands (ev):

   -65.1128 -65.1124 -65.1105 -65.1099 -31.9066 -31.9064 -31.8998 -31.8997
   -31.8730 -31.8727 -31.8641 -31.8640 -31.8619 -31.8617 -31.8563 -31.8561
    -8.5677  -8.5674  -8.1767  -8.1766   3.6721   3.6721   4.0383   4.0386
     5.6496   5.6496   6.5462   6.5465   6.6669   6.6671   6.8198   6.8202

          k = 0.2500-0.5047 0.0000 (  5260 PWs)   bands (ev):

   -65.1133 -65.1126 -65.1102 -65.1096 -31.8977 -31.8962 -31.8891 -31.8884
   -31.8873 -31.8869 -31.8697 -31.8680 -31.8632 -31.8623 -31.8580 -31.8578
    -8.6842  -8.6406  -8.1358  -8.1273   4.2377   4.2684   4.5446   4.5800
     4.8984   4.9747   6.3294   6.3463   6.3580   6.4024   6.8845   6.8994

          k = 0.2500-0.5047 0.2500 (  5232 PWs)   bands (ev):

   -65.1128 -65.1123 -65.1106 -65.1100 -31.9068 -31.9067 -31.8990 -31.8987
   -31.8758 -31.8757 -31.8626 -31.8614 -31.8591 -31.8591 -31.8580 -31.8573
    -8.5773  -8.5402  -8.1799  -8.1799   3.6700   3.6701   4.0058   4.0422
     5.6511   5.6511   6.5402   6.5403   6.6716   6.6876   6.7868   6.8217

          k = 0.2500-0.5047-0.5000 (  5244 PWs)   bands (ev):

   -65.1118 -65.1117 -65.1116 -65.1106 -31.9097 -31.9095 -31.9094 -31.9093
   -31.8666 -31.8664 -31.8658 -31.8656 -31.8558 -31.8557 -31.8551 -31.8549
    -8.3515  -8.3512  -8.3318  -8.3316   3.4773   3.4775   3.4957   3.4959
     6.3089   6.3093   6.3487   6.3491   6.8607   6.8610   6.8767   6.8769

          k =-0.5000 0.0000 0.0000 (  5262 PWs)   bands (ev):

   -65.1140 -65.1135 -65.1094 -65.1089 -31.8929 -31.8926 -31.8871 -31.8869
   -31.8833 -31.8833 -31.8764 -31.8764 -31.8639 -31.8636 -31.8577 -31.8575
    -8.8068  -8.8067  -8.0392  -8.0391   4.6675   4.6676   4.6911   4.6911
     4.9418   4.9421   5.8007   5.8011   6.7495   6.7495   6.7916   6.7916

          k =-0.5000 0.0000 0.2500 (  5260 PWs)   bands (ev):

   -65.1133 -65.1129 -65.1101 -65.1095 -31.8982 -31.8979 -31.8910 -31.8909
   -31.8825 -31.8823 -31.8687 -31.8686 -31.8621 -31.8619 -31.8596 -31.8594
    -8.6758  -8.6758  -8.1292  -8.1291   4.2662   4.2663   4.5904   4.5906
     4.9350   4.9351   6.3428   6.3429   6.3770   6.3770   6.8989   6.8990

          k =-0.5000 0.0000-0.5000 (  5280 PWs)   bands (ev):

   -65.1117 -65.1117 -65.1117 -65.1107 -31.8992 -31.8989 -31.8989 -31.8989
   -31.8732 -31.8731 -31.8731 -31.8728 -31.8610 -31.8607 -31.8607 -31.8607
    -8.3822  -8.3821  -8.3819  -8.3819   4.1518   4.1519   4.1519   4.1521
     5.5868   5.5868   5.5874   5.5875   6.8539   6.8540   6.8541   6.8543

          k =-0.5000 0.2523 0.0000 (  5244 PWs)   bands (ev):

   -65.1133 -65.1129 -65.1101 -65.1095 -31.8949 -31.8948 -31.8899 -31.8898
   -31.8886 -31.8883 -31.8681 -31.8678 -31.8652 -31.8651 -31.8544 -31.8542
    -8.6731  -8.6731  -8.1256  -8.1256   4.2540   4.2541   4.5690   4.5692
     4.9175   4.9176   6.3701   6.3703   6.3998   6.3998   6.8825   6.8825

          k =-0.5000 0.2523 0.2500 (  5244 PWs)   bands (ev):

   -65.1128 -65.1124 -65.1105 -65.1099 -31.9065 -31.9063 -31.8998 -31.8997
   -31.8731 -31.8728 -31.8640 -31.8639 -31.8619 -31.8618 -31.8563 -31.8561
    -8.5675  -8.5674  -8.1767  -8.1767   3.6721   3.6721   4.0382   4.0384
     5.6496   5.6496   6.5462   6.5464   6.6670   6.6672   6.8199   6.8199

          k =-0.5000 0.2523-0.5000 (  5252 PWs)   bands (ev):

   -65.1117 -65.1117 -65.1117 -65.1107 -31.9099 -31.9096 -31.9096 -31.9095
   -31.8617 -31.8615 -31.8615 -31.8613 -31.8606 -31.8603 -31.8603 -31.8603
    -8.3448  -8.3448  -8.3446  -8.3446   3.4980   3.4981   3.4982   3.4983
     6.3396   6.3396   6.3400   6.3400   6.8551   6.8553   6.8554   6.8555

          k =-0.5000-0.5047 0.0000 (  5252 PWs)   bands (ev):

   -65.1118 -65.1117 -65.1115 -65.1106 -31.8977 -31.8976 -31.8967 -31.8966
   -31.8792 -31.8789 -31.8773 -31.8770 -31.8570 -31.8568 -31.8559 -31.8557
    -8.3895  -8.3895  -8.3621  -8.3621   4.1106   4.1107   4.1239   4.1241
     5.5564   5.5565   5.6248   5.6249   6.8564   6.8565   6.8791   6.8792

          k =-0.5000-0.5047 0.2500 (  5244 PWs)   bands (ev):

   -65.1118 -65.1117 -65.1116 -65.1106 -31.9097 -31.9095 -31.9094 -31.9093
   -31.8666 -31.8664 -31.8659 -31.8656 -31.8558 -31.8557 -31.8551 -31.8549
    -8.3513  -8.3513  -8.3318  -8.3317   3.4773   3.4773   3.4956   3.4957
     6.3090   6.3090   6.3488   6.3488   6.8609   6.8611   6.8768   6.8770

          k =-0.5000-0.5047-0.5000 (  5296 PWs)   bands (ev):

   -65.1117 -65.1117 -65.1117 -65.1107 -31.9182 -31.9180 -31.9180 -31.9179
   -31.8608 -31.8606 -31.8606 -31.8605 -31.8553 -31.8552 -31.8552 -31.8549
    -8.3069  -8.3068  -8.3068  -8.3068   3.0763   3.0764   3.0764   3.0764
     6.8561   6.8563   6.8563   6.8565   6.8738   6.8739   6.8739   6.8740

          k = 0.0000 0.2523-0.2500 (  5241 PWs)   bands (ev):

   -65.1157 -65.1106 -65.1102 -65.1093 -31.9019 -31.8989 -31.8965 -31.8858
   -31.8776 -31.8765 -31.8724 -31.8694 -31.8662 -31.8644 -31.8587 -31.8495
    -9.1095  -8.2462  -8.2289  -8.0775   3.9985   4.0070   4.1669   4.9017
     5.6380   5.8517   5.8969   6.2705   6.2875   6.4014   6.9741   7.2921

          k =-0.2500 0.2523-0.2500 (  5246 PWs)   bands (ev):

   -65.1148 -65.1106 -65.1105 -65.1098 -31.9045 -31.9044 -31.9022 -31.8861
   -31.8744 -31.8743 -31.8732 -31.8678 -31.8630 -31.8629 -31.8565 -31.8513
    -8.9474  -8.2135  -8.2134  -8.2011   3.8438   3.8473   3.8473   4.9039
     5.6603   5.6604   5.6747   6.4912   6.5183   6.5186   7.1456   7.1479

          k = 0.5000 0.2523-0.2500 (  5244 PWs)   bands (ev):

   -65.1128 -65.1124 -65.1105 -65.1099 -31.9065 -31.9063 -31.8998 -31.8997
   -31.8731 -31.8728 -31.8640 -31.8639 -31.8619 -31.8618 -31.8563 -31.8561
    -8.5675  -8.5674  -8.1767  -8.1767   3.6721   3.6721   4.0382   4.0384
     5.6496   5.6496   6.5462   6.5464   6.6670   6.6672   6.8199   6.8199

     highest occupied level (ev):     7.4592

!    total energy              =    -608.39122262 Ry
     Harris-Foulkes estimate   =    -608.39122262 Ry
     estimated scf accuracy    <          3.6E-09 Ry

     The total energy is the sum of the following terms:

     one-electron contribution =    -307.22015310 Ry
     hartree contribution      =     169.30664188 Ry
     xc contribution           =     -97.77248823 Ry
     ewald contribution        =    -372.70522316 Ry

     convergence has been achieved in   9 iterations

     Forces acting on atoms (cartesian axes, Ry/au):

     atom    1 type  1   force =     0.00000000    0.00507873   -0.00004140
     atom    2 type  1   force =     0.00000000   -0.00500401    0.00003862
     atom    3 type  1   force =     0.00000000    0.00508240    0.00004055
     atom    4 type  1   force =     0.00000000   -0.00500364   -0.00004147
     atom    5 type  2   force =     0.00000000    0.00579680   -0.00004768
     atom    6 type  2   force =     0.00000000   -0.00586392   -0.00004762
     atom    7 type  2   force =     0.00000000    0.00579708    0.00004939
     atom    8 type  2   force =     0.00000000   -0.00588344    0.00004961

     Total force =     0.015425     Total SCF correction =     0.000069


     Computing stress (Cartesian axis) and pressure

          total   stress  (Ry/bohr**3)                   (kbar)     P=  -92.29
  -0.00066123   0.00000000   0.00000000        -97.27      0.00      0.00
   0.00000000  -0.00055902   0.00000000          0.00    -82.23      0.00
   0.00000000   0.00000000  -0.00066198          0.00      0.00    -97.38


     BFGS Geometry Optimization

     number of scf cycles    =   1
     number of bfgs steps    =   0

     energy   new            =    -608.3912226150 Ry

     new trust radius        =       0.0058836509 bohr
     new conv_thr            =       0.0000000100 Ry


ATOMIC_POSITIONS (alat)
Mg       0.000000000   0.000625501  -0.000005099
Mg       0.000000000   0.499383701   0.500004756
Mg       0.500000000   0.000625953   0.500004994
Mg       0.500000000   0.499383747  -0.000005107
O        0.500000000   0.000713940  -0.000005873
O        0.000000000   0.499277794  -0.000005864
O        0.000000000   0.000713974   0.500006083
O        0.500000000   0.499275389   0.500006110



     Writing output data file diamond.8.11945354850.70.4.save
     NEW-OLD atomic charge density approx. for the potential

     Check: negative/imaginary core charge=   -0.000007    0.000000

     total cpu time spent up to now is       12.8 secs

     per-process dynamical memory:    52.1 Mb

     Self-consistent Calculation

     iteration #  1     ecut=    70.00 Ry     beta=0.70
     Davidson diagonalization with overlap
     ethr =  1.00E-06,  avg # of iterations =  3.1

     Threshold (ethr) on eigenvalues was too large:
     Diagonalizing with lowered threshold

     Davidson diagonalization with overlap
     ethr =  6.63E-08,  avg # of iterations =  1.1

     total cpu time spent up to now is       15.8 secs

     total energy              =    -608.39141023 Ry
     Harris-Foulkes estimate   =    -608.39144145 Ry
     estimated scf accuracy    <       0.00004268 Ry

     iteration #  2     ecut=    70.00 Ry     beta=0.70
     Davidson diagonalization with overlap
     ethr =  6.67E-08,  avg # of iterations =  2.2

     total cpu time spent up to now is       17.0 secs

     total energy              =    -608.39142310 Ry
     Harris-Foulkes estimate   =    -608.39142741 Ry
     estimated scf accuracy    <       0.00000715 Ry

     iteration #  3     ecut=    70.00 Ry     beta=0.70
     Davidson diagonalization with overlap
     ethr =  1.12E-08,  avg # of iterations =  2.0

     total cpu time spent up to now is       18.2 secs

     total energy              =    -608.39142465 Ry
     Harris-Foulkes estimate   =    -608.39142463 Ry
     estimated scf accuracy    <       0.00000005 Ry

     iteration #  4     ecut=    70.00 Ry     beta=0.70
     Davidson diagonalization with overlap
     ethr =  8.54E-11,  avg # of iterations =  2.8

     total cpu time spent up to now is       19.7 secs

     total energy              =    -608.39142466 Ry
     Harris-Foulkes estimate   =    -608.39142467 Ry
     estimated scf accuracy    <       0.00000001 Ry

     iteration #  5     ecut=    70.00 Ry     beta=0.70
     Davidson diagonalization with overlap
     ethr =  2.09E-11,  avg # of iterations =  2.0

     total cpu time spent up to now is       20.9 secs

     End of self-consistent calculation

          k = 0.0000 0.0000 0.0000 (  5233 PWs)   bands (ev):

   -65.1187 -65.1101 -65.1100 -65.1093 -31.9091 -31.9091 -31.9044 -31.8756
   -31.8756 -31.8735 -31.8735 -31.8699 -31.8698 -31.8541 -31.8541 -31.8461
    -9.4954  -8.1029  -8.1027  -8.0791   3.6023   3.6026   3.6327   6.1626
     6.1631   6.1704   6.1711   6.2289   6.2289   7.4381   7.4592   7.4594

          k = 0.0000 0.0000 0.2500 (  5220 PWs)   bands (ev):

   -65.1174 -65.1113 -65.1100 -65.1094 -31.9044 -31.9022 -31.8988 -31.8810
   -31.8765 -31.8749 -31.8744 -31.8716 -31.8664 -31.8623 -31.8550 -31.8493
    -9.2957  -8.3097  -8.0734  -8.0566   3.8867   3.9155   3.9327   5.6545
     5.6689   5.9710   6.0157   6.3315   6.3840   6.4540   7.2221   7.2513

          k = 0.0000 0.0000-0.5000 (  5262 PWs)   bands (ev):

   -65.1145 -65.1141 -65.1100 -65.1094 -31.8934 -31.8931 -31.8874 -31.8872
   -31.8840 -31.8840 -31.8770 -31.8769 -31.8643 -31.8641 -31.8582 -31.8580
    -8.8066  -8.8063  -8.0389  -8.0388   4.6677   4.6683   4.6907   4.6913
     4.9419   4.9423   5.8019   5.8022   6.7495   6.7498   6.7914   6.7917

          k = 0.0000 0.2523 0.0000 (  5237 PWs)   bands (ev):

   -65.1174 -65.1110 -65.1101 -65.1095 -31.9045 -31.9044 -31.8951 -31.8797
   -31.8797 -31.8733 -31.8733 -31.8707 -31.8706 -31.8569 -31.8562 -31.8562
    -9.2906  -8.2867  -8.0743  -8.0741   3.8927   3.8929   3.9488   5.7055
     5.7056   5.9566   5.9571   6.3253   6.3258   6.4335   7.2386   7.2389

          k = 0.0000 0.2523 0.2500 (  5241 PWs)   bands (ev):

   -65.1163 -65.1112 -65.1108 -65.1099 -31.9023 -31.8993 -31.8969 -31.8863
   -31.8781 -31.8771 -31.8728 -31.8700 -31.8667 -31.8649 -31.8592 -31.8500
    -9.1090  -8.2458  -8.2288  -8.0772   3.9989   4.0069   4.1675   4.9017
     5.6384   5.8523   5.8968   6.2713   6.2876   6.4007   6.9741   7.2924

          k = 0.0000 0.2523-0.5000 (  5244 PWs)   bands (ev):

   -65.1139 -65.1134 -65.1107 -65.1101 -31.8953 -31.8952 -31.8904 -31.8904
   -31.8890 -31.8887 -31.8686 -31.8683 -31.8657 -31.8656 -31.8549 -31.8547
    -8.6729  -8.6726  -8.1254  -8.1253   4.2541   4.2543   4.5695   4.5698
     4.9179   4.9184   6.3706   6.3709   6.3995   6.3998   6.8824   6.8825

          k = 0.0000-0.5047 0.0000 (  5222 PWs)   bands (ev):

   -65.1145 -65.1139 -65.1101 -65.1096 -31.8927 -31.8927 -31.8912 -31.8912
   -31.8787 -31.8768 -31.8686 -31.8685 -31.8654 -31.8653 -31.8642 -31.8642
    -8.8077  -8.7731  -8.0453  -8.0452   4.6654   4.6656   4.7207   4.7209
     4.9220   4.9445   5.7557   5.7560   6.7363   6.7367   6.7701   6.7705

          k = 0.0000-0.5047 0.2500 (  5260 PWs)   bands (ev):

   -65.1138 -65.1133 -65.1108 -65.1102 -31.8980 -31.8969 -31.8892 -31.8887
   -31.8879 -31.8876 -31.8700 -31.8687 -31.8636 -31.8629 -31.8586 -31.8584
    -8.6773  -8.6469  -8.1342  -8.1282   4.2426   4.2642   4.5504   4.5748
     4.9101   4.9637   6.3336   6.3536   6.3547   6.3939   6.8871   6.8976

          k = 0.0000-0.5047-0.5000 (  5252 PWs)   bands (ev):

   -65.1124 -65.1123 -65.1121 -65.1112 -31.8981 -31.8980 -31.8973 -31.8972
   -31.8794 -31.8791 -31.8780 -31.8777 -31.8574 -31.8572 -31.8565 -31.8564
    -8.3852  -8.3850  -8.3660  -8.3658   4.1132   4.1134   4.1222   4.1224
     5.5666   5.5671   5.6146   5.6151   6.8599   6.8601   6.8757   6.8759

          k = 0.2500 0.0000 0.0000 (  5220 PWs)   bands (ev):

   -65.1174 -65.1113 -65.1100 -65.1094 -31.9044 -31.9021 -31.8988 -31.8810
   -31.8764 -31.8748 -31.8744 -31.8716 -31.8664 -31.8622 -31.8551 -31.8493
    -9.2957  -8.3095  -8.0735  -8.0566   3.8865   3.9156   3.9329   5.6549
     5.6693   5.9705   6.0156   6.3310   6.3840   6.4538   7.2220   7.2515

          k = 0.2500 0.0000 0.2500 (  5257 PWs)   bands (ev):

   -65.1163 -65.1112 -65.1108 -65.1097 -31.9029 -31.9028 -31.8944 -31.8895
   -31.8746 -31.8717 -31.8716 -31.8709 -31.8705 -31.8705 -31.8536 -31.8533
    -9.1135  -8.2464  -8.2462  -8.0659   4.0046   4.0047   4.1882   4.9010
     5.6660   5.8614   5.8619   6.3148   6.3149   6.3695   6.9523   7.2966

          k = 0.2500 0.0000-0.5000 (  5260 PWs)   bands (ev):

   -65.1139 -65.1134 -65.1107 -65.1101 -31.8986 -31.8984 -31.8914 -31.8913
   -31.8831 -31.8829 -31.8692 -31.8691 -31.8627 -31.8624 -31.8601 -31.8599
    -8.6757  -8.6754  -8.1288  -8.1287   4.2666   4.2668   4.5909   4.5913
     4.9342   4.9347   6.3464   6.3467   6.3740   6.3743   6.8990   6.8991

          k = 0.2500 0.2523 0.0000 (  5241 PWs)   bands (ev):

   -65.1163 -65.1112 -65.1108 -65.1099 -31.9023 -31.8994 -31.8969 -31.8863
   -31.8781 -31.8771 -31.8727 -31.8699 -31.8667 -31.8649 -31.8592 -31.8500
    -9.1089  -8.2457  -8.2288  -8.0773   3.9989   4.0069   4.1673   4.9017
     5.6381   5.8527   5.8967   6.2711   6.2872   6.4010   6.9743   7.2924

          k = 0.2500 0.2523 0.2500 (  5246 PWs)   bands (ev):

   -65.1154 -65.1112 -65.1111 -65.1104 -31.9050 -31.9049 -31.9026 -31.8866
   -31.8749 -31.8748 -31.8737 -31.8682 -31.8635 -31.8634 -31.8570 -31.8518
    -8.9468  -8.2132  -8.2130  -8.2010   3.8439   3.8476   3.8476   4.9042
     5.6605   5.6607   5.6747   6.4917   6.5183   6.5186   7.1457   7.1481

          k = 0.2500 0.2523-0.5000 (  5244 PWs)   bands (ev):

   -65.1134 -65.1130 -65.1111 -65.1105 -31.9070 -31.9068 -31.9003 -31.9002
   -31.8735 -31.8732 -31.8645 -31.8645 -31.8624 -31.8623 -31.8568 -31.8566
    -8.5672  -8.5670  -8.1764  -8.1764   3.6723   3.6723   4.0385   4.0387
     5.6498   5.6498   6.5469   6.5471   6.6669   6.6671   6.8198   6.8200

          k = 0.2500-0.5047 0.0000 (  5260 PWs)   bands (ev):

   -65.1138 -65.1133 -65.1108 -65.1102 -31.8979 -31.8969 -31.8893 -31.8887
   -31.8879 -31.8877 -31.8700 -31.8687 -31.8636 -31.8629 -31.8585 -31.8583
    -8.6773  -8.6468  -8.1342  -8.1282   4.2424   4.2641   4.5501   4.5746
     4.9100   4.9636   6.3338   6.3538   6.3550   6.3942   6.8870   6.8975

          k = 0.2500-0.5047 0.2500 (  5232 PWs)   bands (ev):

   -65.1134 -65.1129 -65.1112 -65.1106 -31.9072 -31.9072 -31.8994 -31.8991
   -31.8763 -31.8762 -31.8629 -31.8621 -31.8596 -31.8596 -31.8584 -31.8579
    -8.5714  -8.5455  -8.1796  -8.1795   3.6703   3.6703   4.0115   4.0366
     5.6515   5.6515   6.5401   6.5403   6.6741   6.6855   6.7924   6.8168

          k = 0.2500-0.5047-0.5000 (  5244 PWs)   bands (ev):

   -65.1123 -65.1122 -65.1122 -65.1112 -31.9102 -31.9100 -31.9099 -31.9098
   -31.8670 -31.8668 -31.8664 -31.8662 -31.8563 -31.8561 -31.8557 -31.8555
    -8.3481  -8.3480  -8.3344  -8.3343   3.4803   3.4804   3.4930   3.4931
     6.3152   6.3155   6.3431   6.3433   6.8634   6.8636   6.8745   6.8747

          k =-0.5000 0.0000 0.0000 (  5262 PWs)   bands (ev):

   -65.1145 -65.1141 -65.1100 -65.1094 -31.8934 -31.8931 -31.8874 -31.8872
   -31.8840 -31.8840 -31.8769 -31.8769 -31.8644 -31.8641 -31.8582 -31.8580
    -8.8064  -8.8062  -8.0389  -8.0388   4.6680   4.6681   4.6912   4.6913
     4.9418   4.9422   5.8014   5.8018   6.7493   6.7493   6.7916   6.7916

          k =-0.5000 0.0000 0.2500 (  5260 PWs)   bands (ev):

   -65.1139 -65.1134 -65.1107 -65.1101 -31.8986 -31.8984 -31.8914 -31.8913
   -31.8831 -31.8829 -31.8692 -31.8691 -31.8627 -31.8624 -31.8601 -31.8599
    -8.6755  -8.6754  -8.1289  -8.1288   4.2667   4.2667   4.5909   4.5912
     4.9346   4.9346   6.3462   6.3464   6.3739   6.3739   6.8991   6.8992

          k =-0.5000 0.0000-0.5000 (  5280 PWs)   bands (ev):

   -65.1123 -65.1122 -65.1122 -65.1113 -31.8996 -31.8994 -31.8994 -31.8994
   -31.8738 -31.8736 -31.8736 -31.8733 -31.8614 -31.8612 -31.8612 -31.8612
    -8.3819  -8.3817  -8.3816  -8.3815   4.1522   4.1523   4.1523   4.1525
     5.5866   5.5867   5.5872   5.5872   6.8542   6.8544   6.8544   6.8547

          k =-0.5000 0.2523 0.0000 (  5244 PWs)   bands (ev):

   -65.1139 -65.1134 -65.1107 -65.1101 -31.8953 -31.8952 -31.8904 -31.8904
   -31.8890 -31.8888 -31.8686 -31.8684 -31.8657 -31.8656 -31.8549 -31.8547
    -8.6727  -8.6726  -8.1255  -8.1253   4.2541   4.2541   4.5692   4.5695
     4.9181   4.9182   6.3705   6.3708   6.3997   6.3997   6.8824   6.8825

          k =-0.5000 0.2523 0.2500 (  5244 PWs)   bands (ev):

   -65.1134 -65.1130 -65.1111 -65.1105 -31.9070 -31.9068 -31.9003 -31.9002
   -31.8736 -31.8734 -31.8645 -31.8644 -31.8625 -31.8623 -31.8568 -31.8566
    -8.5671  -8.5670  -8.1765  -8.1764   3.6723   3.6723   4.0384   4.0385
     5.6497   5.6498   6.5468   6.5470   6.6670   6.6672   6.8198   6.8198

          k =-0.5000 0.2523-0.5000 (  5252 PWs)   bands (ev):

   -65.1123 -65.1122 -65.1122 -65.1113 -31.9103 -31.9101 -31.9101 -31.9100
   -31.8622 -31.8620 -31.8620 -31.8618 -31.8611 -31.8608 -31.8608 -31.8608
    -8.3445  -8.3443  -8.3443  -8.3442   3.4982   3.4983   3.4983   3.4984
     6.3397   6.3397   6.3400   6.3400   6.8555   6.8556   6.8557   6.8559

          k =-0.5000-0.5047 0.0000 (  5252 PWs)   bands (ev):

   -65.1124 -65.1123 -65.1121 -65.1112 -31.8981 -31.8980 -31.8973 -31.8972
   -31.8795 -31.8792 -31.8780 -31.8777 -31.8573 -31.8572 -31.8565 -31.8564
    -8.3851  -8.3850  -8.3659  -8.3658   4.1129   4.1130   4.1219   4.1220
     5.5669   5.5669   5.6148   5.6149   6.8601   6.8602   6.8758   6.8760

          k =-0.5000-0.5047 0.2500 (  5244 PWs)   bands (ev):

   -65.1123 -65.1122 -65.1122 -65.1112 -31.9102 -31.9100 -31.9099 -31.9098
   -31.8670 -31.8668 -31.8665 -31.8663 -31.8562 -31.8561 -31.8557 -31.8555
    -8.3481  -8.3480  -8.3344  -8.3343   3.4802   3.4803   3.4929   3.4930
     6.3152   6.3153   6.3431   6.3431   6.8636   6.8637   6.8746   6.8748

          k =-0.5000-0.5047-0.5000 (  5296 PWs)   bands (ev):

   -65.1123 -65.1122 -65.1122 -65.1112 -31.9187 -31.9184 -31.9184 -31.9184
   -31.8613 -31.8611 -31.8611 -31.8611 -31.8559 -31.8556 -31.8556 -31.8554
    -8.3066  -8.3064  -8.3064  -8.3064   3.0764   3.0765   3.0765   3.0765
     6.8565   6.8566   6.8566   6.8569   6.8740   6.8741   6.8742   6.8742

          k = 0.0000 0.2523-0.2500 (  5241 PWs)   bands (ev):

   -65.1163 -65.1112 -65.1108 -65.1099 -31.9023 -31.8993 -31.8969 -31.8863
   -31.8781 -31.8771 -31.8728 -31.8700 -31.8667 -31.8649 -31.8592 -31.8500
    -9.1090  -8.2458  -8.2288  -8.0772   3.9989   4.0069   4.1675   4.9017
     5.6384   5.8523   5.8968   6.2713   6.2876   6.4007   6.9741   7.2924

          k =-0.2500 0.2523-0.2500 (  5246 PWs)   bands (ev):

   -65.1154 -65.1112 -65.1111 -65.1104 -31.9050 -31.9049 -31.9026 -31.8866
   -31.8749 -31.8748 -31.8737 -31.8682 -31.8635 -31.8634 -31.8570 -31.8518
    -8.9468  -8.2132  -8.2130  -8.2010   3.8439   3.8476   3.8476   4.9042
     5.6605   5.6607   5.6747   6.4917   6.5183   6.5186   7.1457   7.1481

          k = 0.5000 0.2523-0.2500 (  5244 PWs)   bands (ev):

   -65.1134 -65.1130 -65.1111 -65.1105 -31.9070 -31.9068 -31.9003 -31.9002
   -31.8736 -31.8734 -31.8645 -31.8644 -31.8625 -31.8623 -31.8568 -31.8566
    -8.5671  -8.5670  -8.1765  -8.1764   3.6723   3.6723   4.0384   4.0385
     5.6497   5.6498   6.5468   6.5470   6.6670   6.6672   6.8198   6.8198

     highest occupied level (ev):     7.4594

!    total energy              =    -608.39142467 Ry
     Harris-Foulkes estimate   =    -608.39142467 Ry
     estimated scf accuracy    <          8.0E-10 Ry

     The total energy is the sum of the following terms:

     one-electron contribution =    -307.18438808 Ry
     hartree contribution      =     169.28851347 Ry
     xc contribution           =     -97.77206797 Ry
     ewald contribution        =    -372.72348208 Ry

     convergence has been achieved in   5 iterations

     Forces acting on atoms (cartesian axes, Ry/au):

     atom    1 type  1   force =     0.00000000    0.00360220   -0.00003096
     atom    2 type  1   force =     0.00000000   -0.00362611    0.00003037
     atom    3 type  1   force =     0.00000000    0.00370799    0.00003118
     atom    4 type  1   force =     0.00000000   -0.00362610   -0.00003176
     atom    5 type  2   force =     0.00000000    0.00397243   -0.00003468
     atom    6 type  2   force =     0.00000000   -0.00399397   -0.00003476
     atom    7 type  2   force =     0.00000000    0.00397260    0.00003524
     atom    8 type  2   force =     0.00000000   -0.00400904    0.00003537

     Total force =     0.010799     Total SCF correction =     0.000243


     Computing stress (Cartesian axis) and pressure

          total   stress  (Ry/bohr**3)                   (kbar)     P=  -92.44
  -0.00066099   0.00000000   0.00000000        -97.24      0.00      0.00
   0.00000000  -0.00056246   0.00000000          0.00    -82.74      0.00
   0.00000000   0.00000000  -0.00066174          0.00      0.00    -97.35


     number of scf cycles    =   2
     number of bfgs steps    =   1

     energy   old            =    -608.3912226150 Ry
     energy   new            =    -608.3914246665 Ry

     CASE: energy  _new < energy  _old

     new trust radius        =       0.0064720160 bohr
     new conv_thr            =       0.0000000020 Ry


ATOMIC_POSITIONS (alat)
Mg       0.000000000   0.001341629  -0.000011253
Mg       0.000000000   0.498662849   0.500010793
Mg       0.500000000   0.001363073   0.500011193
Mg       0.500000000   0.498662898  -0.000011420
O        0.500000000   0.001503720  -0.000012768
O        0.000000000   0.498483721  -0.000012774
O        0.000000000   0.001503789   0.500013089
O        0.500000000   0.498478321   0.500013141



     Writing output data file diamond.8.11945354850.70.4.save
     NEW-OLD atomic charge density approx. for the potential

     Check: negative/imaginary core charge=   -0.000007    0.000000

     total cpu time spent up to now is       21.7 secs

     per-process dynamical memory:    52.1 Mb

     Self-consistent Calculation

     iteration #  1     ecut=    70.00 Ry     beta=0.70
     Davidson diagonalization with overlap
     ethr =  1.00E-06,  avg # of iterations =  3.1

     Threshold (ethr) on eigenvalues was too large:
     Diagonalizing with lowered threshold

     Davidson diagonalization with overlap
     ethr =  8.28E-08,  avg # of iterations =  1.1

     total cpu time spent up to now is       24.7 secs

     total energy              =    -608.39154973 Ry
     Harris-Foulkes estimate   =    -608.39158846 Ry
     estimated scf accuracy    <       0.00005296 Ry

     iteration #  2     ecut=    70.00 Ry     beta=0.70
     Davidson diagonalization with overlap
     ethr =  8.28E-08,  avg # of iterations =  2.2

     total cpu time spent up to now is       25.9 secs

     total energy              =    -608.39156575 Ry
     Harris-Foulkes estimate   =    -608.39157110 Ry
     estimated scf accuracy    <       0.00000888 Ry

     iteration #  3     ecut=    70.00 Ry     beta=0.70
     Davidson diagonalization with overlap
     ethr =  1.39E-08,  avg # of iterations =  2.0

     total cpu time spent up to now is       27.1 secs

     total energy              =    -608.39156768 Ry
     Harris-Foulkes estimate   =    -608.39156765 Ry
     estimated scf accuracy    <       0.00000006 Ry

     iteration #  4     ecut=    70.00 Ry     beta=0.70
     Davidson diagonalization with overlap
     ethr =  9.98E-11,  avg # of iterations =  2.6

     total cpu time spent up to now is       28.6 secs

     total energy              =    -608.39156769 Ry
     Harris-Foulkes estimate   =    -608.39156770 Ry
     estimated scf accuracy    <          7.6E-09 Ry

     iteration #  5     ecut=    70.00 Ry     beta=0.70
     Davidson diagonalization with overlap
     ethr =  1.19E-11,  avg # of iterations =  2.0

     total cpu time spent up to now is       29.8 secs

     End of self-consistent calculation

          k = 0.0000 0.0000 0.0000 (  5233 PWs)   bands (ev):

   -65.1188 -65.1103 -65.1102 -65.1094 -31.9092 -31.9092 -31.9045 -31.8758
   -31.8757 -31.8737 -31.8736 -31.8700 -31.8699 -31.8543 -31.8542 -31.8462
    -9.4952  -8.1027  -8.1025  -8.0790   3.6026   3.6029   3.6325   6.1629
     6.1634   6.1704   6.1711   6.2288   6.2289   7.4385   7.4592   7.4594

          k = 0.0000 0.0000 0.2500 (  5220 PWs)   bands (ev):

   -65.1176 -65.1114 -65.1102 -65.1096 -31.9045 -31.9023 -31.8989 -31.8811
   -31.8766 -31.8750 -31.8745 -31.8717 -31.8665 -31.8624 -31.8552 -31.8494
    -9.2954  -8.3095  -8.0732  -8.0565   3.8870   3.9153   3.9330   5.6548
     5.6688   5.9714   6.0162   6.3311   6.3840   6.4541   7.2223   7.2513

          k = 0.0000 0.0000-0.5000 (  5262 PWs)   bands (ev):

   -65.1147 -65.1142 -65.1102 -65.1096 -31.8935 -31.8932 -31.8874 -31.8871
   -31.8843 -31.8843 -31.8771 -31.8770 -31.8645 -31.8642 -31.8583 -31.8581
    -8.8063  -8.8061  -8.0387  -8.0386   4.6681   4.6684   4.6909   4.6912
     4.9419   4.9422   5.8023   5.8026   6.7494   6.7496   6.7915   6.7917

          k = 0.0000 0.2523 0.0000 (  5237 PWs)   bands (ev):

   -65.1175 -65.1112 -65.1103 -65.1097 -31.9046 -31.9046 -31.8952 -31.8799
   -31.8798 -31.8735 -31.8734 -31.8708 -31.8707 -31.8570 -31.8564 -31.8563
    -9.2903  -8.2868  -8.0741  -8.0739   3.8930   3.8933   3.9486   5.7054
     5.7055   5.9566   5.9571   6.3257   6.3262   6.4337   7.2386   7.2388

          k = 0.0000 0.2523 0.2500 (  5241 PWs)   bands (ev):

   -65.1164 -65.1113 -65.1109 -65.1100 -31.9025 -31.8995 -31.8970 -31.8865
   -31.8782 -31.8772 -31.8728 -31.8702 -31.8668 -31.8650 -31.8593 -31.8501
    -9.1087  -8.2456  -8.2288  -8.0770   3.9992   4.0068   4.1679   4.9017
     5.6386   5.8527   5.8966   6.2718   6.2877   6.4002   6.9740   7.2926

          k = 0.0000 0.2523-0.5000 (  5244 PWs)   bands (ev):

   -65.1140 -65.1136 -65.1108 -65.1102 -31.8954 -31.8953 -31.8906 -31.8905
   -31.8891 -31.8888 -31.8687 -31.8685 -31.8658 -31.8657 -31.8550 -31.8548
    -8.6725  -8.6723  -8.1253  -8.1252   4.2541   4.2543   4.5696   4.5699
     4.9184   4.9186   6.3709   6.3711   6.3994   6.3996   6.8823   6.8824

          k = 0.0000-0.5047 0.0000 (  5222 PWs)   bands (ev):

   -65.1145 -65.1141 -65.1103 -65.1098 -31.8925 -31.8925 -31.8917 -31.8916
   -31.8784 -31.8773 -31.8687 -31.8687 -31.8653 -31.8652 -31.8646 -31.8645
    -8.7993  -8.7813  -8.0450  -8.0450   4.6787   4.6788   4.7077   4.7079
     4.9275   4.9390   5.7557   5.7560   6.7446   6.7450   6.7621   6.7625

          k = 0.0000-0.5047 0.2500 (  5260 PWs)   bands (ev):

   -65.1139 -65.1135 -65.1109 -65.1104 -31.8979 -31.8973 -31.8890 -31.8887
   -31.8882 -31.8881 -31.8698 -31.8691 -31.8636 -31.8632 -31.8587 -31.8585
    -8.6699  -8.6540  -8.1326  -8.1295   4.2477   4.2593   4.5564   4.5688
     4.9230   4.9511   6.3384   6.3488   6.3643   6.3847   6.8897   6.8953

          k = 0.0000-0.5047-0.5000 (  5252 PWs)   bands (ev):

   -65.1125 -65.1124 -65.1123 -65.1114 -31.8980 -31.8979 -31.8975 -31.8974
   -31.8792 -31.8790 -31.8784 -31.8781 -31.8574 -31.8572 -31.8568 -31.8567
    -8.3804  -8.3802  -8.3704  -8.3702   4.1156   4.1158   4.1199   4.1200
     5.5783   5.5785   5.6034   5.6037   6.8639   6.8641   6.8719   6.8721

          k = 0.2500 0.0000 0.0000 (  5220 PWs)   bands (ev):

   -65.1176 -65.1114 -65.1102 -65.1096 -31.9045 -31.9022 -31.8989 -31.8811
   -31.8765 -31.8750 -31.8745 -31.8718 -31.8665 -31.8624 -31.8552 -31.8494
    -9.2954  -8.3093  -8.0734  -8.0565   3.8868   3.9154   3.9331   5.6552
     5.6693   5.9708   6.0160   6.3306   6.3840   6.4539   7.2221   7.2515

          k = 0.2500 0.0000 0.2500 (  5257 PWs)   bands (ev):

   -65.1165 -65.1113 -65.1110 -65.1099 -31.9030 -31.9029 -31.8944 -31.8896
   -31.8748 -31.8717 -31.8717 -31.8711 -31.8708 -31.8707 -31.8537 -31.8535
    -9.1132  -8.2461  -8.2460  -8.0658   4.0049   4.0050   4.1880   4.9013
     5.6661   5.8615   5.8619   6.3147   6.3148   6.3697   6.9523   7.2967

          k = 0.2500 0.0000-0.5000 (  5260 PWs)   bands (ev):

   -65.1140 -65.1136 -65.1108 -65.1102 -31.8987 -31.8985 -31.8915 -31.8914
   -31.8833 -31.8831 -31.8693 -31.8692 -31.8628 -31.8626 -31.8602 -31.8600
    -8.6754  -8.6752  -8.1287  -8.1286   4.2669   4.2670   4.5913   4.5916
     4.9339   4.9342   6.3493   6.3495   6.3713   6.3715   6.8991   6.8992

          k = 0.2500 0.2523 0.0000 (  5241 PWs)   bands (ev):

   -65.1164 -65.1113 -65.1109 -65.1100 -31.9024 -31.8995 -31.8970 -31.8864
   -31.8782 -31.8773 -31.8728 -31.8702 -31.8668 -31.8650 -31.8594 -31.8501
    -9.1086  -8.2455  -8.2288  -8.0771   3.9992   4.0068   4.1677   4.9017
     5.6383   5.8530   5.8965   6.2716   6.2873   6.4005   6.9742   7.2925

          k = 0.2500 0.2523 0.2500 (  5246 PWs)   bands (ev):

   -65.1155 -65.1113 -65.1113 -65.1105 -31.9051 -31.9050 -31.9027 -31.8866
   -31.8751 -31.8750 -31.8739 -31.8684 -31.8636 -31.8636 -31.8572 -31.8519
    -8.9465  -8.2130  -8.2128  -8.2009   3.8439   3.8478   3.8478   4.9043
     5.6607   5.6608   5.6747   6.4920   6.5182   6.5185   7.1457   7.1483

          k = 0.2500 0.2523-0.5000 (  5244 PWs)   bands (ev):

   -65.1135 -65.1131 -65.1113 -65.1107 -31.9071 -31.9070 -31.9004 -31.9003
   -31.8736 -31.8734 -31.8647 -31.8646 -31.8626 -31.8624 -31.8569 -31.8567
    -8.5669  -8.5668  -8.1764  -8.1762   3.6724   3.6725   4.0386   4.0388
     5.6499   5.6499   6.5473   6.5475   6.6669   6.6670   6.8197   6.8199

          k = 0.2500-0.5047 0.0000 (  5260 PWs)   bands (ev):

   -65.1139 -65.1135 -65.1109 -65.1104 -31.8978 -31.8972 -31.8891 -31.8887
   -31.8882 -31.8881 -31.8699 -31.8691 -31.8635 -31.8631 -31.8586 -31.8585
    -8.6699  -8.6540  -8.1325  -8.1295   4.2476   4.2592   4.5562   4.5686
     4.9228   4.9510   6.3386   6.3490   6.3645   6.3850   6.8896   6.8952

          k = 0.2500-0.5047 0.2500 (  5232 PWs)   bands (ev):

   -65.1135 -65.1131 -65.1113 -65.1108 -31.9074 -31.9073 -31.8994 -31.8993
   -31.8765 -31.8763 -31.8629 -31.8624 -31.8597 -31.8597 -31.8584 -31.8581
    -8.5650  -8.5515  -8.1793  -8.1793   3.6704   3.6704   4.0177   4.0305
     5.6517   5.6518   6.5400   6.5401   6.6769   6.6830   6.7984   6.8111

          k = 0.2500-0.5047-0.5000 (  5244 PWs)   bands (ev):

   -65.1124 -65.1124 -65.1124 -65.1114 -31.9103 -31.9101 -31.9100 -31.9099
   -31.8670 -31.8668 -31.8667 -31.8665 -31.8563 -31.8561 -31.8559 -31.8558
    -8.3446  -8.3445  -8.3375  -8.3374   3.4835   3.4836   3.4899   3.4900
     6.3221   6.3222   6.3366   6.3368   6.8662   6.8664   6.8719   6.8721

          k =-0.5000 0.0000 0.0000 (  5262 PWs)   bands (ev):

   -65.1147 -65.1142 -65.1102 -65.1096 -31.8935 -31.8932 -31.8874 -31.8871
   -31.8843 -31.8843 -31.8770 -31.8770 -31.8645 -31.8643 -31.8583 -31.8581
    -8.8061  -8.8060  -8.0388  -8.0387   4.6683   4.6683   4.6912   4.6913
     4.9418   4.9421   5.8018   5.8022   6.7491   6.7491   6.7916   6.7916

          k =-0.5000 0.0000 0.2500 (  5260 PWs)   bands (ev):

   -65.1140 -65.1136 -65.1108 -65.1102 -31.8987 -31.8985 -31.8914 -31.8914
   -31.8833 -31.8831 -31.8693 -31.8692 -31.8628 -31.8626 -31.8602 -31.8601
    -8.6752  -8.6752  -8.1287  -8.1286   4.2669   4.2670   4.5913   4.5915
     4.9342   4.9342   6.3490   6.3493   6.3712   6.3712   6.8992   6.8993

          k =-0.5000 0.0000-0.5000 (  5280 PWs)   bands (ev):

   -65.1124 -65.1124 -65.1124 -65.1114 -31.8997 -31.8995 -31.8995 -31.8995
   -31.8739 -31.8737 -31.8737 -31.8734 -31.8616 -31.8613 -31.8613 -31.8613
    -8.3816  -8.3815  -8.3815  -8.3814   4.1524   4.1526   4.1526   4.1527
     5.5865   5.5865   5.5869   5.5869   6.8544   6.8546   6.8546   6.8548

          k =-0.5000 0.2523 0.0000 (  5244 PWs)   bands (ev):

   -65.1140 -65.1136 -65.1108 -65.1102 -31.8954 -31.8953 -31.8905 -31.8905
   -31.8892 -31.8889 -31.8688 -31.8685 -31.8658 -31.8657 -31.8550 -31.8548
    -8.6724  -8.6723  -8.1254  -8.1253   4.2540   4.2541   4.5693   4.5696
     4.9185   4.9185   6.3708   6.3711   6.3996   6.3996   6.8823   6.8824

          k =-0.5000 0.2523 0.2500 (  5244 PWs)   bands (ev):

   -65.1135 -65.1131 -65.1113 -65.1107 -31.9071 -31.9069 -31.9004 -31.9003
   -31.8737 -31.8735 -31.8646 -31.8645 -31.8626 -31.8624 -31.8569 -31.8567
    -8.5668  -8.5667  -8.1764  -8.1763   3.6724   3.6724   4.0385   4.0386
     5.6499   5.6499   6.5472   6.5474   6.6670   6.6672   6.8197   6.8197

          k =-0.5000 0.2523-0.5000 (  5252 PWs)   bands (ev):

   -65.1124 -65.1124 -65.1124 -65.1114 -31.9104 -31.9102 -31.9102 -31.9101
   -31.8624 -31.8622 -31.8621 -31.8619 -31.8612 -31.8609 -31.8609 -31.8609
    -8.3442  -8.3442  -8.3441  -8.3440   3.4982   3.4984   3.4984   3.4984
     6.3397   6.3398   6.3400   6.3400   6.8557   6.8559   6.8559   6.8560

          k =-0.5000-0.5047 0.0000 (  5252 PWs)   bands (ev):

   -65.1125 -65.1124 -65.1123 -65.1114 -31.8980 -31.8979 -31.8975 -31.8974
   -31.8793 -31.8790 -31.8785 -31.8782 -31.8573 -31.8572 -31.8568 -31.8567
    -8.3803  -8.3802  -8.3703  -8.3702   4.1152   4.1154   4.1196   4.1197
     5.5784   5.5785   5.6036   5.6036   6.8640   6.8642   6.8721   6.8722

          k =-0.5000-0.5047 0.2500 (  5244 PWs)   bands (ev):

   -65.1124 -65.1124 -65.1123 -65.1114 -31.9103 -31.9101 -31.9100 -31.9099
   -31.8671 -31.8668 -31.8667 -31.8665 -31.8563 -31.8561 -31.8559 -31.8557
    -8.3446  -8.3445  -8.3374  -8.3374   3.4834   3.4835   3.4898   3.4899
     6.3220   6.3221   6.3366   6.3366   6.8664   6.8665   6.8720   6.8722

          k =-0.5000-0.5047-0.5000 (  5296 PWs)   bands (ev):

   -65.1124 -65.1124 -65.1124 -65.1114 -31.9188 -31.9185 -31.9185 -31.9185
   -31.8615 -31.8612 -31.8612 -31.8612 -31.8560 -31.8558 -31.8558 -31.8556
    -8.3064  -8.3063  -8.3063  -8.3062   3.0764   3.0765   3.0765   3.0765
     6.8566   6.8568   6.8568   6.8570   6.8741   6.8742   6.8743   6.8743

          k = 0.0000 0.2523-0.2500 (  5241 PWs)   bands (ev):

   -65.1164 -65.1113 -65.1109 -65.1100 -31.9025 -31.8995 -31.8970 -31.8865
   -31.8782 -31.8772 -31.8728 -31.8702 -31.8668 -31.8650 -31.8593 -31.8501
    -9.1087  -8.2456  -8.2288  -8.0770   3.9992   4.0068   4.1679   4.9017
     5.6386   5.8527   5.8966   6.2718   6.2877   6.4002   6.9740   7.2926

          k =-0.2500 0.2523-0.2500 (  5246 PWs)   bands (ev):

   -65.1155 -65.1113 -65.1113 -65.1105 -31.9051 -31.9050 -31.9027 -31.8866
   -31.8751 -31.8750 -31.8739 -31.8684 -31.8636 -31.8636 -31.8572 -31.8519
    -8.9465  -8.2130  -8.2128  -8.2009   3.8439   3.8478   3.8478   4.9043
     5.6607   5.6608   5.6747   6.4920   6.5182   6.5185   7.1457   7.1483

          k = 0.5000 0.2523-0.2500 (  5244 PWs)   bands (ev):

   -65.1135 -65.1131 -65.1113 -65.1107 -31.9071 -31.9069 -31.9004 -31.9003
   -31.8737 -31.8735 -31.8646 -31.8645 -31.8626 -31.8624 -31.8569 -31.8567
    -8.5668  -8.5667  -8.1764  -8.1763   3.6724   3.6724   4.0385   4.0386
     5.6499   5.6499   6.5472   6.5474   6.6670   6.6672   6.8197   6.8197

     highest occupied level (ev):     7.4594

!    total energy              =    -608.39156770 Ry
     Harris-Foulkes estimate   =    -608.39156770 Ry
     estimated scf accuracy    <          8.2E-10 Ry

     The total energy is the sum of the following terms:

     one-electron contribution =    -307.15810677 Ry
     hartree contribution      =     169.27516601 Ry
     xc contribution           =     -97.77176661 Ry
     ewald contribution        =    -372.73686033 Ry

     convergence has been achieved in   5 iterations

     Forces acting on atoms (cartesian axes, Ry/au):

     atom    1 type  1   force =     0.00000000    0.00191104   -0.00001820
     atom    2 type  1   force =     0.00000000   -0.00202414    0.00001897
     atom    3 type  1   force =     0.00000000    0.00209995    0.00001920
     atom    4 type  1   force =     0.00000000   -0.00202411   -0.00001972
     atom    5 type  2   force =     0.00000000    0.00197505   -0.00001887
     atom    6 type  2   force =     0.00000000   -0.00195725   -0.00001897
     atom    7 type  2   force =     0.00000000    0.00197519    0.00001873
     atom    8 type  2   force =     0.00000000   -0.00195573    0.00001887

     Total force =     0.005632     Total SCF correction =     0.000286


     Computing stress (Cartesian axis) and pressure

          total   stress  (Ry/bohr**3)                   (kbar)     P=  -92.60
  -0.00066118   0.00000000   0.00000000        -97.26      0.00      0.00
   0.00000000  -0.00056534   0.00000000          0.00    -83.16      0.00
   0.00000000   0.00000000  -0.00066193          0.00      0.00    -97.37


     number of scf cycles    =   3
     number of bfgs steps    =   2

     energy   old            =    -608.3914246665 Ry
     energy   new            =    -608.3915676955 Ry

     CASE: energy  _new < energy  _old

     new trust radius        =       0.0068678516 bohr
     new conv_thr            =       0.0000000014 Ry


ATOMIC_POSITIONS (alat)
Mg       0.000000000   0.002130270  -0.000018486
Mg       0.000000000   0.497843250   0.500018172
Mg       0.500000000   0.002208891   0.500018699
Mg       0.500000000   0.497843307  -0.000019109
O        0.500000000   0.002339534  -0.000020482
O        0.000000000   0.497650673  -0.000020520
O        0.000000000   0.002339655   0.500020814
O        0.500000000   0.497644418   0.500020912



     Writing output data file diamond.8.11945354850.70.4.save
     NEW-OLD atomic charge density approx. for the potential

     Check: negative/imaginary core charge=   -0.000007    0.000000

     total cpu time spent up to now is       30.6 secs

     per-process dynamical memory:    52.1 Mb

     Self-consistent Calculation

     iteration #  1     ecut=    70.00 Ry     beta=0.70
     Davidson diagonalization with overlap
     ethr =  1.00E-06,  avg # of iterations =  3.2

     Threshold (ethr) on eigenvalues was too large:
     Diagonalizing with lowered threshold

     Davidson diagonalization with overlap
     ethr =  9.46E-08,  avg # of iterations =  1.0

     total cpu time spent up to now is       33.6 secs

     total energy              =    -608.39160105 Ry
     Harris-Foulkes estimate   =    -608.39164500 Ry
     estimated scf accuracy    <       0.00006015 Ry

     iteration #  2     ecut=    70.00 Ry     beta=0.70
     Davidson diagonalization with overlap
     ethr =  9.40E-08,  avg # of iterations =  2.1

     total cpu time spent up to now is       34.8 secs

     total energy              =    -608.39161927 Ry
     Harris-Foulkes estimate   =    -608.39162532 Ry
     estimated scf accuracy    <       0.00001009 Ry

     iteration #  3     ecut=    70.00 Ry     beta=0.70
     Davidson diagonalization with overlap
     ethr =  1.58E-08,  avg # of iterations =  2.0

     total cpu time spent up to now is       36.0 secs

     total energy              =    -608.39162145 Ry
     Harris-Foulkes estimate   =    -608.39162141 Ry
     estimated scf accuracy    <       0.00000007 Ry

     iteration #  4     ecut=    70.00 Ry     beta=0.70
     Davidson diagonalization with overlap
     ethr =  1.15E-10,  avg # of iterations =  2.3

     total cpu time spent up to now is       37.4 secs

     total energy              =    -608.39162147 Ry
     Harris-Foulkes estimate   =    -608.39162147 Ry
     estimated scf accuracy    <          5.0E-09 Ry

     iteration #  5     ecut=    70.00 Ry     beta=0.70
     Davidson diagonalization with overlap
     ethr =  7.86E-12,  avg # of iterations =  2.3

     total cpu time spent up to now is       38.6 secs

     End of self-consistent calculation

          k = 0.0000 0.0000 0.0000 (  5233 PWs)   bands (ev):

   -65.1189 -65.1104 -65.1102 -65.1095 -31.9093 -31.9092 -31.9045 -31.8758
   -31.8758 -31.8737 -31.8737 -31.8700 -31.8699 -31.8543 -31.8543 -31.8463
    -9.4951  -8.1026  -8.1024  -8.0790   3.6028   3.6030   3.6324   6.1630
     6.1635   6.1704   6.1711   6.2288   6.2289   7.4386   7.4592   7.4594

          k = 0.0000 0.0000 0.2500 (  5220 PWs)   bands (ev):

   -65.1176 -65.1115 -65.1102 -65.1096 -31.9045 -31.9023 -31.8989 -31.8811
   -31.8766 -31.8751 -31.8745 -31.8718 -31.8665 -31.8625 -31.8552 -31.8495
    -9.2953  -8.3094  -8.0731  -8.0564   3.8871   3.9153   3.9331   5.6549
     5.6688   5.9715   6.0163   6.3310   6.3840   6.4541   7.2223   7.2513

          k = 0.0000 0.0000-0.5000 (  5262 PWs)   bands (ev):

   -65.1147 -65.1143 -65.1102 -65.1097 -31.8935 -31.8933 -31.8873 -31.8871
   -31.8845 -31.8844 -31.8771 -31.8771 -31.8645 -31.8643 -31.8584 -31.8581
    -8.8061  -8.8061  -8.0387  -8.0386   4.6684   4.6684   4.6910   4.6911
     4.9419   4.9422   5.8025   5.8028   6.7494   6.7494   6.7916   6.7916

          k = 0.0000 0.2523 0.0000 (  5237 PWs)   bands (ev):

   -65.1176 -65.1112 -65.1103 -65.1098 -31.9046 -31.9046 -31.8952 -31.8799
   -31.8799 -31.8735 -31.8735 -31.8708 -31.8707 -31.8571 -31.8564 -31.8564
    -9.2901  -8.2868  -8.0740  -8.0738   3.8932   3.8935   3.9486   5.7053
     5.7054   5.9566   5.9571   6.3258   6.3263   6.4338   7.2386   7.2388

          k = 0.0000 0.2523 0.2500 (  5241 PWs)   bands (ev):

   -65.1165 -65.1114 -65.1110 -65.1101 -31.9025 -31.8995 -31.8970 -31.8865
   -31.8782 -31.8773 -31.8728 -31.8703 -31.8668 -31.8651 -31.8594 -31.8502
    -9.1085  -8.2455  -8.2288  -8.0770   3.9993   4.0068   4.1681   4.9017
     5.6386   5.8529   5.8966   6.2720   6.2877   6.4000   6.9740   7.2926

          k = 0.0000 0.2523-0.5000 (  5244 PWs)   bands (ev):

   -65.1141 -65.1137 -65.1109 -65.1103 -31.8954 -31.8953 -31.8906 -31.8906
   -31.8892 -31.8889 -31.8688 -31.8685 -31.8659 -31.8658 -31.8551 -31.8549
    -8.6724  -8.6723  -8.1253  -8.1252   4.2542   4.2542   4.5697   4.5699
     4.9186   4.9187   6.3710   6.3712   6.3995   6.3995   6.8823   6.8824

          k = 0.0000-0.5047 0.0000 (  5222 PWs)   bands (ev):

   -65.1146 -65.1142 -65.1103 -65.1098 -31.8923 -31.8922 -31.8921 -31.8920
   -31.8779 -31.8778 -31.8687 -31.8687 -31.8651 -31.8650 -31.8649 -31.8648
    -8.7904  -8.7900  -8.0450  -8.0449   4.6928   4.6930   4.6937   4.6939
     4.9331   4.9334   5.7557   5.7560   6.7534   6.7535   6.7537   6.7539

          k = 0.0000-0.5047 0.2500 (  5260 PWs)   bands (ev):

   -65.1139 -65.1136 -65.1110 -65.1104 -31.8977 -31.8975 -31.8887 -31.8885
   -31.8885 -31.8884 -31.8696 -31.8694 -31.8634 -31.8634 -31.8587 -31.8586
    -8.6620  -8.6617  -8.1310  -8.1309   4.2532   4.2539   4.5624   4.5628
     4.9367   4.9375   6.3435   6.3437   6.3744   6.3747   6.8925   6.8927

          k = 0.0000-0.5047-0.5000 (  5252 PWs)   bands (ev):

   -65.1125 -65.1124 -65.1124 -65.1115 -31.8980 -31.8978 -31.8976 -31.8976
   -31.8790 -31.8788 -31.8787 -31.8785 -31.8573 -31.8571 -31.8570 -31.8569
    -8.3754  -8.3753  -8.3751  -8.3751   4.1175   4.1176   4.1180   4.1182
     5.5906   5.5907   5.5914   5.5915   6.8679   6.8680   6.8680   6.8682

          k = 0.2500 0.0000 0.0000 (  5220 PWs)   bands (ev):

   -65.1176 -65.1115 -65.1102 -65.1096 -31.9046 -31.9023 -31.8989 -31.8812
   -31.8766 -31.8750 -31.8745 -31.8718 -31.8666 -31.8624 -31.8553 -31.8495
    -9.2953  -8.3092  -8.0733  -8.0564   3.8869   3.9153   3.9332   5.6553
     5.6692   5.9710   6.0162   6.3305   6.3840   6.4539   7.2222   7.2515

          k = 0.2500 0.0000 0.2500 (  5257 PWs)   bands (ev):

   -65.1165 -65.1114 -65.1111 -65.1100 -31.9030 -31.9029 -31.8945 -31.8897
   -31.8749 -31.8717 -31.8717 -31.8711 -31.8709 -31.8708 -31.8537 -31.8535
    -9.1131  -8.2461  -8.2459  -8.0657   4.0050   4.0051   4.1880   4.9015
     5.6661   5.8615   5.8620   6.3147   6.3148   6.3698   6.9524   7.2967

          k = 0.2500 0.0000-0.5000 (  5260 PWs)   bands (ev):

   -65.1141 -65.1137 -65.1109 -65.1103 -31.8987 -31.8986 -31.8915 -31.8914
   -31.8834 -31.8831 -31.8693 -31.8693 -31.8628 -31.8626 -31.8603 -31.8601
    -8.6752  -8.6752  -8.1286  -8.1285   4.2671   4.2671   4.5915   4.5917
     4.9338   4.9339   6.3505   6.3507   6.3703   6.3703   6.8991   6.8992

          k = 0.2500 0.2523 0.0000 (  5241 PWs)   bands (ev):

   -65.1165 -65.1114 -65.1110 -65.1101 -31.9025 -31.8995 -31.8970 -31.8865
   -31.8783 -31.8773 -31.8728 -31.8703 -31.8668 -31.8651 -31.8595 -31.8501
    -9.1085  -8.2454  -8.2288  -8.0771   3.9993   4.0067   4.1679   4.9017
     5.6384   5.8532   5.8965   6.2718   6.2873   6.4003   6.9742   7.2926

          k = 0.2500 0.2523 0.2500 (  5246 PWs)   bands (ev):

   -65.1156 -65.1114 -65.1113 -65.1106 -31.9052 -31.9051 -31.9028 -31.8867
   -31.8751 -31.8750 -31.8740 -31.8684 -31.8637 -31.8636 -31.8573 -31.8520
    -8.9464  -8.2129  -8.2127  -8.2009   3.8439   3.8478   3.8479   4.9044
     5.6607   5.6609   5.6747   6.4922   6.5182   6.5185   7.1457   7.1483

          k = 0.2500 0.2523-0.5000 (  5244 PWs)   bands (ev):

   -65.1136 -65.1132 -65.1113 -65.1108 -31.9072 -31.9070 -31.9004 -31.9003
   -31.8736 -31.8734 -31.8647 -31.8646 -31.8626 -31.8625 -31.8570 -31.8568
    -8.5668  -8.5667  -8.1763  -8.1762   3.6724   3.6725   4.0386   4.0388
     5.6499   5.6500   6.5474   6.5477   6.6669   6.6670   6.8198   6.8198

          k = 0.2500-0.5047 0.0000 (  5260 PWs)   bands (ev):

   -65.1139 -65.1136 -65.1110 -65.1104 -31.8977 -31.8975 -31.8888 -31.8886
   -31.8885 -31.8884 -31.8696 -31.8694 -31.8634 -31.8634 -31.8587 -31.8586
    -8.6620  -8.6617  -8.1310  -8.1308   4.2531   4.2537   4.5622   4.5626
     4.9365   4.9374   6.3437   6.3439   6.3746   6.3750   6.8923   6.8926

          k = 0.2500-0.5047 0.2500 (  5232 PWs)   bands (ev):

   -65.1135 -65.1132 -65.1114 -65.1108 -31.9074 -31.9073 -31.8994 -31.8994
   -31.8765 -31.8764 -31.8628 -31.8626 -31.8598 -31.8598 -31.8584 -31.8583
    -8.5583  -8.5581  -8.1793  -8.1792   3.6704   3.6705   4.0239   4.0243
     5.6518   5.6519   6.5399   6.5401   6.6798   6.6802   6.8047   6.8049

          k = 0.2500-0.5047-0.5000 (  5244 PWs)   bands (ev):

   -65.1125 -65.1124 -65.1124 -65.1115 -31.9103 -31.9101 -31.9100 -31.9100
   -31.8670 -31.8668 -31.8668 -31.8667 -31.8563 -31.8561 -31.8560 -31.8559
    -8.3411  -8.3410  -8.3408  -8.3408   3.4866   3.4867   3.4868   3.4869
     6.3292   6.3293   6.3297   6.3297   6.8691   6.8692   6.8692   6.8694

          k =-0.5000 0.0000 0.0000 (  5262 PWs)   bands (ev):

   -65.1147 -65.1143 -65.1102 -65.1097 -31.8936 -31.8933 -31.8873 -31.8871
   -31.8844 -31.8844 -31.8771 -31.8770 -31.8646 -31.8643 -31.8584 -31.8581
    -8.8060  -8.8059  -8.0388  -8.0386   4.6684   4.6685   4.6912   4.6913
     4.9418   4.9421   5.8020   5.8024   6.7490   6.7491   6.7916   6.7916

          k =-0.5000 0.0000 0.2500 (  5260 PWs)   bands (ev):

   -65.1141 -65.1137 -65.1109 -65.1103 -31.8988 -31.8986 -31.8915 -31.8914
   -31.8834 -31.8831 -31.8693 -31.8693 -31.8628 -31.8626 -31.8603 -31.8601
    -8.6751  -8.6750  -8.1287  -8.1285   4.2671   4.2671   4.5914   4.5917
     4.9340   4.9341   6.3502   6.3505   6.3700   6.3701   6.8992   6.8993

          k =-0.5000 0.0000-0.5000 (  5280 PWs)   bands (ev):

   -65.1125 -65.1124 -65.1124 -65.1115 -31.8998 -31.8995 -31.8995 -31.8995
   -31.8740 -31.8737 -31.8737 -31.8734 -31.8616 -31.8614 -31.8614 -31.8614
    -8.3816  -8.3814  -8.3814  -8.3813   4.1526   4.1526   4.1526   4.1528
     5.5864   5.5865   5.5867   5.5868   6.8545   6.8546   6.8546   6.8549

          k =-0.5000 0.2523 0.0000 (  5244 PWs)   bands (ev):

   -65.1141 -65.1136 -65.1109 -65.1103 -31.8954 -31.8953 -31.8906 -31.8906
   -31.8892 -31.8889 -31.8688 -31.8686 -31.8658 -31.8658 -31.8551 -31.8549
    -8.6723  -8.6722  -8.1253  -8.1252   4.2540   4.2541   4.5694   4.5696
     4.9187   4.9187   6.3709   6.3712   6.3995   6.3996   6.8823   6.8823

          k =-0.5000 0.2523 0.2500 (  5244 PWs)   bands (ev):

   -65.1136 -65.1132 -65.1113 -65.1108 -31.9071 -31.9070 -31.9004 -31.9003
   -31.8738 -31.8735 -31.8646 -31.8645 -31.8626 -31.8625 -31.8570 -31.8568
    -8.5667  -8.5666  -8.1763  -8.1762   3.6724   3.6725   4.0385   4.0386
     5.6499   5.6499   6.5473   6.5476   6.6670   6.6672   6.8196   6.8197

          k =-0.5000 0.2523-0.5000 (  5252 PWs)   bands (ev):

   -65.1125 -65.1124 -65.1124 -65.1115 -31.9105 -31.9102 -31.9102 -31.9102
   -31.8624 -31.8622 -31.8622 -31.8620 -31.8612 -31.8610 -31.8610 -31.8610
    -8.3442  -8.3440  -8.3440  -8.3440   3.4983   3.4984   3.4984   3.4985
     6.3397   6.3398   6.3400   6.3400   6.8558   6.8559   6.8559   6.8561

          k =-0.5000-0.5047 0.0000 (  5252 PWs)   bands (ev):

   -65.1125 -65.1124 -65.1124 -65.1115 -31.8980 -31.8978 -31.8976 -31.8976
   -31.8790 -31.8788 -31.8788 -31.8785 -31.8573 -31.8571 -31.8570 -31.8569
    -8.3754  -8.3752  -8.3751  -8.3750   4.1172   4.1173   4.1177   4.1179
     5.5907   5.5907   5.5914   5.5915   6.8680   6.8682   6.8682   6.8683

          k =-0.5000-0.5047 0.2500 (  5244 PWs)   bands (ev):

   -65.1125 -65.1124 -65.1124 -65.1115 -31.9103 -31.9101 -31.9100 -31.9100
   -31.8670 -31.8668 -31.8668 -31.8667 -31.8563 -31.8561 -31.8560 -31.8559
    -8.3411  -8.3409  -8.3408  -8.3408   3.4865   3.4866   3.4867   3.4868
     6.3292   6.3292   6.3296   6.3296   6.8692   6.8693   6.8693   6.8695

          k =-0.5000-0.5047-0.5000 (  5296 PWs)   bands (ev):

   -65.1125 -65.1124 -65.1124 -65.1115 -31.9188 -31.9186 -31.9186 -31.9185
   -31.8615 -31.8613 -31.8612 -31.8612 -31.8560 -31.8558 -31.8558 -31.8556
    -8.3063  -8.3062  -8.3062  -8.3061   3.0764   3.0765   3.0765   3.0765
     6.8568   6.8569   6.8569   6.8571   6.8741   6.8742   6.8743   6.8744

          k = 0.0000 0.2523-0.2500 (  5241 PWs)   bands (ev):

   -65.1165 -65.1114 -65.1110 -65.1101 -31.9025 -31.8995 -31.8970 -31.8865
   -31.8782 -31.8773 -31.8728 -31.8703 -31.8668 -31.8651 -31.8594 -31.8502
    -9.1085  -8.2455  -8.2288  -8.0770   3.9993   4.0068   4.1681   4.9017
     5.6386   5.8529   5.8966   6.2720   6.2877   6.4000   6.9740   7.2926

          k =-0.2500 0.2523-0.2500 (  5246 PWs)   bands (ev):

   -65.1156 -65.1114 -65.1113 -65.1106 -31.9052 -31.9051 -31.9028 -31.8867
   -31.8751 -31.8750 -31.8740 -31.8684 -31.8637 -31.8636 -31.8573 -31.8520
    -8.9464  -8.2129  -8.2127  -8.2009   3.8439   3.8478   3.8479   4.9044
     5.6607   5.6609   5.6747   6.4922   6.5182   6.5185   7.1457   7.1483

          k = 0.5000 0.2523-0.2500 (  5244 PWs)   bands (ev):

   -65.1136 -65.1132 -65.1113 -65.1108 -31.9071 -31.9070 -31.9004 -31.9003
   -31.8738 -31.8735 -31.8646 -31.8645 -31.8626 -31.8625 -31.8570 -31.8568
    -8.5667  -8.5666  -8.1763  -8.1762   3.6724   3.6725   4.0385   4.0386
     5.6499   5.6499   6.5473   6.5476   6.6670   6.6672   6.8196   6.8197

     highest occupied level (ev):     7.4594

!    total energy              =    -608.39162147 Ry
     Harris-Foulkes estimate   =    -608.39162147 Ry
     estimated scf accuracy    <          8.1E-10 Ry

     The total energy is the sum of the following terms:

     one-electron contribution =    -307.14705617 Ry
     hartree contribution      =     169.26957993 Ry
     xc contribution           =     -97.77164180 Ry
     ewald contribution        =    -372.74250342 Ry

     convergence has been achieved in   5 iterations

     Forces acting on atoms (cartesian axes, Ry/au):

     atom    1 type  1   force =     0.00000000    0.00004198   -0.00000301
     atom    2 type  1   force =     0.00000000   -0.00021045    0.00000476
     atom    3 type  1   force =     0.00000000    0.00026268    0.00000454
     atom    4 type  1   force =     0.00000000   -0.00021045   -0.00000498
     atom    5 type  2   force =     0.00000000   -0.00011903   -0.00000136
     atom    6 type  2   force =     0.00000000    0.00016245   -0.00000139
     atom    7 type  2   force =     0.00000000   -0.00011998    0.00000088
     atom    8 type  2   force =     0.00000000    0.00019281    0.00000055

     Total force =     0.000502     Total SCF correction =     0.000275
     SCF correction compared to forces is large: reduce conv_thr to get better values


     Computing stress (Cartesian axis) and pressure

          total   stress  (Ry/bohr**3)                   (kbar)     P=  -92.66
  -0.00066124   0.00000000   0.00000000        -97.27      0.00      0.00
   0.00000000  -0.00056652   0.00000000          0.00    -83.34      0.00
   0.00000000   0.00000000  -0.00066199          0.00      0.00    -97.38


     number of scf cycles    =   4
     number of bfgs steps    =   3

     energy   old            =    -608.3915676955 Ry
     energy   new            =    -608.3916214691 Ry

     CASE: energy  _new < energy  _old

     new trust radius        =       0.0003141104 bohr
     new conv_thr            =       0.0000000003 Ry


ATOMIC_POSITIONS (alat)
Mg       0.000000000   0.002141259  -0.000018910
Mg       0.000000000   0.497811214   0.500018814
Mg       0.500000000   0.002247573   0.500019315
Mg       0.500000000   0.497811271  -0.000019781
O        0.500000000   0.002331017  -0.000020706
O        0.000000000   0.497664571  -0.000020748
O        0.000000000   0.002331021   0.500020980
O        0.500000000   0.497662073   0.500021037



     Writing output data file diamond.8.11945354850.70.4.save
     NEW-OLD atomic charge density approx. for the potential

     Check: negative/imaginary core charge=   -0.000007    0.000000

     total cpu time spent up to now is       39.4 secs

     per-process dynamical memory:    52.1 Mb

     Self-consistent Calculation

     iteration #  1     ecut=    70.00 Ry     beta=0.70
     Davidson diagonalization with overlap
     ethr =  1.00E-06,  avg # of iterations =  2.0

     Threshold (ethr) on eigenvalues was too large:
     Diagonalizing with lowered threshold

     Davidson diagonalization with overlap
     ethr =  9.23E-12,  avg # of iterations =  3.7

     total cpu time spent up to now is       42.6 secs

     total energy              =    -608.39162169 Ry
     Harris-Foulkes estimate   =    -608.39162169 Ry
     estimated scf accuracy    <          6.4E-09 Ry

     iteration #  2     ecut=    70.00 Ry     beta=0.70
     Davidson diagonalization with overlap
     ethr =  9.99E-12,  avg # of iterations =  3.0

     total cpu time spent up to now is       44.0 secs

     total energy              =    -608.39162169 Ry
     Harris-Foulkes estimate   =    -608.39162169 Ry
     estimated scf accuracy    <          4.1E-09 Ry

     iteration #  3     ecut=    70.00 Ry     beta=0.70
     Davidson diagonalization with overlap
     ethr =  6.37E-12,  avg # of iterations =  3.0

     total cpu time spent up to now is       45.3 secs

     total energy              =    -608.39162169 Ry
     Harris-Foulkes estimate   =    -608.39162169 Ry
     estimated scf accuracy    <          5.7E-10 Ry

     iteration #  4     ecut=    70.00 Ry     beta=0.70
     Davidson diagonalization with overlap
     ethr =  8.91E-13,  avg # of iterations =  2.8

     total cpu time spent up to now is       46.7 secs

     End of self-consistent calculation

          k = 0.0000 0.0000 0.0000 (  5233 PWs)   bands (ev):

   -65.1189 -65.1103 -65.1102 -65.1095 -31.9093 -31.9092 -31.9045 -31.8758
   -31.8758 -31.8737 -31.8737 -31.8700 -31.8699 -31.8543 -31.8543 -31.8463
    -9.4951  -8.1026  -8.1024  -8.0790   3.6027   3.6030   3.6324   6.1630
     6.1635   6.1704   6.1711   6.2288   6.2289   7.4386   7.4592   7.4594

          k = 0.0000 0.0000 0.2500 (  5220 PWs)   bands (ev):

   -65.1176 -65.1115 -65.1102 -65.1096 -31.9045 -31.9023 -31.8989 -31.8811
   -31.8766 -31.8751 -31.8745 -31.8718 -31.8665 -31.8625 -31.8552 -31.8495
    -9.2954  -8.3094  -8.0731  -8.0564   3.8871   3.9153   3.9331   5.6549
     5.6688   5.9715   6.0163   6.3310   6.3840   6.4541   7.2223   7.2513

          k = 0.0000 0.0000-0.5000 (  5262 PWs)   bands (ev):

   -65.1147 -65.1143 -65.1102 -65.1097 -31.8935 -31.8933 -31.8873 -31.8871
   -31.8845 -31.8844 -31.8771 -31.8771 -31.8645 -31.8643 -31.8584 -31.8581
    -8.8062  -8.8061  -8.0387  -8.0386   4.6684   4.6684   4.6910   4.6911
     4.9419   4.9422   5.8024   5.8028   6.7494   6.7494   6.7915   6.7916

          k = 0.0000 0.2523 0.0000 (  5237 PWs)   bands (ev):

   -65.1176 -65.1112 -65.1103 -65.1098 -31.9046 -31.9046 -31.8952 -31.8799
   -31.8799 -31.8735 -31.8735 -31.8708 -31.8707 -31.8571 -31.8564 -31.8564
    -9.2902  -8.2868  -8.0740  -8.0738   3.8932   3.8934   3.9486   5.7053
     5.7054   5.9566   5.9571   6.3258   6.3263   6.4338   7.2385   7.2388

          k = 0.0000 0.2523 0.2500 (  5241 PWs)   bands (ev):

   -65.1165 -65.1114 -65.1110 -65.1101 -31.9025 -31.8995 -31.8970 -31.8865
   -31.8782 -31.8773 -31.8728 -31.8703 -31.8668 -31.8651 -31.8594 -31.8501
    -9.1085  -8.2455  -8.2288  -8.0770   3.9993   4.0068   4.1681   4.9017
     5.6386   5.8528   5.8965   6.2720   6.2877   6.4000   6.9740   7.2926

          k = 0.0000 0.2523-0.5000 (  5244 PWs)   bands (ev):

   -65.1141 -65.1136 -65.1109 -65.1103 -31.8954 -31.8953 -31.8906 -31.8906
   -31.8892 -31.8889 -31.8688 -31.8685 -31.8659 -31.8658 -31.8551 -31.8549
    -8.6724  -8.6723  -8.1253  -8.1252   4.2541   4.2542   4.5697   4.5699
     4.9186   4.9187   6.3710   6.3712   6.3995   6.3995   6.8823   6.8824

          k = 0.0000-0.5047 0.0000 (  5222 PWs)   bands (ev):

   -65.1146 -65.1142 -65.1103 -65.1098 -31.8922 -31.8922 -31.8921 -31.8920
   -31.8779 -31.8778 -31.8687 -31.8687 -31.8651 -31.8650 -31.8649 -31.8648
    -8.7904  -8.7900  -8.0450  -8.0449   4.6927   4.6929   4.6937   4.6939
     4.9331   4.9333   5.7557   5.7560   6.7533   6.7536   6.7537   6.7540

          k = 0.0000-0.5047 0.2500 (  5260 PWs)   bands (ev):

   -65.1139 -65.1136 -65.1109 -65.1104 -31.8977 -31.8975 -31.8887 -31.8885
   -31.8885 -31.8884 -31.8696 -31.8694 -31.8634 -31.8634 -31.8587 -31.8586
    -8.6621  -8.6617  -8.1310  -8.1309   4.2532   4.2538   4.5624   4.5627
     4.9366   4.9375   6.3435   6.3437   6.3743   6.3747   6.8925   6.8927

          k = 0.0000-0.5047-0.5000 (  5252 PWs)   bands (ev):

   -65.1125 -65.1124 -65.1124 -65.1115 -31.8980 -31.8978 -31.8976 -31.8976
   -31.8789 -31.8788 -31.8787 -31.8785 -31.8573 -31.8571 -31.8570 -31.8569
    -8.3754  -8.3753  -8.3752  -8.3751   4.1176   4.1176   4.1179   4.1181
     5.5906   5.5907   5.5914   5.5915   6.8679   6.8680   6.8680   6.8682

          k = 0.2500 0.0000 0.0000 (  5220 PWs)   bands (ev):

   -65.1176 -65.1115 -65.1102 -65.1096 -31.9046 -31.9023 -31.8989 -31.8812
   -31.8766 -31.8750 -31.8745 -31.8718 -31.8665 -31.8624 -31.8553 -31.8495
    -9.2953  -8.3092  -8.0733  -8.0565   3.8869   3.9153   3.9332   5.6553
     5.6692   5.9710   6.0162   6.3304   6.3840   6.4539   7.2222   7.2515

          k = 0.2500 0.0000 0.2500 (  5257 PWs)   bands (ev):

   -65.1165 -65.1114 -65.1110 -65.1100 -31.9030 -31.9029 -31.8944 -31.8897
   -31.8749 -31.8717 -31.8717 -31.8711 -31.8709 -31.8708 -31.8537 -31.8535
    -9.1131  -8.2461  -8.2459  -8.0657   4.0050   4.0051   4.1879   4.9015
     5.6661   5.8615   5.8620   6.3146   6.3148   6.3698   6.9523   7.2967

          k = 0.2500 0.0000-0.5000 (  5260 PWs)   bands (ev):

   -65.1141 -65.1136 -65.1109 -65.1103 -31.8987 -31.8986 -31.8915 -31.8914
   -31.8834 -31.8831 -31.8693 -31.8693 -31.8628 -31.8626 -31.8603 -31.8601
    -8.6752  -8.6752  -8.1286  -8.1285   4.2670   4.2671   4.5915   4.5917
     4.9338   4.9339   6.3505   6.3507   6.3702   6.3703   6.8991   6.8992

          k = 0.2500 0.2523 0.0000 (  5241 PWs)   bands (ev):

   -65.1165 -65.1114 -65.1110 -65.1101 -31.9025 -31.8995 -31.8970 -31.8865
   -31.8783 -31.8773 -31.8728 -31.8703 -31.8668 -31.8651 -31.8594 -31.8501
    -9.1085  -8.2454  -8.2288  -8.0771   3.9993   4.0067   4.1679   4.9017
     5.6384   5.8532   5.8965   6.2717   6.2873   6.4003   6.9742   7.2926

          k = 0.2500 0.2523 0.2500 (  5246 PWs)   bands (ev):

   -65.1156 -65.1114 -65.1113 -65.1106 -31.9052 -31.9051 -31.9028 -31.8867
   -31.8751 -31.8750 -31.8740 -31.8684 -31.8636 -31.8636 -31.8573 -31.8520
    -8.9464  -8.2129  -8.2128  -8.2009   3.8439   3.8478   3.8479   4.9044
     5.6607   5.6609   5.6747   6.4921   6.5182   6.5185   7.1457   7.1483

          k = 0.2500 0.2523-0.5000 (  5244 PWs)   bands (ev):

   -65.1136 -65.1132 -65.1113 -65.1108 -31.9072 -31.9070 -31.9004 -31.9003
   -31.8736 -31.8734 -31.8647 -31.8646 -31.8626 -31.8625 -31.8570 -31.8568
    -8.5668  -8.5667  -8.1763  -8.1762   3.6724   3.6725   4.0386   4.0388
     5.6499   5.6499   6.5474   6.5477   6.6669   6.6670   6.8198   6.8198

          k = 0.2500-0.5047 0.0000 (  5260 PWs)   bands (ev):

   -65.1139 -65.1136 -65.1109 -65.1104 -31.8976 -31.8975 -31.8888 -31.8886
   -31.8885 -31.8884 -31.8696 -31.8694 -31.8634 -31.8634 -31.8587 -31.8586
    -8.6620  -8.6617  -8.1310  -8.1309   4.2531   4.2537   4.5622   4.5625
     4.9365   4.9374   6.3436   6.3439   6.3746   6.3750   6.8923   6.8925

          k = 0.2500-0.5047 0.2500 (  5232 PWs)   bands (ev):

   -65.1135 -65.1131 -65.1114 -65.1108 -31.9074 -31.9073 -31.8994 -31.8993
   -31.8765 -31.8764 -31.8628 -31.8626 -31.8598 -31.8597 -31.8584 -31.8583
    -8.5584  -8.5581  -8.1793  -8.1792   3.6704   3.6704   4.0240   4.0242
     5.6518   5.6518   6.5399   6.5401   6.6798   6.6802   6.8047   6.8049

          k = 0.2500-0.5047-0.5000 (  5244 PWs)   bands (ev):

   -65.1125 -65.1124 -65.1124 -65.1115 -31.9103 -31.9101 -31.9100 -31.9100
   -31.8670 -31.8668 -31.8668 -31.8667 -31.8563 -31.8561 -31.8560 -31.8559
    -8.3411  -8.3410  -8.3409  -8.3408   3.4866   3.4867   3.4868   3.4869
     6.3292   6.3293   6.3297   6.3297   6.8690   6.8691   6.8692   6.8693

          k =-0.5000 0.0000 0.0000 (  5262 PWs)   bands (ev):

   -65.1147 -65.1143 -65.1102 -65.1097 -31.8936 -31.8933 -31.8873 -31.8871
   -31.8844 -31.8844 -31.8771 -31.8770 -31.8646 -31.8643 -31.8584 -31.8581
    -8.8060  -8.8059  -8.0388  -8.0387   4.6684   4.6684   4.6912   4.6913
     4.9418   4.9421   5.8020   5.8023   6.7490   6.7490   6.7916   6.7916

          k =-0.5000 0.0000 0.2500 (  5260 PWs)   bands (ev):

   -65.1141 -65.1136 -65.1109 -65.1103 -31.8988 -31.8986 -31.8915 -31.8914
   -31.8834 -31.8831 -31.8693 -31.8693 -31.8628 -31.8626 -31.8603 -31.8601
    -8.6752  -8.6751  -8.1287  -8.1286   4.2671   4.2671   4.5914   4.5917
     4.9340   4.9340   6.3502   6.3505   6.3700   6.3700   6.8992   6.8993

          k =-0.5000 0.0000-0.5000 (  5280 PWs)   bands (ev):

   -65.1125 -65.1124 -65.1124 -65.1115 -31.8998 -31.8995 -31.8995 -31.8995
   -31.8739 -31.8737 -31.8737 -31.8734 -31.8616 -31.8614 -31.8614 -31.8614
[...]
    -8.9464  -8.2129  -8.2128  -8.2009   3.8439   3.8478   3.8479   4.9044
     5.6607   5.6609   5.6747   6.4922   6.5182   6.5185   7.1457   7.1483

          k = 0.5000 0.2523-0.2500 (  5244 PWs)   bands (ev):

   -65.1136 -65.1132 -65.1113 -65.1108 -31.9071 -31.9070 -31.9004 -31.9003
   -31.8738 -31.8735 -31.8646 -31.8645 -31.8626 -31.8625 -31.8570 -31.8568
    -8.5667  -8.5666  -8.1763  -8.1762   3.6724   3.6725   4.0385   4.0386
     5.6499   5.6499   6.5473   6.5476   6.6670   6.6672   6.8196   6.8196

     highest occupied level (ev):     7.4594

!    total energy              =    -608.39162186 Ry
     Harris-Foulkes estimate   =    -608.39162186 Ry
     estimated scf accuracy    <          5.0E-11 Ry

     The total energy is the sum of the following terms:

     one-electron contribution =    -307.14705567 Ry
     hartree contribution      =     169.26960366 Ry
     xc contribution           =     -97.77165359 Ry
     ewald contribution        =    -372.74251626 Ry

     convergence has been achieved in   3 iterations

     Forces acting on atoms (cartesian axes, Ry/au):

     atom    1 type  1   force =     0.00000000   -0.00002679   -0.00000045
     atom    2 type  1   force =     0.00000000   -0.00007115    0.00000169
     atom    3 type  1   force =     0.00000000    0.00010451    0.00000152
     atom    4 type  1   force =     0.00000000   -0.00007131   -0.00000179
     atom    5 type  2   force =     0.00000000   -0.00003275   -0.00000069
     atom    6 type  2   force =     0.00000000    0.00004556   -0.00000071
     atom    7 type  2   force =     0.00000000   -0.00003414    0.00000036
     atom    8 type  2   force =     0.00000000    0.00008606    0.00000007

     Total force =     0.000183     Total SCF correction =     0.000011


     Computing stress (Cartesian axis) and pressure

          total   stress  (Ry/bohr**3)                   (kbar)     P=  -92.66
  -0.00066119   0.00000000   0.00000000        -97.26      0.00      0.00
   0.00000000  -0.00056647   0.00000000          0.00    -83.33      0.00
   0.00000000   0.00000000  -0.00066194          0.00      0.00    -97.37


     number of scf cycles    =   6
     number of bfgs steps    =   5

     energy   old            =    -608.3916216880 Ry
     energy   new            =    -608.3916218562 Ry

     CASE: energy  _new < energy  _old

     new trust radius        =       0.0004025791 bohr
     new conv_thr            =            1.0E-10 Ry


ATOMIC_POSITIONS (alat)
Mg       0.000000000   0.002139773  -0.000019702
Mg       0.000000000   0.497741986   0.500020427
Mg       0.500000000   0.002339697   0.500020821
Mg       0.500000000   0.497742116  -0.000021475
O        0.500000000   0.002298183  -0.000021234
O        0.000000000   0.497710753  -0.000021307
O        0.000000000   0.002297789   0.500021278
O        0.500000000   0.497729704   0.500021192



     Writing output data file diamond.8.11945354850.70.4.save
     NEW-OLD atomic charge density approx. for the potential

     Check: negative/imaginary core charge=   -0.000007    0.000000

     total cpu time spent up to now is       53.6 secs

     per-process dynamical memory:    52.1 Mb

     Self-consistent Calculation

     iteration #  1     ecut=    70.00 Ry     beta=0.70
     Davidson diagonalization with overlap
     ethr =  1.00E-06,  avg # of iterations =  2.0

     Threshold (ethr) on eigenvalues was too large:
     Diagonalizing with lowered threshold

     Davidson diagonalization with overlap
     ethr =  4.36E-11,  avg # of iterations =  3.5

     total cpu time spent up to now is       56.6 secs

     total energy              =    -608.39162190 Ry
     Harris-Foulkes estimate   =    -608.39162191 Ry
     estimated scf accuracy    <       0.00000002 Ry

     iteration #  2     ecut=    70.00 Ry     beta=0.70
     Davidson diagonalization with overlap
     ethr =  2.37E-11,  avg # of iterations =  2.0

     total cpu time spent up to now is       57.8 secs

     total energy              =    -608.39162190 Ry
     Harris-Foulkes estimate   =    -608.39162190 Ry
     estimated scf accuracy    <          2.1E-09 Ry

     iteration #  3     ecut=    70.00 Ry     beta=0.70
     Davidson diagonalization with overlap
     ethr =  3.31E-12,  avg # of iterations =  2.0

     total cpu time spent up to now is       59.0 secs

     End of self-consistent calculation

          k = 0.0000 0.0000 0.0000 (  5233 PWs)   bands (ev):

   -65.1189 -65.1103 -65.1102 -65.1095 -31.9093 -31.9092 -31.9045 -31.8758
   -31.8758 -31.8737 -31.8737 -31.8700 -31.8699 -31.8543 -31.8543 -31.8463
    -9.4951  -8.1026  -8.1024  -8.0790   3.6027   3.6030   3.6324   6.1630
     6.1635   6.1704   6.1711   6.2288   6.2289   7.4386   7.4592   7.4594

          k = 0.0000 0.0000 0.2500 (  5220 PWs)   bands (ev):

   -65.1176 -65.1115 -65.1102 -65.1096 -31.9045 -31.9023 -31.8989 -31.8811
   -31.8766 -31.8751 -31.8745 -31.8718 -31.8665 -31.8625 -31.8552 -31.8495
    -9.2953  -8.3094  -8.0731  -8.0564   3.8871   3.9153   3.9331   5.6549
     5.6688   5.9715   6.0163   6.3310   6.3840   6.4541   7.2223   7.2513

          k = 0.0000 0.0000-0.5000 (  5262 PWs)   bands (ev):

   -65.1147 -65.1143 -65.1102 -65.1097 -31.8935 -31.8933 -31.8873 -31.8871
   -31.8845 -31.8844 -31.8771 -31.8771 -31.8645 -31.8643 -31.8584 -31.8581
    -8.8062  -8.8061  -8.0387  -8.0386   4.6684   4.6684   4.6910   4.6910
     4.9419   4.9422   5.8024   5.8028   6.7494   6.7494   6.7916   6.7916

          k = 0.0000 0.2523 0.0000 (  5237 PWs)   bands (ev):

   -65.1176 -65.1112 -65.1103 -65.1098 -31.9046 -31.9046 -31.8952 -31.8799
   -31.8799 -31.8735 -31.8735 -31.8708 -31.8707 -31.8571 -31.8564 -31.8564
    -9.2902  -8.2868  -8.0740  -8.0738   3.8932   3.8934   3.9486   5.7053
     5.7054   5.9566   5.9571   6.3258   6.3263   6.4338   7.2385   7.2388

          k = 0.0000 0.2523 0.2500 (  5241 PWs)   bands (ev):

   -65.1165 -65.1114 -65.1110 -65.1101 -31.9025 -31.8995 -31.8970 -31.8865
   -31.8782 -31.8773 -31.8728 -31.8703 -31.8668 -31.8651 -31.8594 -31.8501
    -9.1085  -8.2455  -8.2288  -8.0770   3.9993   4.0068   4.1681   4.9017
     5.6386   5.8529   5.8965   6.2720   6.2877   6.4000   6.9740   7.2926

          k = 0.0000 0.2523-0.5000 (  5244 PWs)   bands (ev):

   -65.1141 -65.1136 -65.1109 -65.1103 -31.8954 -31.8953 -31.8906 -31.8906
   -31.8892 -31.8889 -31.8688 -31.8685 -31.8659 -31.8658 -31.8551 -31.8549
    -8.6724  -8.6723  -8.1253  -8.1252   4.2541   4.2542   4.5697   4.5699
     4.9186   4.9187   6.3710   6.3712   6.3995   6.3995   6.8823   6.8824

          k = 0.0000-0.5047 0.0000 (  5222 PWs)   bands (ev):

   -65.1146 -65.1142 -65.1103 -65.1098 -31.8922 -31.8922 -31.8921 -31.8920
   -31.8779 -31.8778 -31.8687 -31.8687 -31.8651 -31.8650 -31.8649 -31.8649
    -8.7907  -8.7898  -8.0450  -8.0449   4.6925   4.6927   4.6940   4.6942
     4.9329   4.9335   5.7557   5.7560   6.7530   6.7534   6.7538   6.7542

          k = 0.0000-0.5047 0.2500 (  5260 PWs)   bands (ev):

   -65.1139 -65.1136 -65.1110 -65.1104 -31.8977 -31.8976 -31.8887 -31.8885
   -31.8885 -31.8884 -31.8696 -31.8694 -31.8634 -31.8634 -31.8587 -31.8586
    -8.6623  -8.6615  -8.1310  -8.1309   4.2532   4.2539   4.5623   4.5628
     4.9364   4.9378   6.3433   6.3439   6.3740   6.3750   6.8924   6.8927

          k = 0.0000-0.5047-0.5000 (  5252 PWs)   bands (ev):

   -65.1125 -65.1124 -65.1124 -65.1115 -31.8980 -31.8978 -31.8976 -31.8976
   -31.8789 -31.8788 -31.8787 -31.8785 -31.8573 -31.8571 -31.8570 -31.8569
    -8.3755  -8.3755  -8.3750  -8.3750   4.1177   4.1178   4.1178   4.1180
     5.5904   5.5904   5.5917   5.5917   6.8678   6.8679   6.8681   6.8683

          k = 0.2500 0.0000 0.0000 (  5220 PWs)   bands (ev):

   -65.1176 -65.1115 -65.1102 -65.1096 -31.9046 -31.9023 -31.8989 -31.8812
   -31.8766 -31.8750 -31.8745 -31.8718 -31.8665 -31.8624 -31.8553 -31.8495
    -9.2953  -8.3092  -8.0733  -8.0565   3.8869   3.9153   3.9332   5.6553
     5.6692   5.9710   6.0162   6.3304   6.3840   6.4539   7.2222   7.2515

          k = 0.2500 0.0000 0.2500 (  5257 PWs)   bands (ev):

   -65.1165 -65.1114 -65.1110 -65.1100 -31.9030 -31.9029 -31.8944 -31.8897
   -31.8749 -31.8717 -31.8717 -31.8711 -31.8709 -31.8708 -31.8537 -31.8535
    -9.1131  -8.2461  -8.2459  -8.0657   4.0050   4.0051   4.1879   4.9015
     5.6661   5.8615   5.8620   6.3146   6.3148   6.3698   6.9523   7.2967

          k = 0.2500 0.0000-0.5000 (  5260 PWs)   bands (ev):

   -65.1141 -65.1137 -65.1109 -65.1103 -31.8987 -31.8986 -31.8915 -31.8914
   -31.8834 -31.8831 -31.8693 -31.8693 -31.8628 -31.8626 -31.8603 -31.8601
    -8.6752  -8.6752  -8.1286  -8.1285   4.2670   4.2671   4.5915   4.5917
     4.9338   4.9339   6.3505   6.3507   6.3703   6.3703   6.8991   6.8992

          k = 0.2500 0.2523 0.0000 (  5241 PWs)   bands (ev):

   -65.1165 -65.1114 -65.1110 -65.1101 -31.9025 -31.8995 -31.8970 -31.8865
   -31.8783 -31.8773 -31.8728 -31.8703 -31.8668 -31.8651 -31.8594 -31.8501
    -9.1085  -8.2454  -8.2288  -8.0771   3.9993   4.0067   4.1679   4.9017
     5.6384   5.8532   5.8965   6.2717   6.2873   6.4003   6.9742   7.2926

          k = 0.2500 0.2523 0.2500 (  5246 PWs)   bands (ev):

   -65.1156 -65.1114 -65.1113 -65.1106 -31.9052 -31.9051 -31.9028 -31.8867
   -31.8751 -31.8750 -31.8740 -31.8684 -31.8636 -31.8636 -31.8573 -31.8520
    -8.9464  -8.2129  -8.2128  -8.2009   3.8439   3.8478   3.8479   4.9044
     5.6607   5.6609   5.6747   6.4921   6.5182   6.5185   7.1457   7.1483

          k = 0.2500 0.2523-0.5000 (  5244 PWs)   bands (ev):

   -65.1136 -65.1132 -65.1113 -65.1108 -31.9072 -31.9070 -31.9004 -31.9003
   -31.8736 -31.8734 -31.8647 -31.8646 -31.8626 -31.8625 -31.8570 -31.8568
    -8.5668  -8.5667  -8.1763  -8.1762   3.6724   3.6725   4.0386   4.0388
     5.6499   5.6499   6.5474   6.5477   6.6669   6.6670   6.8198   6.8198

          k = 0.2500-0.5047 0.0000 (  5260 PWs)   bands (ev):

   -65.1139 -65.1136 -65.1110 -65.1104 -31.8976 -31.8975 -31.8887 -31.8886
   -31.8885 -31.8884 -31.8696 -31.8695 -31.8634 -31.8634 -31.8587 -31.8586
    -8.6622  -8.6615  -8.1310  -8.1308   4.2531   4.2537   4.5621   4.5626
     4.9362   4.9377   6.3435   6.3441   6.3743   6.3753   6.8923   6.8926

          k = 0.2500-0.5047 0.2500 (  5232 PWs)   bands (ev):

   -65.1135 -65.1131 -65.1114 -65.1108 -31.9074 -31.9073 -31.8994 -31.8993
   -31.8765 -31.8764 -31.8628 -31.8626 -31.8598 -31.8597 -31.8583 -31.8583
    -8.5585  -8.5579  -8.1793  -8.1792   3.6704   3.6704   4.0238   4.0244
     5.6518   5.6519   6.5399   6.5401   6.6798   6.6802   6.8045   6.8051

          k = 0.2500-0.5047-0.5000 (  5244 PWs)   bands (ev):

   -65.1125 -65.1124 -65.1124 -65.1115 -31.9103 -31.9101 -31.9100 -31.9100
   -31.8670 -31.8668 -31.8668 -31.8667 -31.8563 -31.8561 -31.8560 -31.8559
    -8.3412  -8.3411  -8.3408  -8.3407   3.4866   3.4867   3.4869   3.4869
     6.3290   6.3291   6.3298   6.3299   6.8690   6.8691   6.8692   6.8694

          k =-0.5000 0.0000 0.0000 (  5262 PWs)   bands (ev):

   -65.1147 -65.1143 -65.1102 -65.1097 -31.8936 -31.8933 -31.8873 -31.8871
   -31.8844 -31.8844 -31.8771 -31.8770 -31.8646 -31.8643 -31.8584 -31.8581
    -8.8060  -8.8059  -8.0388  -8.0387   4.6684   4.6685   4.6912   4.6913
     4.9418   4.9421   5.8020   5.8023   6.7490   6.7491   6.7916   6.7916

          k =-0.5000 0.0000 0.2500 (  5260 PWs)   bands (ev):

   -65.1141 -65.1136 -65.1109 -65.1103 -31.8988 -31.8986 -31.8915 -31.8914
   -31.8834 -31.8831 -31.8693 -31.8693 -31.8628 -31.8626 -31.8603 -31.8601
    -8.6752  -8.6751  -8.1287  -8.1286   4.2671   4.2671   4.5914   4.5917
     4.9340   4.9340   6.3502   6.3505   6.3700   6.3701   6.8992   6.8993

          k =-0.5000 0.0000-0.5000 (  5280 PWs)   bands (ev):

   -65.1125 -65.1124 -65.1124 -65.1115 -31.8998 -31.8995 -31.8995 -31.8995
   -31.8739 -31.8737 -31.8737 -31.8734 -31.8616 -31.8614 -31.8614 -31.8614
    -8.3816  -8.3814  -8.3814  -8.3814   4.1526   4.1526   4.1526   4.1528
     5.5864   5.5865   5.5867   5.5868   6.8545   6.8547   6.8547   6.8549

          k =-0.5000 0.2523 0.0000 (  5244 PWs)   bands (ev):

   -65.1141 -65.1136 -65.1109 -65.1103 -31.8954 -31.8953 -31.8906 -31.8906
   -31.8892 -31.8889 -31.8688 -31.8686 -31.8658 -31.8657 -31.8551 -31.8549
    -8.6723  -8.6722  -8.1253  -8.1252   4.2540   4.2541   4.5694   4.5696
     4.9187   4.9187   6.3709   6.3712   6.3995   6.3996   6.8822   6.8823

          k =-0.5000 0.2523 0.2500 (  5244 PWs)   bands (ev):

   -65.1136 -65.1132 -65.1113 -65.1108 -31.9071 -31.9069 -31.9004 -31.9003
   -31.8738 -31.8735 -31.8646 -31.8645 -31.8626 -31.8625 -31.8570 -31.8568
    -8.5667  -8.5666  -8.1763  -8.1762   3.6724   3.6725   4.0385   4.0386
     5.6499   5.6499   6.5473   6.5476   6.6670   6.6671   6.8196   6.8197

          k =-0.5000 0.2523-0.5000 (  5252 PWs)   bands (ev):

   -65.1125 -65.1124 -65.1124 -65.1115 -31.9104 -31.9102 -31.9102 -31.9102
   -31.8624 -31.8622 -31.8622 -31.8620 -31.8612 -31.8610 -31.8610 -31.8610
    -8.3442  -8.3440  -8.3440  -8.3440   3.4983   3.4984   3.4984   3.4984
     6.3397   6.3398   6.3399   6.3400   6.8558   6.8559   6.8559   6.8561

          k =-0.5000-0.5047 0.0000 (  5252 PWs)   bands (ev):

   -65.1125 -65.1124 -65.1124 -65.1115 -31.8980 -31.8978 -31.8976 -31.8976
   -31.8790 -31.8789 -31.8788 -31.8786 -31.8573 -31.8571 -31.8570 -31.8569
    -8.3755  -8.3754  -8.3750  -8.3749   4.1173   4.1175   4.1175   4.1176
     5.5904   5.5904   5.5917   5.5918   6.8679   6.8681   6.8683   6.8684

          k =-0.5000-0.5047 0.2500 (  5244 PWs)   bands (ev):

   -65.1125 -65.1124 -65.1124 -65.1115 -31.9103 -31.9101 -31.9100 -31.9100
   -31.8670 -31.8668 -31.8668 -31.8667 -31.8563 -31.8561 -31.8560 -31.8559
    -8.3411  -8.3410  -8.3408  -8.3407   3.4865   3.4866   3.4868   3.4868
     6.3290   6.3290   6.3297   6.3298   6.8691   6.8693   6.8694   6.8695

          k =-0.5000-0.5047-0.5000 (  5296 PWs)   bands (ev):

   -65.1125 -65.1124 -65.1124 -65.1115 -31.9188 -31.9186 -31.9186 -31.9185
   -31.8615 -31.8613 -31.8612 -31.8612 -31.8560 -31.8558 -31.8558 -31.8556
    -8.3063  -8.3062  -8.3062  -8.3061   3.0764   3.0765   3.0765   3.0765
     6.8567   6.8569   6.8569   6.8571   6.8741   6.8742   6.8743   6.8743

          k = 0.0000 0.2523-0.2500 (  5241 PWs)   bands (ev):

   -65.1165 -65.1114 -65.1110 -65.1101 -31.9025 -31.8995 -31.8970 -31.8865
   -31.8782 -31.8773 -31.8728 -31.8703 -31.8668 -31.8651 -31.8594 -31.8501
    -9.1085  -8.2455  -8.2288  -8.0770   3.9993   4.0068   4.1681   4.9017
     5.6386   5.8529   5.8965   6.2720   6.2877   6.4000   6.9740   7.2926

          k =-0.2500 0.2523-0.2500 (  5246 PWs)   bands (ev):

   -65.1156 -65.1114 -65.1113 -65.1106 -31.9052 -31.9051 -31.9028 -31.8867
   -31.8751 -31.8750 -31.8740 -31.8684 -31.8636 -31.8636 -31.8573 -31.8520
    -8.9464  -8.2129  -8.2128  -8.2009   3.8439   3.8478   3.8479   4.9044
     5.6607   5.6609   5.6747   6.4921   6.5182   6.5185   7.1457   7.1483

          k = 0.5000 0.2523-0.2500 (  5244 PWs)   bands (ev):

   -65.1136 -65.1132 -65.1113 -65.1108 -31.9071 -31.9069 -31.9004 -31.9003
   -31.8738 -31.8735 -31.8646 -31.8645 -31.8626 -31.8625 -31.8570 -31.8568
    -8.5667  -8.5666  -8.1763  -8.1762   3.6724   3.6725   4.0385   4.0386
     5.6499   5.6499   6.5473   6.5476   6.6670   6.6671   6.8196   6.8197

     highest occupied level (ev):     7.4594

!    total energy              =    -608.39162190 Ry
     Harris-Foulkes estimate   =    -608.39162190 Ry
     estimated scf accuracy    <          8.3E-11 Ry

     The total energy is the sum of the following terms:

     one-electron contribution =    -307.14704944 Ry
     hartree contribution      =     169.26960326 Ry
     xc contribution           =     -97.77165477 Ry
     ewald contribution        =    -372.74252095 Ry

     convergence has been achieved in   3 iterations

     Forces acting on atoms (cartesian axes, Ry/au):

     atom    1 type  1   force =     0.00000000   -0.00005857    0.00000072
     atom    2 type  1   force =     0.00000000    0.00001362    0.00000001
     atom    3 type  1   force =     0.00000000    0.00000560   -0.00000012
     atom    4 type  1   force =     0.00000000    0.00001373   -0.00000006
     atom    5 type  2   force =     0.00000000    0.00001817   -0.00000027
     atom    6 type  2   force =     0.00000000   -0.00002424   -0.00000025
     atom    7 type  2   force =     0.00000000    0.00001580    0.00000018
     atom    8 type  2   force =     0.00000000    0.00001589   -0.00000021

     Total force =     0.000072     Total SCF correction =     0.000014
     SCF correction compared to forces is large: reduce conv_thr to get better values


     Computing stress (Cartesian axis) and pressure

          total   stress  (Ry/bohr**3)                   (kbar)     P=  -92.66
  -0.00066118   0.00000000   0.00000000        -97.26      0.00      0.00
   0.00000000  -0.00056646   0.00000000          0.00    -83.33      0.00
   0.00000000   0.00000000  -0.00066194          0.00      0.00    -97.37


     bfgs converged in   7 scf cycles and   6 bfgs steps
     (criteria: energy <  1.0E-05 Ry, force <  1.0E-04 Ry/Bohr)

     End of BFGS Geometry Optimization

     Final energy   =    -608.3916219037 Ry
Begin final coordinates

ATOMIC_POSITIONS (alat)
Mg       0.000000000   0.002139773  -0.000019702
Mg       0.000000000   0.497741986   0.500020427
Mg       0.500000000   0.002339697   0.500020821
Mg       0.500000000   0.497742116  -0.000021475
O        0.500000000   0.002298183  -0.000021234
O        0.000000000   0.497710753  -0.000021307
O        0.000000000   0.002297789   0.500021278
O        0.500000000   0.497729704   0.500021192
End final coordinates



     Writing output data file diamond.8.11945354850.70.4.save
 
     init_run     :      0.55s CPU      0.57s WALL (       1 calls)
     electrons    :     52.35s CPU     53.79s WALL (       7 calls)
     update_pot   :      0.71s CPU      0.71s WALL (       6 calls)
     forces       :      1.18s CPU      1.18s WALL (       7 calls)
     stress       :      2.68s CPU      2.70s WALL (       7 calls)

     Called by init_run:
     wfcinit      :      0.42s CPU      0.44s WALL (       1 calls)
     potinit      :      0.05s CPU      0.05s WALL (       1 calls)

     Called by electrons:
     c_bands      :     45.76s CPU     47.04s WALL (      40 calls)
     sum_band     :      6.34s CPU      6.48s WALL (      40 calls)
     v_of_rho     :      0.21s CPU      0.21s WALL (      41 calls)
     mix_rho      :      0.02s CPU      0.03s WALL (      40 calls)

     Called by c_bands:
     init_us_2    :      0.68s CPU      0.72s WALL (    2850 calls)
     cegterg      :     42.67s CPU     43.85s WALL (    1200 calls)

     Called by sum_band:

     Called by *egterg:
     h_psi        :     31.18s CPU     31.90s WALL (    3975 calls)
     g_psi        :      0.24s CPU      0.25s WALL (    2745 calls)
     cdiaghg      :      6.05s CPU      6.05s WALL (    3585 calls)

     Called by h_psi:
     h_psi:pot    :     31.05s CPU     31.73s WALL (    3975 calls)
     h_psi:calbec :      1.76s CPU      1.78s WALL (    3975 calls)
     vloc_psi     :     27.80s CPU     28.45s WALL (    3975 calls)
     add_vuspsi   :      1.48s CPU      1.49s WALL (    3975 calls)

     General routines
     calbec       :      2.38s CPU      2.39s WALL (    5025 calls)
     fft          :      0.20s CPU      0.21s WALL (     637 calls)
     fftw         :     31.29s CPU     31.05s WALL (  243178 calls)
     davcio       :      0.00s CPU      0.00s WALL (      30 calls)
 
     Parallel routines
     fft_scatter  :      8.20s CPU      7.99s WALL (  243815 calls)
 
     PWSCF        :    57.97s CPU        59.63s WALL

 
   This run was terminated on:  15: 4:24  22Apr2018            

=------------------------------------------------------------------------------=
   JOB DONE.
=------------------------------------------------------------------------------=
