
     Program PWSCF v.6.1 (svn rev. 13369) starts on 22Apr2018 at 16:11:15 

     This program is part of the open-source Quantum ESPRESSO suite
     for quantum simulation of materials; please cite
         "P. Giannozzi et al., J. Phys.:Condens. Matter 21 395502 (2009);
          URL http://www.quantum-espresso.org", 
     in publications or presentations arising from this work. More details at
     http://www.quantum-espresso.org/quote

     Parallel version (MPI), running on     8 processors
     R & G space division:  proc/nbgrp/npool/nimage =       8
     Waiting for input...
     Reading input from standard input
Warning: card       &CELL ignored
Warning: card       CELL_DYNAMICS = 'BFGS' ignored
Warning: card       PRESS = 0.0D0 ignored
Warning: card       PRESS_CONV_THR = 0.01D0 ignored
Warning: card       / ignored

     Current dimensions of program PWSCF are:
     Max number of different atomic species (ntypx) = 10
     Max number of k-points (npk) =  40000
     Max angular momentum in pseudopotentials (lmaxx) =  3

     Subspace diagonalization in iterative solution of the eigenvalue problem:
     a serial algorithm will be used

 
     Parallelization info
     --------------------
     sticks:   dense  smooth     PW     G-vecs:    dense   smooth      PW
     Min         181     181     52                 5157     5157     820
     Max         182     182     53                 5159     5159     823
     Sum        1449    1449    421                41267    41267    6571
 


     bravais-lattice index     =            0
     lattice parameter (alat)  =       8.0448  a.u.
     unit-cell volume          =     520.6402 (a.u.)^3
     number of atoms/cell      =            8
     number of atomic types    =            2
     number of electrons       =        64.00
     number of Kohn-Sham states=           32
     kinetic-energy cutoff     =      70.0000  Ry
     charge density cutoff     =     280.0000  Ry
     convergence threshold     =      1.0E-08
     mixing beta               =       0.7000
     number of iterations used =            8  plain     mixing
     Exchange-correlation      = PBE ( 1  4  3  4 0 0)
     nstep                     =           50


     celldm(1)=   8.044750  celldm(2)=   0.000000  celldm(3)=   0.000000
     celldm(4)=   0.000000  celldm(5)=   0.000000  celldm(6)=   0.000000

     crystal axes: (cart. coord. in units of alat)
               a(1) = (   1.000714   0.000000   0.000000 )  
               a(2) = (   0.000000   0.999286   0.000000 )  
               a(3) = (   0.000000   0.000000   1.000001 )  

     reciprocal axes: (cart. coord. in units 2 pi/alat)
               b(1) = (  0.999287  0.000000  0.000000 )  
               b(2) = (  0.000000  1.000715  0.000000 )  
               b(3) = (  0.000000  0.000000  0.999999 )  


     PseudoPot. # 1 for Mg read from file:
     ../pseudo/Mg.pbe.UPF
     MD5 check sum: 4c04d8c6e0476e83eaecaf72fa8acc4d
     Pseudo is Norm-conserving, Zval = 10.0
     Generated using ONCVPSP code by D. R. Hamann
     Using radial grid of 1510 points,  4 beta functions with: 
                l(1) =   0
                l(2) =   0
                l(3) =   1
                l(4) =   1

     PseudoPot. # 2 for O  read from file:
     ../pseudo/O.pbe.UPF
     MD5 check sum: 3e3f909f7470e8921608ab6b1f57bbae
     Pseudo is Norm-conserving + core correction, Zval =  6.0
     Generated using ONCVPSP code by D. R. Hamann
     Using radial grid of  936 points,  5 beta functions with: 
                l(1) =   0
                l(2) =   0
                l(3) =   1
                l(4) =   1
                l(5) =   2

     atomic species   valence    mass     pseudopotential
        Mg            10.00    24.30500     Mg( 1.00)
        O              6.00    15.99940     O ( 1.00)

      2 Sym. Ops. (no inversion) found



   Cartesian axes

     site n.     atom                  positions (alat units)
         1           Mg  tau(   1) = (   0.0000000   0.0000000   0.0000000  )
         2           Mg  tau(   2) = (   0.0000000   0.5000000   0.5000000  )
         3           Mg  tau(   3) = (   0.5000000   0.0000000   0.5000000  )
         4           Mg  tau(   4) = (   0.5000000   0.5000000   0.0000000  )
         5           O   tau(   5) = (   0.5000000   0.0000000   0.0000000  )
         6           O   tau(   6) = (   0.0000000   0.5000000   0.0000000  )
         7           O   tau(   7) = (   0.0000000   0.0000000   0.5000000  )
         8           O   tau(   8) = (   0.5000000   0.5000000   0.5000000  )

     number of k points=    30
                       cart. coord. in units 2pi/alat
        k(    1) = (   0.0000000   0.0000000   0.0000000), wk =   0.0312500
        k(    2) = (   0.0000000   0.0000000   0.2499999), wk =   0.0625000
        k(    3) = (   0.0000000   0.0000000  -0.4999997), wk =   0.0312500
        k(    4) = (   0.0000000   0.2501786   0.0000000), wk =   0.0625000
        k(    5) = (   0.0000000   0.2501786   0.2499999), wk =   0.1250000
        k(    6) = (   0.0000000   0.2501786  -0.4999997), wk =   0.0625000
        k(    7) = (   0.0000000  -0.5003573   0.0000000), wk =   0.0312500
        k(    8) = (   0.0000000  -0.5003573   0.2499999), wk =   0.0625000
        k(    9) = (   0.0000000  -0.5003573  -0.4999997), wk =   0.0312500
        k(   10) = (   0.2498216   0.0000000   0.0000000), wk =   0.0625000
        k(   11) = (   0.2498216   0.0000000   0.2499999), wk =   0.1250000
        k(   12) = (   0.2498216   0.0000000  -0.4999997), wk =   0.0625000
        k(   13) = (   0.2498216   0.2501786   0.0000000), wk =   0.0625000
        k(   14) = (   0.2498216   0.2501786   0.2499999), wk =   0.1250000
        k(   15) = (   0.2498216   0.2501786  -0.4999997), wk =   0.0625000
        k(   16) = (   0.2498216  -0.5003573   0.0000000), wk =   0.0625000
        k(   17) = (   0.2498216  -0.5003573   0.2499999), wk =   0.1250000
        k(   18) = (   0.2498216  -0.5003573  -0.4999997), wk =   0.0625000
        k(   19) = (  -0.4996433   0.0000000   0.0000000), wk =   0.0312500
        k(   20) = (  -0.4996433   0.0000000   0.2499999), wk =   0.0625000
        k(   21) = (  -0.4996433   0.0000000  -0.4999997), wk =   0.0312500
        k(   22) = (  -0.4996433   0.2501786   0.0000000), wk =   0.0625000
        k(   23) = (  -0.4996433   0.2501786   0.2499999), wk =   0.1250000
        k(   24) = (  -0.4996433   0.2501786  -0.4999997), wk =   0.0625000
        k(   25) = (  -0.4996433  -0.5003573   0.0000000), wk =   0.0312500
        k(   26) = (  -0.4996433  -0.5003573   0.2499999), wk =   0.0625000
        k(   27) = (  -0.4996433  -0.5003573  -0.4999997), wk =   0.0312500
        k(   28) = (  -0.2498216   0.2501786   0.0000000), wk =   0.0625000
        k(   29) = (  -0.2498216   0.2501786  -0.2499999), wk =   0.1250000
        k(   30) = (  -0.2498216   0.2501786   0.4999997), wk =   0.0625000

     Dense  grid:    41267 G-vectors     FFT dimensions: (  45,  45,  45)

     Estimated max dynamical RAM per process >      15.33MB

     Estimated total allocated dynamical RAM >     122.67MB

     Check: negative/imaginary core charge=   -0.000007    0.000000

     Initial potential from superposition of free atoms

     starting charge   63.99678, renormalised to   64.00000
     Starting wfc are   36 randomized atomic wfcs

     total cpu time spent up to now is        0.7 secs

     per-process dynamical memory:    51.0 Mb

     Self-consistent Calculation

     iteration #  1     ecut=    70.00 Ry     beta=0.70
     Davidson diagonalization with overlap
     ethr =  1.00E-02,  avg # of iterations =  2.0

     total cpu time spent up to now is        1.9 secs

     total energy              =    -607.71906058 Ry
     Harris-Foulkes estimate   =    -608.84378514 Ry
     estimated scf accuracy    <       1.56268031 Ry

     iteration #  2     ecut=    70.00 Ry     beta=0.70
     Davidson diagonalization with overlap
     ethr =  2.44E-03,  avg # of iterations =  2.9

     total cpu time spent up to now is        3.3 secs

     total energy              =    -608.10556201 Ry
     Harris-Foulkes estimate   =    -608.80436785 Ry
     estimated scf accuracy    <       1.45105351 Ry

     iteration #  3     ecut=    70.00 Ry     beta=0.70
     Davidson diagonalization with overlap
     ethr =  2.27E-03,  avg # of iterations =  2.0

     total cpu time spent up to now is        4.6 secs

     total energy              =    -608.39145163 Ry
     Harris-Foulkes estimate   =    -608.39210336 Ry
     estimated scf accuracy    <       0.00674146 Ry

     iteration #  4     ecut=    70.00 Ry     beta=0.70
     Davidson diagonalization with overlap
     ethr =  1.05E-05,  avg # of iterations =  2.0

     total cpu time spent up to now is        5.8 secs

     total energy              =    -608.39292171 Ry
     Harris-Foulkes estimate   =    -608.39296614 Ry
     estimated scf accuracy    <       0.00011101 Ry

     iteration #  5     ecut=    70.00 Ry     beta=0.70
     Davidson diagonalization with overlap
     ethr =  1.73E-07,  avg # of iterations =  1.4

     total cpu time spent up to now is        6.8 secs

     total energy              =    -608.39292901 Ry
     Harris-Foulkes estimate   =    -608.39292755 Ry
     estimated scf accuracy    <       0.00001046 Ry

     iteration #  6     ecut=    70.00 Ry     beta=0.70
     Davidson diagonalization with overlap
     ethr =  1.64E-08,  avg # of iterations =  2.0

     total cpu time spent up to now is        8.2 secs

     total energy              =    -608.39293067 Ry
     Harris-Foulkes estimate   =    -608.39293109 Ry
     estimated scf accuracy    <       0.00000108 Ry

     iteration #  7     ecut=    70.00 Ry     beta=0.70
     Davidson diagonalization with overlap
     ethr =  1.69E-09,  avg # of iterations =  2.0

     total cpu time spent up to now is        9.4 secs

     total energy              =    -608.39293066 Ry
     Harris-Foulkes estimate   =    -608.39293076 Ry
     estimated scf accuracy    <       0.00000028 Ry

     iteration #  8     ecut=    70.00 Ry     beta=0.70
     Davidson diagonalization with overlap
     ethr =  4.32E-10,  avg # of iterations =  2.0

     total cpu time spent up to now is       10.6 secs

     total energy              =    -608.39293066 Ry
     Harris-Foulkes estimate   =    -608.39293068 Ry
     estimated scf accuracy    <       0.00000005 Ry

     iteration #  9     ecut=    70.00 Ry     beta=0.70
     Davidson diagonalization with overlap
     ethr =  7.17E-11,  avg # of iterations =  2.0

     total cpu time spent up to now is       12.1 secs

     End of self-consistent calculation

          k = 0.0000 0.0000 0.0000 (  5137 PWs)   bands (ev):

   -64.8342 -64.8247 -64.8247 -64.8239 -31.6310 -31.6307 -31.6303 -31.5936
   -31.5934 -31.5933 -31.5929 -31.5928 -31.5927 -31.5634 -31.5630 -31.5626
    -9.3647  -7.9156  -7.9138  -7.9119   3.7557   3.7581   3.7604   6.3749
     6.3756   6.3794   6.3807   6.3845   6.3851   7.6708   7.6725   7.6741

          k = 0.0000 0.0000 0.2500 (  5161 PWs)   bands (ev):

   -64.8327 -64.8259 -64.8247 -64.8241 -31.6245 -31.6237 -31.6201 -31.5985
   -31.5976 -31.5938 -31.5935 -31.5891 -31.5885 -31.5779 -31.5716 -31.5708
    -9.1563  -8.1286  -7.8867  -7.8840   4.0462   4.0506   4.0954   5.8570
     5.8591   6.1671   6.1741   6.5385   6.5468   6.6589   7.4480   7.4524

          k = 0.0000 0.0000-0.5000 (  5110 PWs)   bands (ev):

   -64.8295 -64.8291 -64.8247 -64.8241 -31.6095 -31.6093 -31.6088 -31.6085
   -31.6017 -31.6016 -31.5905 -31.5904 -31.5806 -31.5804 -31.5800 -31.5797
    -8.6460  -8.6459  -7.8566  -7.8565   4.8461   4.8462   4.8496   4.8497
     5.1226   5.1229   5.9733   5.9737   6.9650   6.9650   6.9716   6.9716

          k = 0.0000 0.2502 0.0000 (  5161 PWs)   bands (ev):

   -64.8327 -64.8259 -64.8247 -64.8241 -31.6244 -31.6241 -31.6198 -31.5983
   -31.5979 -31.5934 -31.5932 -31.5892 -31.5889 -31.5775 -31.5716 -31.5712
    -9.1559  -8.1269  -7.8867  -7.8854   4.0467   4.0488   4.0966   5.8609
     5.8620   6.1661   6.1696   6.5382   6.5423   6.6574   7.4492   7.4514

          k = 0.0000 0.2502 0.2500 (  5167 PWs)   bands (ev):

   -64.8315 -64.8259 -64.8255 -64.8245 -31.6211 -31.6204 -31.6196 -31.6067
   -31.5946 -31.5945 -31.5925 -31.5873 -31.5867 -31.5864 -31.5755 -31.5679
    -8.9658  -8.0639  -8.0626  -7.8912   4.1607   4.1615   4.3271   5.0713
     5.8449   6.0546   6.0580   6.4813   6.4825   6.5858   7.1749   7.5052

          k = 0.0000 0.2502-0.5000 (  5146 PWs)   bands (ev):

   -64.8288 -64.8284 -64.8254 -64.8248 -31.6168 -31.6166 -31.6096 -31.6096
   -31.6068 -31.6066 -31.5851 -31.5849 -31.5831 -31.5830 -31.5747 -31.5746
    -8.5095  -8.5094  -7.9468  -7.9466   4.4173   4.4174   4.7494   4.7496
     5.0951   5.0951   6.5493   6.5496   6.5780   6.5781   7.0928   7.0928

          k = 0.0000-0.5004 0.0000 (  5110 PWs)   bands (ev):

   -64.8295 -64.8291 -64.8247 -64.8241 -31.6095 -31.6092 -31.6091 -31.6088
   -31.6014 -31.6012 -31.5902 -31.5901 -31.5807 -31.5805 -31.5804 -31.5801
    -8.6467  -8.6428  -7.8571  -7.8570   4.8450   4.8468   4.8511   4.8528
     5.1209   5.1233   5.9697   5.9700   6.9635   6.9668   6.9672   6.9705

          k = 0.0000-0.5004 0.2500 (  5146 PWs)   bands (ev):

   -64.8288 -64.8284 -64.8254 -64.8248 -31.6169 -31.6167 -31.6096 -31.6094
   -31.6068 -31.6065 -31.5852 -31.5849 -31.5830 -31.5829 -31.5749 -31.5747
    -8.5103  -8.5069  -7.9475  -7.9468   4.4161   4.4185   4.7476   4.7503
     5.0936   5.0995   6.5462   6.5484   6.5740   6.5783   7.0930   7.0942

          k = 0.0000-0.5004-0.5000 (  5216 PWs)   bands (ev):

   -64.8271 -64.8271 -64.8271 -64.8261 -31.6191 -31.6189 -31.6187 -31.6187
   -31.5976 -31.5974 -31.5974 -31.5971 -31.5763 -31.5762 -31.5760 -31.5760
    -8.2060  -8.2059  -8.2039  -8.2038   4.2900   4.2901   4.2910   4.2911
     5.7647   5.7647   5.7700   5.7700   7.0633   7.0635   7.0651   7.0653

          k = 0.2498 0.0000 0.0000 (  5161 PWs)   bands (ev):

   -64.8328 -64.8259 -64.8247 -64.8241 -31.6241 -31.6238 -31.6205 -31.5982
   -31.5978 -31.5941 -31.5940 -31.5886 -31.5883 -31.5783 -31.5711 -31.5708
    -9.1567  -8.1304  -7.8853  -7.8839   4.0479   4.0501   4.0943   5.8542
     5.8552   6.1717   6.1752   6.5430   6.5472   6.6603   7.4490   7.4512

          k = 0.2498 0.0000 0.2500 (  5167 PWs)   bands (ev):

   -64.8315 -64.8259 -64.8255 -64.8244 -31.6214 -31.6211 -31.6189 -31.6071
   -31.5939 -31.5934 -31.5928 -31.5879 -31.5870 -31.5866 -31.5747 -31.5684
    -8.9665  -8.0653  -8.0640  -7.8894   4.1610   4.1616   4.3302   5.0712
     5.8491   6.0526   6.0563   6.4867   6.4879   6.5811   7.1717   7.5058

          k = 0.2498 0.0000-0.5000 (  5146 PWs)   bands (ev):

   -64.8288 -64.8284 -64.8254 -64.8248 -31.6171 -31.6170 -31.6097 -31.6097
   -31.6060 -31.6058 -31.5842 -31.5839 -31.5834 -31.5834 -31.5756 -31.5754
    -8.5099  -8.5098  -7.9473  -7.9472   4.4194   4.4194   4.7528   4.7530
     5.0975   5.0976   6.5461   6.5464   6.5735   6.5736   7.0953   7.0953

          k = 0.2498 0.2502 0.0000 (  5167 PWs)   bands (ev):

   -64.8315 -64.8259 -64.8255 -64.8245 -31.6213 -31.6205 -31.6192 -31.6069
   -31.5943 -31.5940 -31.5927 -31.5876 -31.5870 -31.5864 -31.5751 -31.5681
    -8.9661  -8.0653  -8.0626  -7.8903   4.1606   4.1620   4.3286   5.0713
     5.8470   6.0519   6.0587   6.4834   6.4858   6.5834   7.1733   7.5055

          k = 0.2498 0.2502 0.2500 (  5158 PWs)   bands (ev):

   -64.8305 -64.8259 -64.8259 -64.8251 -31.6250 -31.6248 -31.6247 -31.6057
   -31.5936 -31.5935 -31.5932 -31.5841 -31.5837 -31.5834 -31.5716 -31.5706
    -8.7963  -8.0317  -8.0308  -8.0298   4.0000   4.0003   4.0007   5.0891
     5.8446   5.8456   5.8467   6.7032   6.7054   6.7074   7.3550   7.3555

          k = 0.2498 0.2502-0.5000 (  5132 PWs)   bands (ev):

   -64.8283 -64.8279 -64.8259 -64.8253 -31.6273 -31.6272 -31.6207 -31.6207
   -31.5927 -31.5925 -31.5802 -31.5801 -31.5778 -31.5777 -31.5772 -31.5771
    -8.3992  -8.3991  -7.9972  -7.9971   3.8214   3.8215   4.1978   4.1980
     5.8303   5.8303   6.7401   6.7404   6.8687   6.8688   7.0159   7.0160

          k = 0.2498-0.5004 0.0000 (  5150 PWs)   bands (ev):

   -64.8288 -64.8284 -64.8254 -64.8248 -31.6173 -31.6171 -31.6096 -31.6095
   -31.6065 -31.6063 -31.5846 -31.5843 -31.5833 -31.5832 -31.5754 -31.5753
    -8.5105  -8.5071  -7.9478  -7.9471   4.4172   4.4196   4.7493   4.7520
     5.0947   5.1006   6.5447   6.5469   6.5717   6.5760   7.0943   7.0954

          k = 0.2498-0.5004 0.2500 (  5130 PWs)   bands (ev):

   -64.8283 -64.8279 -64.8259 -64.8253 -31.6273 -31.6271 -31.6207 -31.6206
   -31.5928 -31.5925 -31.5799 -31.5799 -31.5779 -31.5777 -31.5772 -31.5772
    -8.3999  -8.3970  -7.9975  -7.9974   3.8213   3.8214   4.1954   4.1982
     5.8305   5.8305   6.7396   6.7398   6.8692   6.8704   7.0134   7.0161

          k = 0.2498-0.5004-0.5000 (  5140 PWs)   bands (ev):

   -64.8271 -64.8271 -64.8271 -64.8261 -31.6313 -31.6311 -31.6310 -31.6310
   -31.5830 -31.5828 -31.5828 -31.5826 -31.5750 -31.5748 -31.5747 -31.5747
    -8.1684  -8.1683  -8.1669  -8.1668   3.6387   3.6387   3.6401   3.6402
     6.5219   6.5220   6.5250   6.5250   7.0647   7.0648   7.0659   7.0661

          k =-0.4996 0.0000 0.0000 (  5110 PWs)   bands (ev):

   -64.8296 -64.8291 -64.8247 -64.8241 -31.6093 -31.6089 -31.6089 -31.6086
   -31.6021 -31.6019 -31.5907 -31.5907 -31.5802 -31.5800 -31.5799 -31.5796
    -8.6492  -8.6453  -7.8561  -7.8560   4.8430   4.8447   4.8490   4.8508
     5.1222   5.1246   5.9769   5.9773   6.9661   6.9694   6.9698   6.9731

          k =-0.4996 0.0000 0.2500 (  5146 PWs)   bands (ev):

   -64.8288 -64.8284 -64.8254 -64.8248 -31.6172 -31.6170 -31.6099 -31.6098
   -31.6061 -31.6058 -31.5841 -31.5838 -31.5838 -31.5837 -31.5750 -31.5749
    -8.5124  -8.5090  -7.9471  -7.9464   4.4182   4.4206   4.7521   4.7548
     5.0932   5.0991   6.5472   6.5494   6.5733   6.5776   7.0940   7.0951

          k =-0.4996 0.0000-0.5000 (  5216 PWs)   bands (ev):

   -64.8271 -64.8271 -64.8271 -64.8261 -31.6192 -31.6190 -31.6189 -31.6189
   -31.5968 -31.5966 -31.5966 -31.5963 -31.5769 -31.5767 -31.5766 -31.5766
    -8.2070  -8.2069  -8.2049  -8.2048   4.2954   4.2955   4.2964   4.2965
     5.7642   5.7642   5.7694   5.7695   7.0612   7.0613   7.0630   7.0631

          k =-0.4996 0.2502 0.0000 (  5146 PWs)   bands (ev):

   -64.8288 -64.8284 -64.8254 -64.8248 -31.6170 -31.6168 -31.6099 -31.6097
   -31.6065 -31.6062 -31.5844 -31.5842 -31.5837 -31.5836 -31.5747 -31.5746
    -8.5122  -8.5087  -7.9469  -7.9462   4.4172   4.4196   4.7504   4.7531
     5.0920   5.0978   6.5488   6.5510   6.5755   6.5798   7.0927   7.0938

          k =-0.4996 0.2502 0.2500 (  5132 PWs)   bands (ev):

   -64.8283 -64.8279 -64.8259 -64.8253 -31.6272 -31.6271 -31.6208 -31.6207
   -31.5923 -31.5921 -31.5807 -31.5807 -31.5777 -31.5776 -31.5773 -31.5771
    -8.4013  -8.3984  -7.9970  -7.9969   3.8217   3.8217   4.1976   4.2004
     5.8303   5.8304   6.7406   6.7409   6.8671   6.8683   7.0158   7.0184

          k =-0.4996 0.2502-0.5000 (  5140 PWs)   bands (ev):

   -64.8271 -64.8271 -64.8271 -64.8261 -31.6313 -31.6311 -31.6310 -31.6310
   -31.5825 -31.5823 -31.5823 -31.5821 -31.5755 -31.5754 -31.5752 -31.5752
    -8.1689  -8.1688  -8.1674  -8.1673   3.6405   3.6405   3.6419   3.6420
     6.5236   6.5236   6.5267   6.5267   7.0626   7.0627   7.0638   7.0640

          k =-0.4996-0.5004 0.0000 (  5216 PWs)   bands (ev):

   -64.8271 -64.8271 -64.8271 -64.8261 -31.6192 -31.6190 -31.6188 -31.6188
   -31.5972 -31.5970 -31.5970 -31.5967 -31.5766 -31.5764 -31.5763 -31.5763
    -8.2076  -8.2054  -8.2053  -8.2032   4.2922   4.2932   4.2933   4.2943
     5.7618   5.7669   5.7673   5.7723   7.0614   7.0632   7.0632   7.0650

          k =-0.4996-0.5004 0.2500 (  5140 PWs)   bands (ev):

   -64.8271 -64.8271 -64.8271 -64.8261 -31.6313 -31.6311 -31.6310 -31.6310
   -31.5828 -31.5825 -31.5825 -31.5824 -31.5753 -31.5751 -31.5749 -31.5749
    -8.1694  -8.1679  -8.1678  -8.1663   3.6389   3.6403   3.6403   3.6417
     6.5213   6.5242   6.5244   6.5274   7.0631   7.0643   7.0644   7.0656

          k =-0.4996-0.5004-0.5000 (  5152 PWs)   bands (ev):

   -64.8271 -64.8271 -64.8271 -64.8260 -31.6397 -31.6395 -31.6395 -31.6395
   -31.5757 -31.5756 -31.5754 -31.5754 -31.5743 -31.5741 -31.5741 -31.5739
    -8.1299  -8.1298  -8.1297  -8.1297   3.2173   3.2174   3.2175   3.2175
     7.0637   7.0638   7.0639   7.0640   7.0664   7.0664   7.0665   7.0667

          k =-0.2498 0.2502 0.0000 (  5167 PWs)   bands (ev):

   -64.8315 -64.8259 -64.8255 -64.8245 -31.6213 -31.6205 -31.6192 -31.6069
   -31.5943 -31.5940 -31.5927 -31.5876 -31.5870 -31.5864 -31.5751 -31.5681
    -8.9661  -8.0653  -8.0626  -7.8903   4.1606   4.1620   4.3286   5.0713
     5.8470   6.0519   6.0587   6.4834   6.4858   6.5834   7.1733   7.5055

          k =-0.2498 0.2502-0.2500 (  5158 PWs)   bands (ev):

   -64.8305 -64.8259 -64.8259 -64.8251 -31.6250 -31.6248 -31.6247 -31.6057
   -31.5936 -31.5935 -31.5932 -31.5841 -31.5837 -31.5834 -31.5716 -31.5706
    -8.7963  -8.0317  -8.0308  -8.0298   4.0000   4.0003   4.0007   5.0891
     5.8446   5.8456   5.8467   6.7032   6.7054   6.7074   7.3550   7.3555

          k =-0.2498 0.2502 0.5000 (  5132 PWs)   bands (ev):

   -64.8283 -64.8279 -64.8259 -64.8253 -31.6273 -31.6272 -31.6207 -31.6207
   -31.5927 -31.5925 -31.5802 -31.5801 -31.5778 -31.5777 -31.5772 -31.5771
    -8.3992  -8.3991  -7.9972  -7.9971   3.8214   3.8215   4.1978   4.1980
     5.8303   5.8303   6.7401   6.7404   6.8687   6.8688   7.0159   7.0160

     highest occupied level (ev):     7.6741

!    total energy              =    -608.39293067 Ry
     Harris-Foulkes estimate   =    -608.39293067 Ry
     estimated scf accuracy    <          1.6E-09 Ry

     The total energy is the sum of the following terms:

     one-electron contribution =    -303.55954011 Ry
     hartree contribution      =     168.06906875 Ry
     xc contribution           =     -97.84645362 Ry
     ewald contribution        =    -375.05600569 Ry

     convergence has been achieved in   9 iterations

     Forces acting on atoms (cartesian axes, Ry/au):

     atom    1 type  1   force =    -0.00038711    0.00039318    0.00000000
     atom    2 type  1   force =    -0.00038827   -0.00038597    0.00000000
     atom    3 type  1   force =     0.00037949    0.00039379    0.00000000
     atom    4 type  1   force =     0.00037999   -0.00038569    0.00000000
     atom    5 type  2   force =     0.00044917    0.00044796    0.00000000
     atom    6 type  2   force =    -0.00044211   -0.00045452    0.00000000
     atom    7 type  2   force =    -0.00044209    0.00044755    0.00000000
     atom    8 type  2   force =     0.00045094   -0.00045632    0.00000000

     Total force =     0.001676     Total SCF correction =     0.000022


     Computing stress (Cartesian axis) and pressure

          total   stress  (Ry/bohr**3)                   (kbar)     P=  -67.88
  -0.00047013   0.00000000   0.00000000        -69.16      0.00      0.00
   0.00000000  -0.00045262   0.00000000          0.00    -66.58      0.00
   0.00000000   0.00000000  -0.00046162          0.00      0.00    -67.91


     BFGS Geometry Optimization

     number of scf cycles    =   1
     number of bfgs steps    =   0

     energy   new            =    -608.3929306671 Ry

     new trust radius        =       0.0006415376 bohr
     new conv_thr            =       0.0000000100 Ry


ATOMIC_POSITIONS (alat)
Mg      -0.000048120   0.000048875   0.000000000
Mg      -0.000048264   0.499952023   0.500000000
Mg       0.500047172   0.000048950   0.500000000
Mg       0.500047235   0.499952057   0.000000000
O        0.500055834   0.000055683   0.000000000
O       -0.000054957   0.499943501   0.000000000
O       -0.000054954   0.000055633   0.500000000
O        0.500056054   0.499943278   0.500000000



     Writing output data file diamond.1.000714.70.4.save
     NEW-OLD atomic charge density approx. for the potential

     Check: negative/imaginary core charge=   -0.000007    0.000000

     total cpu time spent up to now is       12.8 secs

     per-process dynamical memory:    55.6 Mb

     Self-consistent Calculation

     iteration #  1     ecut=    70.00 Ry     beta=0.70
     Davidson diagonalization with overlap
     ethr =  1.00E-06,  avg # of iterations =  2.0

     Threshold (ethr) on eigenvalues was too large:
     Diagonalizing with lowered threshold

     Davidson diagonalization with overlap
     ethr =  6.89E-10,  avg # of iterations =  2.4

     total cpu time spent up to now is       15.6 secs

     total energy              =    -608.39293287 Ry
     Harris-Foulkes estimate   =    -608.39293325 Ry
     estimated scf accuracy    <       0.00000052 Ry

     iteration #  2     ecut=    70.00 Ry     beta=0.70
     Davidson diagonalization with overlap
     ethr =  8.18E-10,  avg # of iterations =  2.3

     total cpu time spent up to now is       16.8 secs

     total energy              =    -608.39293303 Ry
     Harris-Foulkes estimate   =    -608.39293308 Ry
     estimated scf accuracy    <       0.00000009 Ry

     iteration #  3     ecut=    70.00 Ry     beta=0.70
     Davidson diagonalization with overlap
     ethr =  1.47E-10,  avg # of iterations =  2.0

     total cpu time spent up to now is       18.0 secs

     End of self-consistent calculation

          k = 0.0000 0.0000 0.0000 (  5137 PWs)   bands (ev):

   -64.8344 -64.8249 -64.8249 -64.8241 -31.6312 -31.6308 -31.6305 -31.5938
   -31.5936 -31.5935 -31.5931 -31.5930 -31.5929 -31.5636 -31.5632 -31.5628
    -9.3646  -7.9156  -7.9137  -7.9118   3.7558   3.7581   3.7605   6.3750
     6.3756   6.3794   6.3807   6.3845   6.3852   7.6709   7.6725   7.6742

          k = 0.0000 0.0000 0.2500 (  5161 PWs)   bands (ev):

   -64.8330 -64.8261 -64.8249 -64.8243 -31.6246 -31.6239 -31.6203 -31.5987
   -31.5978 -31.5940 -31.5937 -31.5892 -31.5887 -31.5781 -31.5717 -31.5710
    -9.1562  -8.1286  -7.8866  -7.8839   4.0462   4.0506   4.0955   5.8571
     5.8592   6.1672   6.1742   6.5386   6.5469   6.6589   7.4481   7.4525

          k = 0.0000 0.0000-0.5000 (  5110 PWs)   bands (ev):

   -64.8298 -64.8293 -64.8249 -64.8243 -31.6097 -31.6095 -31.6089 -31.6087
   -31.6018 -31.6018 -31.5906 -31.5906 -31.5808 -31.5806 -31.5802 -31.5799
    -8.6459  -8.6459  -7.8565  -7.8564   4.8462   4.8462   4.8497   4.8497
     5.1227   5.1230   5.9734   5.9737   6.9651   6.9651   6.9717   6.9717

          k = 0.0000 0.2502 0.0000 (  5161 PWs)   bands (ev):

   -64.8330 -64.8261 -64.8249 -64.8243 -31.6246 -31.6243 -31.6200 -31.5985
   -31.5981 -31.5936 -31.5934 -31.5894 -31.5891 -31.5777 -31.5718 -31.5714
    -9.1558  -8.1268  -7.8866  -7.8853   4.0467   4.0489   4.0967   5.8610
     5.8620   6.1661   6.1696   6.5382   6.5424   6.6575   7.4493   7.4515

          k = 0.0000 0.2502 0.2500 (  5167 PWs)   bands (ev):

   -64.8318 -64.8261 -64.8257 -64.8247 -31.6213 -31.6206 -31.6198 -31.6069
   -31.5948 -31.5947 -31.5927 -31.5875 -31.5869 -31.5866 -31.5757 -31.5681
    -8.9657  -8.0638  -8.0625  -7.8911   4.1607   4.1616   4.3271   5.0714
     5.8450   6.0546   6.0580   6.4813   6.4826   6.5858   7.1749   7.5053

          k = 0.0000 0.2502-0.5000 (  5146 PWs)   bands (ev):

   -64.8290 -64.8286 -64.8256 -64.8250 -31.6169 -31.6168 -31.6098 -31.6098
   -31.6070 -31.6068 -31.5853 -31.5851 -31.5832 -31.5832 -31.5749 -31.5747
    -8.5094  -8.5093  -7.9467  -7.9466   4.4174   4.4175   4.7494   4.7497
     5.0952   5.0952   6.5494   6.5496   6.5781   6.5781   7.0928   7.0929

          k = 0.0000-0.5004 0.0000 (  5110 PWs)   bands (ev):

   -64.8297 -64.8293 -64.8249 -64.8243 -31.6097 -31.6094 -31.6093 -31.6090
   -31.6015 -31.6014 -31.5903 -31.5903 -31.5809 -31.5807 -31.5806 -31.5803
    -8.6460  -8.6433  -7.8570  -7.8569   4.8460   4.8477   4.8502   4.8520
     5.1213   5.1230   5.9697   5.9701   6.9641   6.9667   6.9674   6.9700

          k = 0.0000-0.5004 0.2500 (  5146 PWs)   bands (ev):

   -64.8290 -64.8286 -64.8256 -64.8250 -31.6171 -31.6169 -31.6097 -31.6096
   -31.6070 -31.6067 -31.5854 -31.5851 -31.5831 -31.5831 -31.5751 -31.5749
    -8.5097  -8.5073  -7.9473  -7.9468   4.4165   4.4182   4.7481   4.7500
     5.0945   5.0986   6.5467   6.5482   6.5747   6.5777   7.0933   7.0941

          k = 0.0000-0.5004-0.5000 (  5216 PWs)   bands (ev):

   -64.8273 -64.8273 -64.8273 -64.8263 -31.6193 -31.6191 -31.6189 -31.6189
   -31.5978 -31.5976 -31.5975 -31.5973 -31.5765 -31.5763 -31.5762 -31.5762
    -8.2056  -8.2055  -8.2041  -8.2040   4.2902   4.2903   4.2909   4.2910
     5.7656   5.7656   5.7692   5.7693   7.0637   7.0638   7.0649   7.0651

          k = 0.2498 0.0000 0.0000 (  5161 PWs)   bands (ev):

   -64.8330 -64.8262 -64.8249 -64.8243 -31.6243 -31.6239 -31.6206 -31.5984
   -31.5979 -31.5943 -31.5941 -31.5888 -31.5885 -31.5785 -31.5713 -31.5710
    -9.1566  -8.1303  -7.8852  -7.8839   4.0479   4.0501   4.0943   5.8542
     5.8553   6.1717   6.1752   6.5431   6.5472   6.6604   7.4490   7.4513

          k = 0.2498 0.0000 0.2500 (  5167 PWs)   bands (ev):

   -64.8318 -64.8261 -64.8257 -64.8247 -31.6216 -31.6213 -31.6190 -31.6073
   -31.5941 -31.5935 -31.5930 -31.5881 -31.5872 -31.5868 -31.5749 -31.5686
    -8.9664  -8.0652  -8.0639  -7.8893   4.1611   4.1616   4.3303   5.0713
     5.8492   6.0526   6.0564   6.4868   6.4879   6.5811   7.1717   7.5059

          k = 0.2498 0.0000-0.5000 (  5146 PWs)   bands (ev):

   -64.8290 -64.8286 -64.8256 -64.8250 -31.6173 -31.6172 -31.6099 -31.6099
   -31.6062 -31.6060 -31.5844 -31.5841 -31.5836 -31.5836 -31.5758 -31.5756
    -8.5098  -8.5097  -7.9472  -7.9471   4.4194   4.4195   4.7528   4.7531
     5.0976   5.0976   6.5462   6.5464   6.5736   6.5736   7.0953   7.0954

          k = 0.2498 0.2502 0.0000 (  5167 PWs)   bands (ev):

   -64.8318 -64.8261 -64.8257 -64.8247 -31.6215 -31.6206 -31.6194 -31.6071
   -31.5944 -31.5942 -31.5929 -31.5878 -31.5872 -31.5866 -31.5753 -31.5683
    -8.9660  -8.0652  -8.0625  -7.8902   4.1606   4.1620   4.3287   5.0713
     5.8471   6.0519   6.0587   6.4834   6.4858   6.5835   7.1733   7.5056

          k = 0.2498 0.2502 0.2500 (  5158 PWs)   bands (ev):

   -64.8307 -64.8261 -64.8261 -64.8253 -31.6252 -31.6250 -31.6249 -31.6059
   -31.5938 -31.5937 -31.5934 -31.5843 -31.5839 -31.5836 -31.5717 -31.5707
    -8.7962  -8.0317  -8.0307  -8.0298   4.0001   4.0004   4.0007   5.0892
     5.8447   5.8457   5.8467   6.7033   6.7054   6.7075   7.3551   7.3556

          k = 0.2498 0.2502-0.5000 (  5132 PWs)   bands (ev):

   -64.8285 -64.8281 -64.8261 -64.8255 -31.6275 -31.6274 -31.6209 -31.6208
   -31.5929 -31.5927 -31.5803 -31.5803 -31.5780 -31.5779 -31.5774 -31.5772
    -8.3991  -8.3990  -7.9972  -7.9971   3.8215   3.8216   4.1979   4.1980
     5.8303   5.8303   6.7402   6.7405   6.8687   6.8689   7.0160   7.0160

          k = 0.2498-0.5004 0.0000 (  5150 PWs)   bands (ev):

   -64.8290 -64.8286 -64.8256 -64.8250 -31.6174 -31.6173 -31.6098 -31.6097
   -31.6067 -31.6064 -31.5848 -31.5845 -31.5835 -31.5834 -31.5756 -31.5755
    -8.5099  -8.5075  -7.9476  -7.9471   4.4176   4.4192   4.7498   4.7517
     5.0956   5.0997   6.5451   6.5466   6.5724   6.5754   7.0945   7.0953

          k = 0.2498-0.5004 0.2500 (  5130 PWs)   bands (ev):

   -64.8285 -64.8281 -64.8261 -64.8255 -31.6275 -31.6273 -31.6209 -31.6208
   -31.5929 -31.5927 -31.5801 -31.5801 -31.5781 -31.5779 -31.5774 -31.5773
    -8.3994  -8.3974  -7.9974  -7.9973   3.8214   3.8214   4.1959   4.1978
     5.8305   5.8306   6.7396   6.7399   6.8694   6.8703   7.0139   7.0158

          k = 0.2498-0.5004-0.5000 (  5140 PWs)   bands (ev):

   -64.8273 -64.8273 -64.8273 -64.8263 -31.6315 -31.6313 -31.6312 -31.6312
   -31.5832 -31.5830 -31.5830 -31.5828 -31.5752 -31.5750 -31.5749 -31.5748
    -8.1681  -8.1680  -8.1670  -8.1670   3.6389   3.6390   3.6399   3.6400
     6.5225   6.5225   6.5246   6.5246   7.0649   7.0651   7.0658   7.0660

          k =-0.4996 0.0000 0.0000 (  5110 PWs)   bands (ev):

   -64.8298 -64.8293 -64.8249 -64.8243 -31.6094 -31.6091 -31.6090 -31.6088
   -31.6023 -31.6021 -31.5909 -31.5909 -31.5804 -31.5802 -31.5801 -31.5798
    -8.6485  -8.6458  -7.8560  -7.8559   4.8439   4.8457   4.8482   4.8499
     5.1226   5.1243   5.9771   5.9773   6.9667   6.9693   6.9700   6.9726

          k =-0.4996 0.0000 0.2500 (  5146 PWs)   bands (ev):

   -64.8291 -64.8286 -64.8256 -64.8250 -31.6174 -31.6172 -31.6101 -31.6100
   -31.6063 -31.6061 -31.5843 -31.5840 -31.5840 -31.5839 -31.5752 -31.5750
    -8.5118  -8.5094  -7.9470  -7.9465   4.4186   4.4203   4.7526   4.7544
     5.0942   5.0983   6.5476   6.5491   6.5740   6.5770   7.0943   7.0950

          k =-0.4996 0.0000-0.5000 (  5216 PWs)   bands (ev):

   -64.8273 -64.8273 -64.8273 -64.8263 -31.6194 -31.6192 -31.6191 -31.6191
   -31.5970 -31.5968 -31.5968 -31.5965 -31.5771 -31.5769 -31.5767 -31.5767
    -8.2066  -8.2065  -8.2051  -8.2050   4.2956   4.2957   4.2963   4.2964
     5.7650   5.7650   5.7687   5.7687   7.0615   7.0617   7.0628   7.0629

          k =-0.4996 0.2502 0.0000 (  5146 PWs)   bands (ev):

   -64.8291 -64.8286 -64.8256 -64.8250 -31.6172 -31.6170 -31.6100 -31.6099
   -31.6067 -31.6064 -31.5846 -31.5844 -31.5838 -31.5838 -31.5749 -31.5748
    -8.5116  -8.5092  -7.9467  -7.9462   4.4176   4.4193   4.7509   4.7527
     5.0929   5.0970   6.5492   6.5507   6.5762   6.5792   7.0930   7.0937

          k =-0.4996 0.2502 0.2500 (  5132 PWs)   bands (ev):

   -64.8285 -64.8281 -64.8261 -64.8255 -31.6274 -31.6273 -31.6210 -31.6209
   -31.5925 -31.5923 -31.5809 -31.5809 -31.5779 -31.5778 -31.5775 -31.5773
    -8.4008  -8.3987  -7.9969  -7.9969   3.8217   3.8218   4.1981   4.2000
     5.8304   5.8304   6.7407   6.7409   6.8674   6.8682   7.0162   7.0181

          k =-0.4996 0.2502-0.5000 (  5140 PWs)   bands (ev):

   -64.8273 -64.8273 -64.8273 -64.8263 -31.6315 -31.6313 -31.6312 -31.6312
   -31.5827 -31.5824 -31.5824 -31.5823 -31.5757 -31.5755 -31.5754 -31.5754
    -8.1686  -8.1685  -8.1675  -8.1674   3.6407   3.6408   3.6417   3.6418
     6.5241   6.5242   6.5263   6.5263   7.0628   7.0630   7.0637   7.0639

          k =-0.4996-0.5004 0.0000 (  5216 PWs)   bands (ev):

   -64.8273 -64.8273 -64.8273 -64.8263 -31.6193 -31.6192 -31.6190 -31.6190
   -31.5974 -31.5972 -31.5972 -31.5969 -31.5768 -31.5766 -31.5765 -31.5765
    -8.2068  -8.2054  -8.2053  -8.2038   4.2926   4.2933   4.2933   4.2940
     5.7635   5.7670   5.7673   5.7708   7.0621   7.0633   7.0633   7.0645

          k =-0.4996-0.5004 0.2500 (  5140 PWs)   bands (ev):

   -64.8273 -64.8273 -64.8273 -64.8263 -31.6315 -31.6313 -31.6312 -31.6312
   -31.5830 -31.5827 -31.5827 -31.5826 -31.5755 -31.5753 -31.5751 -31.5751
    -8.1689  -8.1678  -8.1677  -8.1667   3.6394   3.6403   3.6404   3.6413
     6.5223   6.5243   6.5245   6.5265   7.0635   7.0644   7.0644   7.0653

          k =-0.4996-0.5004-0.5000 (  5152 PWs)   bands (ev):

   -64.8273 -64.8273 -64.8273 -64.8263 -31.6399 -31.6397 -31.6396 -31.6396
   -31.5759 -31.5757 -31.5756 -31.5756 -31.5745 -31.5743 -31.5742 -31.5741
    -8.1298  -8.1297  -8.1297  -8.1296   3.2174   3.2175   3.2175   3.2175
     7.0638   7.0638   7.0639   7.0641   7.0664   7.0665   7.0667   7.0667

          k =-0.2498 0.2502 0.0000 (  5167 PWs)   bands (ev):

   -64.8318 -64.8261 -64.8257 -64.8247 -31.6215 -31.6206 -31.6194 -31.6071
   -31.5944 -31.5942 -31.5929 -31.5878 -31.5872 -31.5866 -31.5753 -31.5683
    -8.9660  -8.0652  -8.0625  -7.8902   4.1606   4.1620   4.3287   5.0713
     5.8471   6.0519   6.0587   6.4834   6.4858   6.5835   7.1733   7.5056

          k =-0.2498 0.2502-0.2500 (  5158 PWs)   bands (ev):

   -64.8307 -64.8261 -64.8261 -64.8253 -31.6252 -31.6250 -31.6249 -31.6059
   -31.5938 -31.5937 -31.5934 -31.5843 -31.5839 -31.5836 -31.5717 -31.5707
    -8.7962  -8.0317  -8.0307  -8.0298   4.0001   4.0004   4.0007   5.0892
     5.8447   5.8457   5.8467   6.7033   6.7054   6.7075   7.3551   7.3556

          k =-0.2498 0.2502 0.5000 (  5132 PWs)   bands (ev):

   -64.8285 -64.8281 -64.8261 -64.8255 -31.6275 -31.6274 -31.6209 -31.6208
   -31.5929 -31.5927 -31.5803 -31.5803 -31.5780 -31.5779 -31.5774 -31.5772
    -8.3991  -8.3990  -7.9972  -7.9971   3.8215   3.8216   4.1979   4.1980
     5.8303   5.8303   6.7402   6.7405   6.8687   6.8689   7.0160   7.0160

     highest occupied level (ev):     7.6742

!    total energy              =    -608.39293305 Ry
     Harris-Foulkes estimate   =    -608.39293305 Ry
     estimated scf accuracy    <          9.0E-10 Ry

     The total energy is the sum of the following terms:

     one-electron contribution =    -303.55920654 Ry
     hartree contribution      =     168.06894164 Ry
     xc contribution           =     -97.84644611 Ry
     ewald contribution        =    -375.05622203 Ry

     convergence has been achieved in   3 iterations

     Forces acting on atoms (cartesian axes, Ry/au):

     atom    1 type  1   force =    -0.00023684    0.00023907    0.00000000
     atom    2 type  1   force =    -0.00024455   -0.00024030    0.00000000
     atom    3 type  1   force =     0.00023659    0.00024681    0.00000000
     atom    4 type  1   force =     0.00023662   -0.00024033    0.00000000
     atom    5 type  2   force =     0.00031471    0.00031536    0.00000000
     atom    6 type  2   force =    -0.00030998   -0.00031553    0.00000000
     atom    7 type  2   force =    -0.00030756    0.00030982    0.00000000
     atom    8 type  2   force =     0.00031100   -0.00031491    0.00000000

     Total force =     0.001114     Total SCF correction =     0.000094


     Computing stress (Cartesian axis) and pressure

          total   stress  (Ry/bohr**3)                   (kbar)     P=  -67.84
  -0.00046984   0.00000000   0.00000000        -69.12      0.00      0.00
   0.00000000  -0.00045233   0.00000000          0.00    -66.54      0.00
   0.00000000   0.00000000  -0.00046131          0.00      0.00    -67.86


     number of scf cycles    =   2
     number of bfgs steps    =   1

     energy   old            =    -608.3929306671 Ry
     energy   new            =    -608.3929330472 Ry

     CASE: energy  _new < energy  _old

     new trust radius        =       0.0007056914 bohr
     new conv_thr            =            1.0E-10 Ry


ATOMIC_POSITIONS (alat)
Mg      -0.000094793   0.000095989   0.000000000
Mg      -0.000096447   0.499904674   0.500000000
Mg       0.500093791   0.000097581   0.500000000
Mg       0.500093859   0.499904702   0.000000000
O        0.500117798   0.000117775   0.000000000
O       -0.000115989   0.499881371   0.000000000
O       -0.000115514   0.000116639   0.500000000
O        0.500117294   0.499881269   0.500000000



     Writing output data file diamond.1.000714.70.4.save
     NEW-OLD atomic charge density approx. for the potential

     Check: negative/imaginary core charge=   -0.000007    0.000000

     total cpu time spent up to now is       18.8 secs

     per-process dynamical memory:    55.6 Mb

     Self-consistent Calculation

     iteration #  1     ecut=    70.00 Ry     beta=0.70
     Davidson diagonalization with overlap
     ethr =  1.00E-06,  avg # of iterations =  2.0

     Threshold (ethr) on eigenvalues was too large:
     Diagonalizing with lowered threshold

     Davidson diagonalization with overlap
     ethr =  8.08E-10,  avg # of iterations =  2.3

     total cpu time spent up to now is       21.5 secs

     total energy              =    -608.39293442 Ry
     Harris-Foulkes estimate   =    -608.39293487 Ry
     estimated scf accuracy    <       0.00000062 Ry

     iteration #  2     ecut=    70.00 Ry     beta=0.70
     Davidson diagonalization with overlap
     ethr =  9.67E-10,  avg # of iterations =  2.2

     total cpu time spent up to now is       22.7 secs

     total energy              =    -608.39293461 Ry
     Harris-Foulkes estimate   =    -608.39293467 Ry
     estimated scf accuracy    <       0.00000011 Ry

     iteration #  3     ecut=    70.00 Ry     beta=0.70
     Davidson diagonalization with overlap
     ethr =  1.71E-10,  avg # of iterations =  2.0

     total cpu time spent up to now is       23.9 secs

     total energy              =    -608.39293463 Ry
     Harris-Foulkes estimate   =    -608.39293463 Ry
     estimated scf accuracy    <          9.2E-10 Ry

     iteration #  4     ecut=    70.00 Ry     beta=0.70
     Davidson diagonalization with overlap
     ethr =  1.43E-12,  avg # of iterations =  3.0

     total cpu time spent up to now is       25.5 secs

     total energy              =    -608.39293463 Ry
     Harris-Foulkes estimate   =    -608.39293463 Ry
     estimated scf accuracy    <          6.6E-10 Ry

     iteration #  5     ecut=    70.00 Ry     beta=0.70
     Davidson diagonalization with overlap
     ethr =  1.04E-12,  avg # of iterations =  2.9

     total cpu time spent up to now is       26.8 secs

     End of self-consistent calculation

          k = 0.0000 0.0000 0.0000 (  5137 PWs)   bands (ev):

   -64.8344 -64.8249 -64.8249 -64.8241 -31.6312 -31.6308 -31.6305 -31.5938
   -31.5936 -31.5935 -31.5931 -31.5930 -31.5929 -31.5636 -31.5632 -31.5628
    -9.3646  -7.9156  -7.9137  -7.9119   3.7558   3.7581   3.7604   6.3750
     6.3756   6.3794   6.3807   6.3845   6.3851   7.6708   7.6725   7.6742

          k = 0.0000 0.0000 0.2500 (  5161 PWs)   bands (ev):

   -64.8330 -64.8261 -64.8249 -64.8243 -31.6246 -31.6239 -31.6203 -31.5987
   -31.5978 -31.5940 -31.5937 -31.5892 -31.5887 -31.5781 -31.5717 -31.5710
    -9.1562  -8.1286  -7.8866  -7.8839   4.0462   4.0506   4.0955   5.8570
     5.8592   6.1672   6.1741   6.5386   6.5469   6.6589   7.4480   7.4525

          k = 0.0000 0.0000-0.5000 (  5110 PWs)   bands (ev):

   -64.8298 -64.8293 -64.8249 -64.8243 -31.6097 -31.6095 -31.6089 -31.6087
   -31.6018 -31.6018 -31.5906 -31.5906 -31.5808 -31.5806 -31.5802 -31.5799
    -8.6460  -8.6459  -7.8565  -7.8564   4.8462   4.8462   4.8497   4.8497
     5.1227   5.1230   5.9734   5.9737   6.9650   6.9651   6.9716   6.9717

          k = 0.0000 0.2502 0.0000 (  5161 PWs)   bands (ev):

   -64.8330 -64.8261 -64.8249 -64.8243 -31.6246 -31.6243 -31.6200 -31.5985
   -31.5981 -31.5936 -31.5934 -31.5894 -31.5891 -31.5777 -31.5718 -31.5714
    -9.1558  -8.1268  -7.8867  -7.8853   4.0467   4.0489   4.0967   5.8610
     5.8620   6.1661   6.1696   6.5382   6.5423   6.6574   7.4493   7.4515

          k = 0.0000 0.2502 0.2500 (  5167 PWs)   bands (ev):

   -64.8317 -64.8261 -64.8257 -64.8247 -31.6212 -31.6206 -31.6198 -31.6069
   -31.5948 -31.5947 -31.5927 -31.5875 -31.5869 -31.5866 -31.5757 -31.5681
    -8.9657  -8.0638  -8.0625  -7.8912   4.1607   4.1615   4.3271   5.0714
     5.8450   6.0546   6.0580   6.4813   6.4825   6.5858   7.1749   7.5053

          k = 0.0000 0.2502-0.5000 (  5146 PWs)   bands (ev):

   -64.8290 -64.8286 -64.8256 -64.8250 -31.6169 -31.6168 -31.6098 -31.6098
   -31.6070 -31.6068 -31.5853 -31.5851 -31.5832 -31.5832 -31.5749 -31.5747
    -8.5094  -8.5093  -7.9467  -7.9466   4.4174   4.4174   4.7494   4.7496
     5.0951   5.0952   6.5494   6.5496   6.5780   6.5781   7.0928   7.0929

          k = 0.0000-0.5004 0.0000 (  5110 PWs)   bands (ev):

   -64.8297 -64.8293 -64.8249 -64.8243 -31.6096 -31.6094 -31.6092 -31.6090
   -31.6015 -31.6014 -31.5903 -31.5903 -31.5809 -31.5807 -31.5806 -31.5803
    -8.6454  -8.6440  -7.8570  -7.8569   4.8470   4.8487   4.8492   4.8510
     5.1217   5.1226   5.9698   5.9701   6.9647   6.9661   6.9680   6.9694

          k = 0.0000-0.5004 0.2500 (  5146 PWs)   bands (ev):

   -64.8290 -64.8286 -64.8256 -64.8250 -31.6171 -31.6169 -31.6097 -31.6096
   -31.6070 -31.6067 -31.5854 -31.5851 -31.5831 -31.5831 -31.5751 -31.5749
    -8.5091  -8.5079  -7.9472  -7.9470   4.4169   4.4178   4.7486   4.7495
     5.0955   5.0977   6.5470   6.5478   6.5754   6.5769   7.0934   7.0939

          k = 0.0000-0.5004-0.5000 (  5216 PWs)   bands (ev):

   -64.8273 -64.8273 -64.8273 -64.8263 -31.6193 -31.6191 -31.6189 -31.6189
   -31.5978 -31.5976 -31.5976 -31.5973 -31.5765 -31.5763 -31.5762 -31.5762
    -8.2053  -8.2052  -8.2045  -8.2044   4.2904   4.2905   4.2907   4.2908
     5.7664   5.7664   5.7684   5.7684   7.0640   7.0641   7.0646   7.0648

          k = 0.2498 0.0000 0.0000 (  5161 PWs)   bands (ev):

   -64.8330 -64.8262 -64.8249 -64.8243 -31.6243 -31.6239 -31.6206 -31.5984
   -31.5979 -31.5943 -31.5941 -31.5888 -31.5885 -31.5785 -31.5713 -31.5710
    -9.1566  -8.1304  -7.8852  -7.8839   4.0479   4.0501   4.0943   5.8542
     5.8553   6.1717   6.1752   6.5431   6.5472   6.6604   7.4490   7.4512

          k = 0.2498 0.0000 0.2500 (  5167 PWs)   bands (ev):

   -64.8318 -64.8261 -64.8257 -64.8247 -31.6215 -31.6213 -31.6190 -31.6073
   -31.5940 -31.5935 -31.5930 -31.5881 -31.5872 -31.5868 -31.5749 -31.5686
    -8.9664  -8.0652  -8.0639  -7.8894   4.1610   4.1616   4.3303   5.0713
     5.8492   6.0526   6.0563   6.4868   6.4879   6.5811   7.1717   7.5058

          k = 0.2498 0.0000-0.5000 (  5146 PWs)   bands (ev):

   -64.8290 -64.8286 -64.8256 -64.8250 -31.6173 -31.6172 -31.6099 -31.6099
   -31.6062 -31.6060 -31.5844 -31.5841 -31.5836 -31.5836 -31.5758 -31.5756
    -8.5098  -8.5097  -7.9472  -7.9471   4.4194   4.4195   4.7528   4.7530
     5.0976   5.0976   6.5462   6.5465   6.5736   6.5736   7.0953   7.0954

          k = 0.2498 0.2502 0.0000 (  5167 PWs)   bands (ev):

   -64.8318 -64.8261 -64.8257 -64.8247 -31.6215 -31.6206 -31.6194 -31.6071
   -31.5944 -31.5942 -31.5929 -31.5878 -31.5872 -31.5866 -31.5753 -31.5683
    -8.9661  -8.0652  -8.0626  -7.8903   4.1606   4.1620   4.3287   5.0713
     5.8471   6.0519   6.0587   6.4834   6.4858   6.5835   7.1733   7.5056

          k = 0.2498 0.2502 0.2500 (  5158 PWs)   bands (ev):

   -64.8307 -64.8261 -64.8261 -64.8253 -31.6252 -31.6250 -31.6249 -31.6059
   -31.5937 -31.5937 -31.5934 -31.5843 -31.5839 -31.5836 -31.5717 -31.5707
    -8.7962  -8.0317  -8.0307  -8.0298   4.0001   4.0004   4.0007   5.0892
     5.8447   5.8456   5.8467   6.7033   6.7054   6.7075   7.3551   7.3556

          k = 0.2498 0.2502-0.5000 (  5132 PWs)   bands (ev):

   -64.8285 -64.8281 -64.8261 -64.8255 -31.6275 -31.6274 -31.6209 -31.6208
   -31.5929 -31.5927 -31.5803 -31.5803 -31.5780 -31.5779 -31.5774 -31.5772
    -8.3991  -8.3990  -7.9972  -7.9971   3.8215   3.8215   4.1979   4.1980
     5.8303   5.8303   6.7402   6.7404   6.8687   6.8689   7.0160   7.0160

          k = 0.2498-0.5004 0.0000 (  5150 PWs)   bands (ev):

   -64.8290 -64.8286 -64.8256 -64.8250 -31.6174 -31.6173 -31.6097 -31.6097
   -31.6067 -31.6065 -31.5848 -31.5845 -31.5834 -31.5834 -31.5756 -31.5755
    -8.5094  -8.5081  -7.9475  -7.9472   4.4179   4.4189   4.7503   4.7512
     5.0966   5.0988   6.5454   6.5462   6.5731   6.5747   7.0946   7.0951

          k = 0.2498-0.5004 0.2500 (  5130 PWs)   bands (ev):

   -64.8285 -64.8281 -64.8261 -64.8255 -31.6275 -31.6273 -31.6209 -31.6208
   -31.5929 -31.5927 -31.5801 -31.5801 -31.5781 -31.5779 -31.5774 -31.5773
    -8.3990  -8.3979  -7.9974  -7.9973   3.8214   3.8214   4.1963   4.1973
     5.8305   5.8305   6.7396   6.7399   6.8696   6.8701   7.0143   7.0153

          k = 0.2498-0.5004-0.5000 (  5140 PWs)   bands (ev):

   -64.8273 -64.8273 -64.8273 -64.8263 -31.6315 -31.6313 -31.6312 -31.6312
   -31.5832 -31.5830 -31.5830 -31.5828 -31.5752 -31.5750 -31.5749 -31.5748
    -8.1679  -8.1678  -8.1673  -8.1672   3.6392   3.6392   3.6397   3.6397
     6.5229   6.5230   6.5241   6.5241   7.0651   7.0653   7.0656   7.0658

          k =-0.4996 0.0000 0.0000 (  5110 PWs)   bands (ev):

   -64.8298 -64.8293 -64.8249 -64.8243 -31.6094 -31.6092 -31.6090 -31.6088
   -31.6022 -31.6021 -31.5909 -31.5909 -31.5804 -31.5802 -31.5801 -31.5798
    -8.6479  -8.6464  -7.8560  -7.8559   4.8449   4.8466   4.8472   4.8489
     5.1230   5.1239   5.9770   5.9774   6.9673   6.9687   6.9706   6.9720

          k =-0.4996 0.0000 0.2500 (  5146 PWs)   bands (ev):

   -64.8291 -64.8286 -64.8256 -64.8250 -31.6174 -31.6172 -31.6100 -31.6100
   -31.6063 -31.6061 -31.5843 -31.5840 -31.5840 -31.5840 -31.5752 -31.5750
    -8.5113  -8.5100  -7.9469  -7.9466   4.4190   4.4199   4.7530   4.7539
     5.0951   5.0973   6.5479   6.5488   6.5747   6.5763   7.0944   7.0948

          k =-0.4996 0.0000-0.5000 (  5216 PWs)   bands (ev):

   -64.8273 -64.8273 -64.8273 -64.8263 -31.6194 -31.6192 -31.6191 -31.6191
   -31.5970 -31.5968 -31.5968 -31.5965 -31.5771 -31.5769 -31.5768 -31.5768
    -8.2063  -8.2062  -8.2055  -8.2054   4.2958   4.2959   4.2961   4.2962
     5.7658   5.7659   5.7678   5.7679   7.0618   7.0620   7.0625   7.0626

          k =-0.4996 0.2502 0.0000 (  5146 PWs)   bands (ev):

   -64.8291 -64.8286 -64.8256 -64.8250 -31.6172 -31.6170 -31.6100 -31.6099
   -31.6067 -31.6065 -31.5846 -31.5844 -31.5838 -31.5838 -31.5749 -31.5747
    -8.5110  -8.5098  -7.9466  -7.9463   4.4180   4.4189   4.7513   4.7522
     5.0938   5.0961   6.5495   6.5504   6.5769   6.5785   7.0931   7.0935

          k =-0.4996 0.2502 0.2500 (  5132 PWs)   bands (ev):

   -64.8285 -64.8281 -64.8261 -64.8255 -31.6274 -31.6273 -31.6210 -31.6209
   -31.5925 -31.5923 -31.5809 -31.5809 -31.5779 -31.5778 -31.5775 -31.5773
    -8.4003  -8.3992  -7.9970  -7.9969   3.8217   3.8218   4.1986   4.1996
     5.8303   5.8304   6.7407   6.7409   6.8675   6.8680   7.0167   7.0176

          k =-0.4996 0.2502-0.5000 (  5140 PWs)   bands (ev):

   -64.8273 -64.8273 -64.8273 -64.8263 -31.6315 -31.6313 -31.6312 -31.6312
   -31.5827 -31.5824 -31.5824 -31.5823 -31.5757 -31.5755 -31.5754 -31.5754
    -8.1684  -8.1683  -8.1678  -8.1677   3.6410   3.6410   3.6415   3.6415
     6.5246   6.5246   6.5258   6.5258   7.0630   7.0632   7.0635   7.0637

          k =-0.4996-0.5004 0.0000 (  5216 PWs)   bands (ev):

   -64.8273 -64.8273 -64.8273 -64.8263 -31.6193 -31.6192 -31.6190 -31.6190
   -31.5974 -31.5972 -31.5972 -31.5969 -31.5768 -31.5766 -31.5765 -31.5765
    -8.2061  -8.2054  -8.2053  -8.2045   4.2930   4.2933   4.2933   4.2936
     5.7651   5.7669   5.7673   5.7691   7.0626   7.0633   7.0633   7.0639

          k =-0.4996-0.5004 0.2500 (  5140 PWs)   bands (ev):

   -64.8273 -64.8273 -64.8273 -64.8263 -31.6315 -31.6313 -31.6312 -31.6312
   -31.5830 -31.5827 -31.5827 -31.5826 -31.5755 -31.5753 -31.5751 -31.5751
    -8.1684  -8.1678  -8.1677  -8.1672   3.6398   3.6403   3.6404   3.6408
     6.5232   6.5242   6.5245   6.5255   7.0639   7.0644   7.0644   7.0649

          k =-0.4996-0.5004-0.5000 (  5152 PWs)   bands (ev):

   -64.8273 -64.8273 -64.8273 -64.8263 -31.6399 -31.6396 -31.6396 -31.6396
   -31.5759 -31.5757 -31.5756 -31.5756 -31.5745 -31.5743 -31.5742 -31.5741
    -8.1299  -8.1297  -8.1297  -8.1297   3.2173   3.2175   3.2175   3.2175
     7.0637   7.0638   7.0639   7.0641   7.0664   7.0665   7.0666   7.0667

          k =-0.2498 0.2502 0.0000 (  5167 PWs)   bands (ev):

   -64.8318 -64.8261 -64.8257 -64.8247 -31.6215 -31.6206 -31.6194 -31.6071
   -31.5944 -31.5942 -31.5929 -31.5878 -31.5872 -31.5866 -31.5753 -31.5683
    -8.9661  -8.0652  -8.0626  -7.8903   4.1606   4.1620   4.3287   5.0713
     5.8471   6.0519   6.0587   6.4834   6.4858   6.5835   7.1733   7.5056

          k =-0.2498 0.2502-0.2500 (  5158 PWs)   bands (ev):

   -64.8307 -64.8261 -64.8261 -64.8253 -31.6252 -31.6250 -31.6249 -31.6059
   -31.5937 -31.5937 -31.5934 -31.5843 -31.5839 -31.5836 -31.5717 -31.5707
    -8.7962  -8.0317  -8.0307  -8.0298   4.0001   4.0004   4.0007   5.0892
     5.8447   5.8456   5.8467   6.7033   6.7054   6.7075   7.3551   7.3556

          k =-0.2498 0.2502 0.5000 (  5132 PWs)   bands (ev):

   -64.8285 -64.8281 -64.8261 -64.8255 -31.6275 -31.6274 -31.6209 -31.6208
   -31.5929 -31.5927 -31.5803 -31.5803 -31.5780 -31.5779 -31.5774 -31.5772
    -8.3991  -8.3990  -7.9972  -7.9971   3.8215   3.8215   4.1979   4.1980
     5.8303   5.8303   6.7402   6.7404   6.8687   6.8689   7.0160   7.0160

     highest occupied level (ev):     7.6742

!    total energy              =    -608.39293463 Ry
     Harris-Foulkes estimate   =    -608.39293463 Ry
     estimated scf accuracy    <          3.3E-11 Ry

     The total energy is the sum of the following terms:

     one-electron contribution =    -303.55893623 Ry
     hartree contribution      =     168.06882548 Ry
     xc contribution           =     -97.84645400 Ry
     ewald contribution        =    -375.05636988 Ry

     convergence has been achieved in   5 iterations

     Forces acting on atoms (cartesian axes, Ry/au):

     atom    1 type  1   force =    -0.00016760    0.00016787    0.00000000
     atom    2 type  1   force =    -0.00018103   -0.00017517    0.00000000
     atom    3 type  1   force =     0.00017530    0.00018123    0.00000000
     atom    4 type  1   force =     0.00017507   -0.00017479    0.00000000
     atom    5 type  2   force =     0.00014594    0.00014575    0.00000000
     atom    6 type  2   force =    -0.00014704   -0.00014600    0.00000000
     atom    7 type  2   force =    -0.00014796    0.00014759    0.00000000
     atom    8 type  2   force =     0.00014734   -0.00014648    0.00000000

     Total force =     0.000646     Total SCF correction =     0.000035


     Computing stress (Cartesian axis) and pressure

          total   stress  (Ry/bohr**3)                   (kbar)     P=  -67.83
  -0.00046982   0.00000000   0.00000000        -69.11      0.00      0.00
   0.00000000  -0.00045231   0.00000000          0.00    -66.54      0.00
   0.00000000   0.00000000  -0.00046127          0.00      0.00    -67.86


     number of scf cycles    =   3
     number of bfgs steps    =   2

     energy   old            =    -608.3929330472 Ry
     energy   new            =    -608.3929346315 Ry

     CASE: energy  _new < energy  _old

     new trust radius        =       0.0008689171 bohr
     new conv_thr            =            1.0E-10 Ry


ATOMIC_POSITIONS (alat)
Mg      -0.000167558   0.000169060   0.000000000
Mg      -0.000173879   0.499829372   0.500000000
Mg       0.500168742   0.000175302   0.500000000
Mg       0.500168749   0.499829504   0.000000000
O        0.500192610   0.000192605   0.000000000
O       -0.000190621   0.499806463   0.000000000
O       -0.000190150   0.000191403   0.500000000
O        0.500192106   0.499806292   0.500000000



     Writing output data file diamond.1.000714.70.4.save
     NEW-OLD atomic charge density approx. for the potential

     Check: negative/imaginary core charge=   -0.000007    0.000000

     total cpu time spent up to now is       27.5 secs

     per-process dynamical memory:    55.6 Mb

     Self-consistent Calculation

     iteration #  1     ecut=    70.00 Ry     beta=0.70
     Davidson diagonalization with overlap
     ethr =  1.00E-06,  avg # of iterations =  2.0

     Threshold (ethr) on eigenvalues was too large:
     Diagonalizing with lowered threshold

     Davidson diagonalization with overlap
     ethr =  1.37E-09,  avg # of iterations =  2.2

     total cpu time spent up to now is       30.3 secs

     total energy              =    -608.39293497 Ry
     Harris-Foulkes estimate   =    -608.39293570 Ry
     estimated scf accuracy    <       0.00000099 Ry

     iteration #  2     ecut=    70.00 Ry     beta=0.70
     Davidson diagonalization with overlap
     ethr =  1.55E-09,  avg # of iterations =  2.2

     total cpu time spent up to now is       31.5 secs

     total energy              =    -608.39293528 Ry
     Harris-Foulkes estimate   =    -608.39293538 Ry
     estimated scf accuracy    <       0.00000017 Ry

     iteration #  3     ecut=    70.00 Ry     beta=0.70
     Davidson diagonalization with overlap
     ethr =  2.72E-10,  avg # of iterations =  2.0

     total cpu time spent up to now is       32.7 secs

     total energy              =    -608.39293531 Ry
     Harris-Foulkes estimate   =    -608.39293531 Ry
     estimated scf accuracy    <          1.2E-09 Ry

     iteration #  4     ecut=    70.00 Ry     beta=0.70
     Davidson diagonalization with overlap
     ethr =  1.82E-12,  avg # of iterations =  2.2

     total cpu time spent up to now is       34.1 secs

     total energy              =    -608.39293532 Ry
     Harris-Foulkes estimate   =    -608.39293532 Ry
     estimated scf accuracy    <          1.7E-10 Ry

     iteration #  5     ecut=    70.00 Ry     beta=0.70
     Davidson diagonalization with overlap
     ethr =  2.60E-13,  avg # of iterations =  2.5

     total cpu time spent up to now is       35.4 secs

     End of self-consistent calculation

          k = 0.0000 0.0000 0.0000 (  5137 PWs)   bands (ev):

   -64.8344 -64.8249 -64.8249 -64.8241 -31.6312 -31.6308 -31.6305 -31.5938
   -31.5936 -31.5935 -31.5931 -31.5930 -31.5929 -31.5636 -31.5632 -31.5628
    -9.3646  -7.9156  -7.9137  -7.9119   3.7558   3.7581   3.7604   6.3750
     6.3756   6.3794   6.3807   6.3845   6.3851   7.6708   7.6725   7.6742

          k = 0.0000 0.0000 0.2500 (  5161 PWs)   bands (ev):

   -64.8330 -64.8261 -64.8249 -64.8243 -31.6246 -31.6239 -31.6203 -31.5987
   -31.5978 -31.5940 -31.5937 -31.5892 -31.5887 -31.5781 -31.5717 -31.5710
    -9.1562  -8.1286  -7.8866  -7.8839   4.0462   4.0506   4.0955   5.8570
     5.8592   6.1672   6.1741   6.5386   6.5469   6.6589   7.4480   7.4525

          k = 0.0000 0.0000-0.5000 (  5110 PWs)   bands (ev):

   -64.8298 -64.8293 -64.8249 -64.8243 -31.6097 -31.6095 -31.6089 -31.6087
   -31.6018 -31.6018 -31.5906 -31.5906 -31.5808 -31.5806 -31.5802 -31.5799
    -8.6460  -8.6459  -7.8565  -7.8564   4.8462   4.8462   4.8497   4.8497
     5.1227   5.1230   5.9734   5.9737   6.9650   6.9651   6.9716   6.9717

          k = 0.0000 0.2502 0.0000 (  5161 PWs)   bands (ev):

   -64.8330 -64.8261 -64.8249 -64.8243 -31.6246 -31.6243 -31.6200 -31.5985
   -31.5981 -31.5936 -31.5934 -31.5894 -31.5891 -31.5777 -31.5718 -31.5714
    -9.1558  -8.1268  -7.8867  -7.8853   4.0467   4.0489   4.0967   5.8610
     5.8620   6.1661   6.1696   6.5382   6.5423   6.6574   7.4493   7.4515

          k = 0.0000 0.2502 0.2500 (  5167 PWs)   bands (ev):

   -64.8317 -64.8261 -64.8257 -64.8247 -31.6213 -31.6206 -31.6198 -31.6069
   -31.5948 -31.5947 -31.5927 -31.5875 -31.5869 -31.5866 -31.5757 -31.5681
    -8.9657  -8.0638  -8.0625  -7.8912   4.1607   4.1615   4.3271   5.0714
     5.8450   6.0546   6.0580   6.4813   6.4825   6.5858   7.1749   7.5053

          k = 0.0000 0.2502-0.5000 (  5146 PWs)   bands (ev):

   -64.8290 -64.8286 -64.8256 -64.8250 -31.6169 -31.6168 -31.6098 -31.6098
   -31.6070 -31.6068 -31.5853 -31.5851 -31.5832 -31.5832 -31.5749 -31.5747
    -8.5094  -8.5093  -7.9467  -7.9466   4.4174   4.4174   4.7494   4.7496
     5.0951   5.0952   6.5494   6.5496   6.5780   6.5781   7.0928   7.0929

          k = 0.0000-0.5004 0.0000 (  5110 PWs)   bands (ev):

   -64.8297 -64.8293 -64.8249 -64.8243 -31.6096 -31.6094 -31.6092 -31.6090
   -31.6015 -31.6014 -31.5903 -31.5903 -31.5809 -31.5807 -31.5806 -31.5803
    -8.6448  -8.6446  -7.8570  -7.8569   4.8480   4.8482   4.8497   4.8500
     5.1220   5.1223   5.9698   5.9701   6.9653   6.9655   6.9686   6.9688

          k = 0.0000-0.5004 0.2500 (  5146 PWs)   bands (ev):

   -64.8290 -64.8286 -64.8256 -64.8250 -31.6171 -31.6169 -31.6097 -31.6097
   -31.6070 -31.6067 -31.5854 -31.5851 -31.5831 -31.5831 -31.5751 -31.5749
    -8.5086  -8.5084  -7.9471  -7.9470   4.4173   4.4174   4.7489   4.7492
     5.0964   5.0967   6.5473   6.5475   6.5760   6.5763   7.0936   7.0937

          k = 0.0000-0.5004-0.5000 (  5216 PWs)   bands (ev):

   -64.8273 -64.8273 -64.8273 -64.8263 -31.6193 -31.6191 -31.6189 -31.6189
   -31.5978 -31.5976 -31.5976 -31.5973 -31.5765 -31.5763 -31.5762 -31.5762
    -8.2050  -8.2049  -8.2048  -8.2047   4.2904   4.2906   4.2906   4.2908
     5.7672   5.7672   5.7676   5.7676   7.0642   7.0643   7.0644   7.0645

          k = 0.2498 0.0000 0.0000 (  5161 PWs)   bands (ev):

   -64.8330 -64.8262 -64.8249 -64.8243 -31.6243 -31.6239 -31.6206 -31.5984
   -31.5979 -31.5943 -31.5941 -31.5888 -31.5885 -31.5785 -31.5713 -31.5710
    -9.1566  -8.1304  -7.8852  -7.8839   4.0479   4.0501   4.0943   5.8542
     5.8553   6.1717   6.1752   6.5431   6.5472   6.6604   7.4490   7.4512

          k = 0.2498 0.0000 0.2500 (  5167 PWs)   bands (ev):

   -64.8318 -64.8261 -64.8257 -64.8247 -31.6215 -31.6213 -31.6190 -31.6073
   -31.5941 -31.5935 -31.5930 -31.5881 -31.5872 -31.5868 -31.5749 -31.5686
    -8.9664  -8.0652  -8.0639  -7.8894   4.1610   4.1616   4.3303   5.0713
     5.8492   6.0526   6.0563   6.4868   6.4879   6.5811   7.1717   7.5058

          k = 0.2498 0.0000-0.5000 (  5146 PWs)   bands (ev):

   -64.8290 -64.8286 -64.8256 -64.8250 -31.6173 -31.6172 -31.6099 -31.6099
   -31.6062 -31.6060 -31.5844 -31.5841 -31.5836 -31.5836 -31.5758 -31.5756
    -8.5098  -8.5098  -7.9472  -7.9471   4.4194   4.4195   4.7528   4.7530
     5.0976   5.0976   6.5462   6.5465   6.5735   6.5736   7.0953   7.0954

          k = 0.2498 0.2502 0.0000 (  5167 PWs)   bands (ev):

   -64.8318 -64.8261 -64.8257 -64.8247 -31.6215 -31.6206 -31.6194 -31.6071
   -31.5944 -31.5942 -31.5929 -31.5878 -31.5872 -31.5866 -31.5753 -31.5683
    -8.9661  -8.0652  -8.0625  -7.8903   4.1606   4.1620   4.3287   5.0713
     5.8471   6.0519   6.0587   6.4834   6.4858   6.5835   7.1733   7.5056

          k = 0.2498 0.2502 0.2500 (  5158 PWs)   bands (ev):

   -64.8307 -64.8261 -64.8261 -64.8253 -31.6252 -31.6250 -31.6249 -31.6059
   -31.5937 -31.5937 -31.5934 -31.5843 -31.5839 -31.5836 -31.5717 -31.5707
    -8.7962  -8.0317  -8.0307  -8.0298   4.0001   4.0004   4.0007   5.0892
     5.8446   5.8456   5.8467   6.7033   6.7054   6.7075   7.3551   7.3556

          k = 0.2498 0.2502-0.5000 (  5132 PWs)   bands (ev):

   -64.8285 -64.8281 -64.8261 -64.8255 -31.6275 -31.6274 -31.6209 -31.6208
   -31.5929 -31.5927 -31.5803 -31.5803 -31.5780 -31.5779 -31.5774 -31.5772
    -8.3991  -8.3990  -7.9972  -7.9971   3.8215   3.8215   4.1979   4.1980
     5.8303   5.8303   6.7402   6.7404   6.8687   6.8689   7.0160   7.0160

          k = 0.2498-0.5004 0.0000 (  5150 PWs)   bands (ev):

   -64.8290 -64.8286 -64.8256 -64.8250 -31.6174 -31.6173 -31.6097 -31.6097
   -31.6067 -31.6065 -31.5847 -31.5845 -31.5834 -31.5834 -31.5756 -31.5755
    -8.5088  -8.5086  -7.9474  -7.9473   4.4183   4.4184   4.7506   4.7509
     5.0975   5.0978   6.5457   6.5459   6.5738   6.5740   7.0948   7.0949

          k = 0.2498-0.5004 0.2500 (  5130 PWs)   bands (ev):

   -64.8285 -64.8281 -64.8261 -64.8255 -31.6275 -31.6273 -31.6209 -31.6208
   -31.5929 -31.5927 -31.5801 -31.5801 -31.5781 -31.5779 -31.5774 -31.5773
    -8.3985  -8.3983  -7.9974  -7.9973   3.8214   3.8214   4.1967   4.1969
     5.8305   5.8305   6.7396   6.7399   6.8698   6.8699   7.0147   7.0149

          k = 0.2498-0.5004-0.5000 (  5140 PWs)   bands (ev):

   -64.8273 -64.8273 -64.8273 -64.8263 -31.6315 -31.6313 -31.6312 -31.6312
   -31.5832 -31.5830 -31.5830 -31.5828 -31.5752 -31.5750 -31.5749 -31.5748
    -8.1677  -8.1675  -8.1675  -8.1675   3.6393   3.6394   3.6395   3.6395
     6.5234   6.5234   6.5237   6.5237   7.0653   7.0654   7.0654   7.0656

          k =-0.4996 0.0000 0.0000 (  5110 PWs)   bands (ev):

   -64.8298 -64.8293 -64.8249 -64.8243 -31.6094 -31.6092 -31.6090 -31.6088
   -31.6022 -31.6022 -31.5909 -31.5909 -31.5804 -31.5802 -31.5801 -31.5798
    -8.6473  -8.6471  -7.8560  -7.8559   4.8459   4.8462   4.8477   4.8479
     5.1233   5.1236   5.9770   5.9774   6.9679   6.9681   6.9712   6.9714

          k =-0.4996 0.0000 0.2500 (  5146 PWs)   bands (ev):

   -64.8291 -64.8286 -64.8256 -64.8250 -31.6174 -31.6172 -31.6100 -31.6100
   -31.6063 -31.6061 -31.5843 -31.5840 -31.5840 -31.5840 -31.5752 -31.5750
    -8.5107  -8.5105  -7.9468  -7.9467   4.4194   4.4195   4.7533   4.7536
     5.0961   5.0963   6.5482   6.5485   6.5754   6.5756   7.0946   7.0947

          k =-0.4996 0.0000-0.5000 (  5216 PWs)   bands (ev):

   -64.8273 -64.8273 -64.8273 -64.8263 -31.6194 -31.6192 -31.6191 -31.6191
   -31.5970 -31.5968 -31.5968 -31.5965 -31.5771 -31.5769 -31.5768 -31.5768
    -8.2060  -8.2058  -8.2058  -8.2057   4.2959   4.2960   4.2960   4.2962
     5.7666   5.7667   5.7670   5.7671   7.0620   7.0622   7.0622   7.0624

          k =-0.4996 0.2502 0.0000 (  5146 PWs)   bands (ev):

   -64.8291 -64.8286 -64.8256 -64.8250 -31.6172 -31.6170 -31.6100 -31.6100
   -31.6067 -31.6065 -31.5846 -31.5844 -31.5838 -31.5838 -31.5749 -31.5747
    -8.5105  -8.5103  -7.9465  -7.9464   4.4184   4.4185   4.7516   4.7519
     5.0948   5.0951   6.5498   6.5501   6.5776   6.5778   7.0933   7.0934

          k =-0.4996 0.2502 0.2500 (  5132 PWs)   bands (ev):

   -64.8285 -64.8281 -64.8261 -64.8255 -31.6274 -31.6273 -31.6210 -31.6209
   -31.5925 -31.5923 -31.5809 -31.5809 -31.5779 -31.5778 -31.5775 -31.5773
    -8.3998  -8.3997  -7.9969  -7.9969   3.8217   3.8218   4.1990   4.1992
     5.8304   5.8304   6.7407   6.7409   6.8677   6.8678   7.0171   7.0172

          k =-0.4996 0.2502-0.5000 (  5140 PWs)   bands (ev):

   -64.8273 -64.8273 -64.8273 -64.8263 -31.6315 -31.6313 -31.6312 -31.6312
   -31.5827 -31.5824 -31.5824 -31.5823 -31.5757 -31.5755 -31.5754 -31.5754
    -8.1682  -8.1680  -8.1680  -8.1680   3.6411   3.6412   3.6413   3.6414
     6.5250   6.5251   6.5253   6.5253   7.0632   7.0633   7.0633   7.0635

          k =-0.4996-0.5004 0.0000 (  5216 PWs)   bands (ev):

   -64.8273 -64.8273 -64.8273 -64.8263 -31.6193 -31.6191 -31.6190 -31.6190
   -31.5974 -31.5972 -31.5972 -31.5969 -31.5768 -31.5766 -31.5765 -31.5765
    -8.2055  -8.2053  -8.2053  -8.2052   4.2931   4.2933   4.2933   4.2935
     5.7668   5.7670   5.7673   5.7674   7.0631   7.0633   7.0633   7.0635

          k =-0.4996-0.5004 0.2500 (  5140 PWs)   bands (ev):

   -64.8273 -64.8273 -64.8273 -64.8263 -31.6315 -31.6313 -31.6312 -31.6312
   -31.5830 -31.5827 -31.5827 -31.5826 -31.5755 -31.5753 -31.5751 -31.5751
    -8.1679  -8.1678  -8.1678  -8.1677   3.6402   3.6403   3.6404   3.6405
     6.5242   6.5242   6.5245   6.5246   7.0642   7.0644   7.0644   7.0646

          k =-0.4996-0.5004-0.5000 (  5152 PWs)   bands (ev):

   -64.8273 -64.8273 -64.8273 -64.8263 -31.6399 -31.6396 -31.6396 -31.6396
   -31.5759 -31.5757 -31.5756 -31.5756 -31.5745 -31.5743 -31.5742 -31.5741
    -8.1299  -8.1297  -8.1297  -8.1297   3.2173   3.2175   3.2175   3.2175
     7.0637   7.0638   7.0639   7.0641   7.0664   7.0665   7.0666   7.0667

          k =-0.2498 0.2502 0.0000 (  5167 PWs)   bands (ev):

   -64.8318 -64.8261 -64.8257 -64.8247 -31.6215 -31.6206 -31.6194 -31.6071
   -31.5944 -31.5942 -31.5929 -31.5878 -31.5872 -31.5866 -31.5753 -31.5683
    -8.9661  -8.0652  -8.0625  -7.8903   4.1606   4.1620   4.3287   5.0713
     5.8471   6.0519   6.0587   6.4834   6.4858   6.5835   7.1733   7.5056

          k =-0.2498 0.2502-0.2500 (  5158 PWs)   bands (ev):

   -64.8307 -64.8261 -64.8261 -64.8253 -31.6252 -31.6250 -31.6249 -31.6059
   -31.5937 -31.5937 -31.5934 -31.5843 -31.5839 -31.5836 -31.5717 -31.5707
    -8.7962  -8.0317  -8.0307  -8.0298   4.0001   4.0004   4.0007   5.0892
     5.8446   5.8456   5.8467   6.7033   6.7054   6.7075   7.3551   7.3556

          k =-0.2498 0.2502 0.5000 (  5132 PWs)   bands (ev):

   -64.8285 -64.8281 -64.8261 -64.8255 -31.6275 -31.6274 -31.6209 -31.6208
   -31.5929 -31.5927 -31.5803 -31.5803 -31.5780 -31.5779 -31.5774 -31.5772
    -8.3991  -8.3990  -7.9972  -7.9971   3.8215   3.8215   4.1979   4.1980
     5.8303   5.8303   6.7402   6.7404   6.8687   6.8689   7.0160   7.0160

     highest occupied level (ev):     7.6742

!    total energy              =    -608.39293532 Ry
     Harris-Foulkes estimate   =    -608.39293532 Ry
     estimated scf accuracy    <          2.1E-11 Ry

     The total energy is the sum of the following terms:

     one-electron contribution =    -303.55879044 Ry
     hartree contribution      =     168.06875336 Ry
     xc contribution           =     -97.84645311 Ry
     ewald contribution        =    -375.05644512 Ry

     convergence has been achieved in   5 iterations

     Forces acting on atoms (cartesian axes, Ry/au):

     atom    1 type  1   force =     0.00000561   -0.00000898    0.00000000
     atom    2 type  1   force =    -0.00001321   -0.00000614    0.00000000
     atom    3 type  1   force =     0.00000993    0.00000978    0.00000000
     atom    4 type  1   force =     0.00000974   -0.00000583    0.00000000
     atom    5 type  2   force =    -0.00004354   -0.00004300    0.00000000
     atom    6 type  2   force =     0.00003842    0.00004670    0.00000000
     atom    7 type  2   force =     0.00003749   -0.00004110    0.00000000
     atom    8 type  2   force =    -0.00004444    0.00004857    0.00000000

     Total force =     0.000124     Total SCF correction =     0.000051
     SCF correction compared to forces is large: reduce conv_thr to get better values


     Computing stress (Cartesian axis) and pressure

          total   stress  (Ry/bohr**3)                   (kbar)     P=  -67.84
  -0.00046982   0.00000000   0.00000000        -69.11      0.00      0.00
   0.00000000  -0.00045231   0.00000000          0.00    -66.54      0.00
   0.00000000   0.00000000  -0.00046127          0.00      0.00    -67.85


     bfgs converged in   4 scf cycles and   3 bfgs steps
     (criteria: energy <  1.0E-05 Ry, force <  1.0E-04 Ry/Bohr)

     End of BFGS Geometry Optimization

     Final energy   =    -608.3929353152 Ry
Begin final coordinates

ATOMIC_POSITIONS (alat)
Mg      -0.000167558   0.000169060   0.000000000
Mg      -0.000173879   0.499829372   0.500000000
Mg       0.500168742   0.000175302   0.500000000
Mg       0.500168749   0.499829504   0.000000000
O        0.500192610   0.000192605   0.000000000
O       -0.000190621   0.499806463   0.000000000
O       -0.000190150   0.000191403   0.500000000
O        0.500192106   0.499806292   0.500000000
End final coordinates



     Writing output data file diamond.1.000714.70.4.save
 
     init_run     :      0.54s CPU      0.56s WALL (       1 calls)
     electrons    :     31.91s CPU     32.48s WALL (       4 calls)
     update_pot   :      0.33s CPU      0.33s WALL (       3 calls)
     forces       :      0.65s CPU      0.66s WALL (       4 calls)
     stress       :      1.53s CPU      1.53s WALL (       4 calls)

     Called by init_run:
     wfcinit      :      0.42s CPU      0.44s WALL (       1 calls)
     potinit      :      0.05s CPU      0.05s WALL (       1 calls)

     Called by electrons:
     c_bands      :     27.79s CPU     28.27s WALL (      25 calls)
     sum_band     :      3.95s CPU      4.04s WALL (      25 calls)
     v_of_rho     :      0.13s CPU      0.14s WALL (      26 calls)
     mix_rho      :      0.02s CPU      0.02s WALL (      25 calls)

     Called by c_bands:
     init_us_2    :      0.43s CPU      0.44s WALL (    1770 calls)
     cegterg      :     25.81s CPU     26.28s WALL (     750 calls)

     Called by sum_band:

     Called by *egterg:
     h_psi        :     19.35s CPU     19.81s WALL (    2420 calls)
     g_psi        :      0.14s CPU      0.14s WALL (    1640 calls)
     cdiaghg      :      3.41s CPU      3.41s WALL (    2210 calls)

     Called by h_psi:
     h_psi:pot    :     19.27s CPU     19.71s WALL (    2420 calls)
     h_psi:calbec :      1.08s CPU      1.08s WALL (    2420 calls)
     vloc_psi     :     17.31s CPU     17.73s WALL (    2420 calls)
     add_vuspsi   :      0.89s CPU      0.89s WALL (    2420 calls)

     General routines
     calbec       :      1.43s CPU      1.43s WALL (    3020 calls)
     fft          :      0.10s CPU      0.10s WALL (     391 calls)
     fftw         :     19.45s CPU     19.44s WALL (  149990 calls)
     davcio       :      0.00s CPU      0.00s WALL (      30 calls)
 
     Parallel routines
     fft_scatter  :      5.31s CPU      5.20s WALL (  150381 calls)
 
     PWSCF        :    35.31s CPU        36.02s WALL

 
   This run was terminated on:  16:11:51  22Apr2018            

=------------------------------------------------------------------------------=
   JOB DONE.
=------------------------------------------------------------------------------=
