
     Program PWSCF v.6.1 (svn rev. 13369) starts on 22Apr2018 at 16:20:43 

     This program is part of the open-source Quantum ESPRESSO suite
     for quantum simulation of materials; please cite
         "P. Giannozzi et al., J. Phys.:Condens. Matter 21 395502 (2009);
          URL http://www.quantum-espresso.org", 
     in publications or presentations arising from this work. More details at
     http://www.quantum-espresso.org/quote

     Parallel version (MPI), running on     8 processors
     R & G space division:  proc/nbgrp/npool/nimage =       8
     Waiting for input...
     Reading input from standard input
Warning: card       &CELL ignored
Warning: card       CELL_DYNAMICS = 'BFGS' ignored
Warning: card       PRESS = 0.0D0 ignored
Warning: card       PRESS_CONV_THR = 0.01D0 ignored
Warning: card       / ignored

     Current dimensions of program PWSCF are:
     Max number of different atomic species (ntypx) = 10
     Max number of k-points (npk) =  40000
     Max angular momentum in pseudopotentials (lmaxx) =  3

     Subspace diagonalization in iterative solution of the eigenvalue problem:
     a serial algorithm will be used

 
     Parallelization info
     --------------------
     sticks:   dense  smooth     PW     G-vecs:    dense   smooth      PW
     Min         181     181     52                 5154     5154     816
     Max         182     182     53                 5155     5155     819
     Sum        1449    1449    421                41239    41239    6539
 


     bravais-lattice index     =            0
     lattice parameter (alat)  =       8.0448  a.u.
     unit-cell volume          =     520.6402 (a.u.)^3
     number of atoms/cell      =            8
     number of atomic types    =            2
     number of electrons       =        64.00
     number of Kohn-Sham states=           32
     kinetic-energy cutoff     =      70.0000  Ry
     charge density cutoff     =     280.0000  Ry
     convergence threshold     =      1.0E-08
     mixing beta               =       0.7000
     number of iterations used =            8  plain     mixing
     Exchange-correlation      = PBE ( 1  4  3  4 0 0)
     nstep                     =           50


     celldm(1)=   8.044750  celldm(2)=   0.000000  celldm(3)=   0.000000
     celldm(4)=   0.000000  celldm(5)=   0.000000  celldm(6)=   0.000000

     crystal axes: (cart. coord. in units of alat)
               a(1) = (   1.007857   0.000000   0.000000 )  
               a(2) = (   0.000000   0.992143   0.000000 )  
               a(3) = (   0.000000   0.000000   1.000062 )  

     reciprocal axes: (cart. coord. in units 2 pi/alat)
               b(1) = (  0.992204  0.000000  0.000000 )  
               b(2) = (  0.000000  1.007919  0.000000 )  
               b(3) = (  0.000000  0.000000  0.999938 )  


     PseudoPot. # 1 for Mg read from file:
     ../pseudo/Mg.pbe.UPF
     MD5 check sum: 4c04d8c6e0476e83eaecaf72fa8acc4d
     Pseudo is Norm-conserving, Zval = 10.0
     Generated using ONCVPSP code by D. R. Hamann
     Using radial grid of 1510 points,  4 beta functions with: 
                l(1) =   0
                l(2) =   0
                l(3) =   1
                l(4) =   1

     PseudoPot. # 2 for O  read from file:
     ../pseudo/O.pbe.UPF
     MD5 check sum: 3e3f909f7470e8921608ab6b1f57bbae
     Pseudo is Norm-conserving + core correction, Zval =  6.0
     Generated using ONCVPSP code by D. R. Hamann
     Using radial grid of  936 points,  5 beta functions with: 
                l(1) =   0
                l(2) =   0
                l(3) =   1
                l(4) =   1
                l(5) =   2

     atomic species   valence    mass     pseudopotential
        Mg            10.00    24.30500     Mg( 1.00)
        O              6.00    15.99940     O ( 1.00)

     No symmetry found



   Cartesian axes

     site n.     atom                  positions (alat units)
         1           Mg  tau(   1) = (   0.0000000   0.0000000   0.0000000  )
         2           Mg  tau(   2) = (   0.0000000   0.5000000   0.5000000  )
         3           Mg  tau(   3) = (   0.5000000   0.0000000   0.5000000  )
         4           Mg  tau(   4) = (   0.5000000   0.5000000   0.0000000  )
         5           O   tau(   5) = (   0.5000000   0.0000000   0.0000000  )
         6           O   tau(   6) = (   0.0000000   0.5000000   0.0000000  )
         7           O   tau(   7) = (   0.0000000   0.0000000   0.5000000  )
         8           O   tau(   8) = (   0.5000000   0.5000000   0.5000000  )

     number of k points=    36
                       cart. coord. in units 2pi/alat
        k(    1) = (   0.0000000   0.0000000   0.0000000), wk =   0.0312500
        k(    2) = (   0.0000000   0.0000000   0.2499846), wk =   0.0625000
        k(    3) = (   0.0000000   0.0000000  -0.4999691), wk =   0.0312500
        k(    4) = (   0.0000000   0.2519798   0.0000000), wk =   0.0625000
        k(    5) = (   0.0000000   0.2519798   0.2499846), wk =   0.0625000
        k(    6) = (   0.0000000   0.2519798  -0.4999691), wk =   0.0625000
        k(    7) = (   0.0000000  -0.5039596   0.0000000), wk =   0.0312500
        k(    8) = (   0.0000000  -0.5039596   0.2499846), wk =   0.0625000
        k(    9) = (   0.0000000  -0.5039596  -0.4999691), wk =   0.0312500
        k(   10) = (   0.2480511   0.0000000   0.0000000), wk =   0.0625000
        k(   11) = (   0.2480511   0.0000000   0.2499846), wk =   0.0625000
        k(   12) = (   0.2480511   0.0000000  -0.4999691), wk =   0.0625000
        k(   13) = (   0.2480511   0.2519798   0.0000000), wk =   0.0625000
        k(   14) = (   0.2480511   0.2519798   0.2499846), wk =   0.0625000
        k(   15) = (   0.2480511   0.2519798  -0.4999691), wk =   0.0625000
        k(   16) = (   0.2480511  -0.5039596   0.0000000), wk =   0.0625000
        k(   17) = (   0.2480511  -0.5039596   0.2499846), wk =   0.0625000
        k(   18) = (   0.2480511  -0.5039596  -0.4999691), wk =   0.0625000
        k(   19) = (  -0.4961021   0.0000000   0.0000000), wk =   0.0312500
        k(   20) = (  -0.4961021   0.0000000   0.2499846), wk =   0.0625000
        k(   21) = (  -0.4961021   0.0000000  -0.4999691), wk =   0.0312500
        k(   22) = (  -0.4961021   0.2519798   0.0000000), wk =   0.0625000
        k(   23) = (  -0.4961021   0.2519798   0.2499846), wk =   0.0625000
        k(   24) = (  -0.4961021   0.2519798  -0.4999691), wk =   0.0625000
        k(   25) = (  -0.4961021  -0.5039596   0.0000000), wk =   0.0312500
        k(   26) = (  -0.4961021  -0.5039596   0.2499846), wk =   0.0625000
        k(   27) = (  -0.4961021  -0.5039596  -0.4999691), wk =   0.0312500
        k(   28) = (   0.0000000  -0.2519798   0.2499846), wk =   0.0625000
        k(   29) = (  -0.2480511   0.0000000   0.2499846), wk =   0.0625000
        k(   30) = (  -0.2480511   0.2519798   0.0000000), wk =   0.0625000
        k(   31) = (  -0.2480511  -0.2519798   0.2499846), wk =   0.0625000
        k(   32) = (  -0.2480511   0.2519798  -0.2499846), wk =   0.0625000
        k(   33) = (   0.2480511  -0.2519798  -0.2499846), wk =   0.0625000
        k(   34) = (  -0.2480511   0.2519798   0.4999691), wk =   0.0625000
        k(   35) = (  -0.2480511   0.5039596   0.2499846), wk =   0.0625000
        k(   36) = (   0.4961021  -0.2519798   0.2499846), wk =   0.0625000

     Dense  grid:    41239 G-vectors     FFT dimensions: (  45,  45,  45)

     Estimated max dynamical RAM per process >      17.22MB

     Estimated total allocated dynamical RAM >     137.72MB

     Check: negative/imaginary core charge=   -0.000007    0.000000

     Initial potential from superposition of free atoms

     starting charge   63.99678, renormalised to   64.00000
     Starting wfc are   36 randomized atomic wfcs

     total cpu time spent up to now is        0.8 secs

     per-process dynamical memory:    51.6 Mb

     Self-consistent Calculation

     iteration #  1     ecut=    70.00 Ry     beta=0.70
     Davidson diagonalization with overlap
     ethr =  1.00E-02,  avg # of iterations =  2.0

     total cpu time spent up to now is        2.3 secs

     total energy              =    -607.71882330 Ry
     Harris-Foulkes estimate   =    -608.84356359 Ry
     estimated scf accuracy    <       1.56285337 Ry

     iteration #  2     ecut=    70.00 Ry     beta=0.70
     Davidson diagonalization with overlap
     ethr =  2.44E-03,  avg # of iterations =  2.9

     total cpu time spent up to now is        3.9 secs

     total energy              =    -608.10470475 Ry
     Harris-Foulkes estimate   =    -608.80254297 Ry
     estimated scf accuracy    <       1.44857591 Ry

     iteration #  3     ecut=    70.00 Ry     beta=0.70
     Davidson diagonalization with overlap
     ethr =  2.26E-03,  avg # of iterations =  2.0

     total cpu time spent up to now is        5.4 secs

     total energy              =    -608.39032914 Ry
     Harris-Foulkes estimate   =    -608.39099388 Ry
     estimated scf accuracy    <       0.00676760 Ry

     iteration #  4     ecut=    70.00 Ry     beta=0.70
     Davidson diagonalization with overlap
     ethr =  1.06E-05,  avg # of iterations =  2.0

     total cpu time spent up to now is        6.9 secs

     total energy              =    -608.39180958 Ry
     Harris-Foulkes estimate   =    -608.39185454 Ry
     estimated scf accuracy    <       0.00011152 Ry

     iteration #  5     ecut=    70.00 Ry     beta=0.70
     Davidson diagonalization with overlap
     ethr =  1.74E-07,  avg # of iterations =  1.8

     total cpu time spent up to now is        8.2 secs

     total energy              =    -608.39181744 Ry
     Harris-Foulkes estimate   =    -608.39181578 Ry
     estimated scf accuracy    <       0.00001027 Ry

     iteration #  6     ecut=    70.00 Ry     beta=0.70
     Davidson diagonalization with overlap
     ethr =  1.60E-08,  avg # of iterations =  2.0

     total cpu time spent up to now is        9.8 secs

     total energy              =    -608.39181884 Ry
     Harris-Foulkes estimate   =    -608.39181923 Ry
     estimated scf accuracy    <       0.00000082 Ry

     iteration #  7     ecut=    70.00 Ry     beta=0.70
     Davidson diagonalization with overlap
     ethr =  1.28E-09,  avg # of iterations =  2.0

     total cpu time spent up to now is       11.3 secs

     total energy              =    -608.39181889 Ry
     Harris-Foulkes estimate   =    -608.39181895 Ry
     estimated scf accuracy    <       0.00000017 Ry

     iteration #  8     ecut=    70.00 Ry     beta=0.70
     Davidson diagonalization with overlap
     ethr =  2.66E-10,  avg # of iterations =  2.0

     total cpu time spent up to now is       12.6 secs

     total energy              =    -608.39181888 Ry
     Harris-Foulkes estimate   =    -608.39181890 Ry
     estimated scf accuracy    <       0.00000005 Ry

     iteration #  9     ecut=    70.00 Ry     beta=0.70
     Davidson diagonalization with overlap
     ethr =  7.18E-11,  avg # of iterations =  2.0

     total cpu time spent up to now is       14.4 secs

     End of self-consistent calculation

          k = 0.0000 0.0000 0.0000 (  5153 PWs)   bands (ev):

   -64.8329 -64.8236 -64.8232 -64.8226 -31.6335 -31.6286 -31.6245 -31.5968
   -31.5949 -31.5930 -31.5900 -31.5880 -31.5870 -31.5706 -31.5637 -31.5584
    -9.3664  -7.9357  -7.9152  -7.8947   3.7324   3.7570   3.7848   6.3234
     6.3316   6.3719   6.3859   6.4291   6.4350   7.6523   7.6721   7.6873

          k = 0.0000 0.0000 0.2500 (  5153 PWs)   bands (ev):

   -64.8315 -64.8246 -64.8234 -64.8227 -31.6275 -31.6193 -31.6182 -31.6021
   -31.5939 -31.5913 -31.5913 -31.5907 -31.5835 -31.5765 -31.5741 -31.5652
    -9.1579  -8.1301  -7.9014  -7.8722   4.0242   4.0729   4.0937   5.8447
     5.8696   6.1308   6.2069   6.4988   6.5889   6.6587   7.4253   7.4735

          k = 0.0000 0.0000-0.5000 (  5118 PWs)   bands (ev):

   -64.8283 -64.8278 -64.8234 -64.8228 -31.6144 -31.6141 -31.6034 -31.6032
   -31.5996 -31.5995 -31.5900 -31.5899 -31.5826 -31.5824 -31.5748 -31.5745
    -8.6478  -8.6474  -7.8581  -7.8580   4.8265   4.8270   4.8669   4.8674
     5.1227   5.1230   5.9714   5.9717   6.9321   6.9324   7.0046   7.0049

          k = 0.0000 0.2520 0.0000 (  5161 PWs)   bands (ev):

   -64.8314 -64.8244 -64.8235 -64.8229 -31.6273 -31.6224 -31.6157 -31.6006
   -31.5952 -31.5932 -31.5891 -31.5877 -31.5871 -31.5751 -31.5723 -31.5702
    -9.1535  -8.1102  -7.9019  -7.8872   4.0294   4.0519   4.1076   5.8893
     5.9003   6.1203   6.1579   6.4921   6.5379   6.6413   7.4395   7.4622

          k = 0.0000 0.2520 0.2500 (  5151 PWs)   bands (ev):

   -64.8302 -64.8245 -64.8242 -64.8233 -31.6223 -31.6195 -31.6156 -31.6035
   -31.5983 -31.5973 -31.5890 -31.5844 -31.5823 -31.5814 -31.5785 -31.5642
    -8.9638  -8.0649  -8.0501  -7.9015   4.1548   4.1627   4.3107   5.0708
     5.8234   6.0458   6.0846   6.4478   6.4616   6.6096   7.1899   7.5014

          k = 0.0000 0.2520-0.5000 (  5146 PWs)   bands (ev):

   -64.8275 -64.8271 -64.8241 -64.8235 -31.6136 -31.6134 -31.6106 -31.6104
   -31.6073 -31.6072 -31.5878 -31.5875 -31.5804 -31.5803 -31.5700 -31.5698
    -8.5089  -8.5086  -7.9454  -7.9453   4.4065   4.4067   4.7311   4.7314
     5.0825   5.0830   6.5607   6.5610   6.6034   6.6038   7.0798   7.0800

          k = 0.0000-0.5040 0.0000 (  5134 PWs)   bands (ev):

   -64.8282 -64.8275 -64.8235 -64.8230 -31.6147 -31.6126 -31.6091 -31.6067
   -31.5966 -31.5937 -31.5868 -31.5866 -31.5843 -31.5832 -31.5803 -31.5787
    -8.6550  -8.6121  -7.8636  -7.8630   4.8146   4.8332   4.8821   4.9009
     5.1011   5.1295   5.9321   5.9323   6.9143   6.9505   6.9566   6.9916

          k = 0.0000-0.5040 0.2500 (  5144 PWs)   bands (ev):

   -64.8275 -64.8269 -64.8242 -64.8236 -31.6155 -31.6143 -31.6108 -31.6088
   -31.6065 -31.6051 -31.5899 -31.5882 -31.5781 -31.5776 -31.5719 -31.5717
    -8.5183  -8.4805  -7.9537  -7.9469   4.3925   4.4184   4.7100   4.7411
     5.0664   5.1317   6.5248   6.5513   6.5591   6.6049   7.0813   7.0949

          k = 0.0000-0.5040-0.5000 (  5160 PWs)   bands (ev):

   -64.8259 -64.8258 -64.8257 -64.8248 -31.6168 -31.6167 -31.6159 -31.6158
   -31.6006 -31.6004 -31.5989 -31.5986 -31.5709 -31.5707 -31.5700 -31.5699
    -8.2132  -8.2130  -8.1896  -8.1894   4.2567   4.2569   4.2688   4.2689
     5.7408   5.7413   5.7995   5.8000   7.0646   7.0648   7.0835   7.0837

          k = 0.2481 0.0000 0.0000 (  5158 PWs)   bands (ev):

   -64.8315 -64.8248 -64.8232 -64.8227 -31.6249 -31.6228 -31.6185 -31.5981
   -31.5969 -31.5956 -31.5925 -31.5867 -31.5824 -31.5821 -31.5696 -31.5647
    -9.1625  -8.1493  -7.8860  -7.8714   4.0413   4.0674   4.0806   5.8143
     5.8282   6.1809   6.2196   6.5468   6.5913   6.6729   7.4362   7.4611

          k = 0.2481 0.0000 0.2500 (  5147 PWs)   bands (ev):

   -64.8303 -64.8247 -64.8242 -64.8230 -31.6238 -31.6199 -31.6132 -31.6084
   -31.5932 -31.5895 -31.5888 -31.5884 -31.5866 -31.5847 -31.5693 -31.5682
    -8.9718  -8.0800  -8.0658  -7.8818   4.1588   4.1644   4.3459   5.0699
     5.8694   6.0268   6.0626   6.5079   6.5175   6.5601   7.1557   7.5074

          k = 0.2481 0.0000-0.5000 (  5140 PWs)   bands (ev):

   -64.8275 -64.8271 -64.8241 -64.8235 -31.6185 -31.6183 -31.6093 -31.6092
   -31.5995 -31.5993 -31.5840 -31.5839 -31.5790 -31.5787 -31.5777 -31.5775
    -8.5139  -8.5136  -7.9512  -7.9511   4.4288   4.4290   4.7684   4.7687
     5.1101   5.1106   6.5239   6.5242   6.5564   6.5568   7.1074   7.1075

          k = 0.2481 0.2520 0.0000 (  5148 PWs)   bands (ev):

   -64.8303 -64.8247 -64.8241 -64.8232 -31.6240 -31.6178 -31.6157 -31.6066
   -31.5937 -31.5920 -31.5913 -31.5887 -31.5847 -31.5813 -31.5736 -31.5655
    -8.9679  -8.0795  -8.0505  -7.8915   4.1541   4.1680   4.3265   5.0710
     5.8456   6.0175   6.0920   6.4696   6.4954   6.5869   7.1736   7.5039

          k = 0.2481 0.2520 0.2500 (  5151 PWs)   bands (ev):

   -64.8292 -64.8247 -64.8245 -64.8238 -31.6260 -31.6235 -31.6221 -31.6048
   -31.5934 -31.5925 -31.5916 -31.5855 -31.5811 -31.5788 -31.5733 -31.5659
    -8.7980  -8.0423  -8.0321  -8.0215   3.9968   3.9992   4.0030   5.0881
     5.8329   5.8445   5.8568   6.6819   6.7060   6.7271   7.3518   7.3569

          k = 0.2481 0.2520-0.5000 (  5146 PWs)   bands (ev):

   -64.8270 -64.8266 -64.8246 -64.8240 -31.6270 -31.6270 -31.6202 -31.6199
   -31.5925 -31.5923 -31.5803 -31.5800 -31.5782 -31.5782 -31.5725 -31.5722
    -8.4009  -8.4006  -7.9984  -7.9983   3.8208   3.8211   4.1970   4.1974
     5.8286   5.8289   6.7385   6.7389   6.8676   6.8686   7.0159   7.0163

          k = 0.2481-0.5040 0.0000 (  5152 PWs)   bands (ev):

   -64.8275 -64.8269 -64.8242 -64.8236 -31.6187 -31.6174 -31.6082 -31.6070
   -31.6058 -31.6038 -31.5851 -31.5834 -31.5800 -31.5795 -31.5754 -31.5749
    -8.5209  -8.4829  -7.9570  -7.9490   4.4045   4.4306   4.7293   4.7601
     5.0775   5.1430   6.5114   6.5301   6.5360   6.5787   7.0952   7.1079

          k = 0.2481-0.5040 0.2500 (  5140 PWs)   bands (ev):

   -64.8270 -64.8265 -64.8246 -64.8240 -31.6276 -31.6273 -31.6194 -31.6191
   -31.5941 -31.5939 -31.5804 -31.5795 -31.5760 -31.5759 -31.5733 -31.5727
    -8.4092  -8.3770  -8.0012  -8.0007   3.8187   3.8191   4.1692   4.2010
     5.8294   5.8306   6.7325   6.7332   6.8719   6.8861   6.9874   7.0175

          k = 0.2481-0.5040-0.5000 (  5136 PWs)   bands (ev):

   -64.8259 -64.8258 -64.8257 -64.8248 -31.6301 -31.6299 -31.6299 -31.6298
   -31.5856 -31.5854 -31.5849 -31.5847 -31.5704 -31.5702 -31.5699 -31.5697
    -8.1749  -8.1747  -8.1580  -8.1579   3.6219   3.6221   3.6379   3.6380
     6.4967   6.4970   6.5312   6.5315   7.0681   7.0682   7.0814   7.0815

          k =-0.4961 0.0000 0.0000 (  5158 PWs)   bands (ev):

   -64.8285 -64.8278 -64.8232 -64.8227 -31.6106 -31.6086 -31.6070 -31.6047
   -31.6045 -31.6024 -31.5972 -31.5970 -31.5787 -31.5775 -31.5749 -31.5736
    -8.6821  -8.6399  -7.8527  -7.8520   4.7922   4.8134   4.8577   4.8788
     5.1173   5.1406   6.0107   6.0110   6.9436   6.9806   6.9839   7.0198

          k =-0.4961 0.0000 0.2500 (  5156 PWs)   bands (ev):

   -64.8277 -64.8271 -64.8240 -64.8234 -31.6179 -31.6168 -31.6121 -31.6106
   -31.6013 -31.5993 -31.5872 -31.5863 -31.5791 -31.5776 -31.5754 -31.5751
    -8.5412  -8.5038  -7.9502  -7.9423   4.4149   4.4418   4.7606   4.7878
     5.0639   5.1272   6.5325   6.5568   6.5601   6.5986   7.0930   7.1035

          k =-0.4961 0.0000-0.5000 (  5192 PWs)   bands (ev):

   -64.8260 -64.8258 -64.8257 -64.8248 -31.6196 -31.6194 -31.6186 -31.6184
   -31.5912 -31.5909 -31.5896 -31.5893 -31.5783 -31.5782 -31.5775 -31.5774
    -8.2242  -8.2240  -8.2003  -8.2001   4.3169   4.3170   4.3271   4.3273
     5.7366   5.7371   5.7934   5.7939   7.0400   7.0402   7.0602   7.0604

          k =-0.4961 0.2520 0.0000 (  5148 PWs)   bands (ev):

   -64.8277 -64.8271 -64.8240 -64.8234 -31.6158 -31.6148 -31.6115 -31.6100
   -31.6067 -31.6049 -31.5846 -31.5837 -31.5831 -31.5817 -31.5707 -31.5703
    -8.5387  -8.5014  -7.9464  -7.9397   4.4051   4.4317   4.7423   4.7700
     5.0474   5.1108   6.5582   6.5736   6.5809   6.6194   7.0787   7.0900

          k =-0.4961 0.2520 0.2500 (  5140 PWs)   bands (ev):

   -64.8271 -64.8266 -64.8245 -64.8239 -31.6267 -31.6266 -31.6208 -31.6204
   -31.5897 -31.5894 -31.5822 -31.5819 -31.5785 -31.5784 -31.5726 -31.5716
    -8.4238  -8.3920  -7.9960  -7.9955   3.8223   3.8226   4.1949   4.2246
     5.8275   5.8287   6.7449   6.7454   6.8508   6.8620   7.0141   7.0428

          k =-0.4961 0.2520-0.5000 (  5148 PWs)   bands (ev):

   -64.8259 -64.8258 -64.8257 -64.8248 -31.6311 -31.6309 -31.6308 -31.6306
   -31.5793 -31.5791 -31.5790 -31.5788 -31.5759 -31.5756 -31.5755 -31.5755
    -8.1806  -8.1804  -8.1634  -8.1633   3.6419   3.6421   3.6574   3.6576
     6.5168   6.5171   6.5492   6.5495   7.0441   7.0443   7.0586   7.0587

          k =-0.4961-0.5040 0.0000 (  5188 PWs)   bands (ev):

   -64.8260 -64.8258 -64.8256 -64.8248 -31.6187 -31.6177 -31.6174 -31.6169
   -31.5974 -31.5958 -31.5956 -31.5940 -31.5748 -31.5742 -31.5737 -31.5732
    -8.2305  -8.2066  -8.2056  -8.1831   4.2818   4.2920   4.2936   4.3042
     5.7082   5.7652   5.7676   5.8239   7.0420   7.0620   7.0624   7.0811

          k =-0.4961-0.5040 0.2500 (  5144 PWs)   bands (ev):

   -64.8259 -64.8258 -64.8256 -64.8248 -31.6308 -31.6305 -31.6304 -31.6304
   -31.5834 -31.5829 -31.5826 -31.5821 -31.5726 -31.5724 -31.5720 -31.5718
    -8.1864  -8.1690  -8.1683  -8.1524   3.6242   3.6391   3.6403   3.6557
     6.4895   6.5227   6.5241   6.5564   7.0489   7.0633   7.0634   7.0765

          k =-0.4961-0.5040-0.5000 (  5136 PWs)   bands (ev):

   -64.8258 -64.8258 -64.8257 -64.8248 -31.6386 -31.6383 -31.6383 -31.6382
   -31.5774 -31.5772 -31.5772 -31.5771 -31.5698 -31.5695 -31.5695 -31.5694
    -8.1314  -8.1313  -8.1306  -8.1305   3.2170   3.2170   3.2173   3.2174
     7.0502   7.0503   7.0510   7.0511   7.0768   7.0769   7.0775   7.0776

          k = 0.0000-0.2520 0.2500 (  5151 PWs)   bands (ev):

   -64.8302 -64.8245 -64.8242 -64.8233 -31.6223 -31.6195 -31.6156 -31.6035
   -31.5983 -31.5973 -31.5890 -31.5844 -31.5823 -31.5814 -31.5785 -31.5642
    -8.9638  -8.0649  -8.0501  -7.9015   4.1548   4.1627   4.3107   5.0708
     5.8234   6.0458   6.0846   6.4478   6.4616   6.6096   7.1899   7.5014

          k =-0.2481 0.0000 0.2500 (  5147 PWs)   bands (ev):

   -64.8303 -64.8247 -64.8242 -64.8230 -31.6238 -31.6199 -31.6132 -31.6084
   -31.5932 -31.5895 -31.5888 -31.5884 -31.5866 -31.5847 -31.5693 -31.5682
    -8.9718  -8.0800  -8.0658  -7.8818   4.1588   4.1644   4.3459   5.0699
     5.8694   6.0268   6.0626   6.5079   6.5175   6.5601   7.1557   7.5074

          k =-0.2481 0.2520 0.0000 (  5148 PWs)   bands (ev):

   -64.8303 -64.8247 -64.8241 -64.8232 -31.6240 -31.6178 -31.6157 -31.6065
   -31.5937 -31.5919 -31.5913 -31.5886 -31.5848 -31.5813 -31.5736 -31.5656
    -8.9679  -8.0795  -8.0505  -7.8915   4.1541   4.1680   4.3265   5.0710
     5.8456   6.0175   6.0920   6.4696   6.4954   6.5869   7.1736   7.5039

          k =-0.2481-0.2520 0.2500 (  5151 PWs)   bands (ev):

   -64.8292 -64.8247 -64.8245 -64.8238 -31.6260 -31.6235 -31.6221 -31.6048
   -31.5934 -31.5925 -31.5916 -31.5855 -31.5811 -31.5788 -31.5733 -31.5659
    -8.7980  -8.0423  -8.0321  -8.0215   3.9968   3.9992   4.0030   5.0881
     5.8329   5.8445   5.8568   6.6819   6.7060   6.7271   7.3518   7.3569

          k =-0.2481 0.2520-0.2500 (  5151 PWs)   bands (ev):

   -64.8292 -64.8247 -64.8245 -64.8238 -31.6260 -31.6235 -31.6221 -31.6047
   -31.5933 -31.5925 -31.5915 -31.5855 -31.5811 -31.5788 -31.5733 -31.5659
    -8.7980  -8.0423  -8.0321  -8.0215   3.9968   3.9992   4.0030   5.0881
     5.8329   5.8445   5.8568   6.6819   6.7060   6.7271   7.3518   7.3569

          k = 0.2481-0.2520-0.2500 (  5151 PWs)   bands (ev):

   -64.8292 -64.8247 -64.8245 -64.8238 -31.6260 -31.6235 -31.6221 -31.6047
   -31.5933 -31.5925 -31.5915 -31.5855 -31.5811 -31.5788 -31.5733 -31.5659
    -8.7980  -8.0423  -8.0321  -8.0215   3.9968   3.9992   4.0030   5.0881
     5.8329   5.8445   5.8568   6.6819   6.7060   6.7271   7.3518   7.3569

          k =-0.2481 0.2520 0.5000 (  5146 PWs)   bands (ev):

   -64.8270 -64.8266 -64.8246 -64.8240 -31.6272 -31.6268 -31.6200 -31.6200
   -31.5925 -31.5922 -31.5802 -31.5801 -31.5783 -31.5781 -31.5725 -31.5723
    -8.4009  -8.4006  -7.9984  -7.9983   3.8207   3.8211   4.1971   4.1973
     5.8287   5.8289   6.7386   6.7387   6.8677   6.8684   7.0160   7.0162

          k =-0.2481 0.5040 0.2500 (  5140 PWs)   bands (ev):

   -64.8270 -64.8265 -64.8246 -64.8240 -31.6276 -31.6273 -31.6194 -31.6191
   -31.5941 -31.5939 -31.5804 -31.5795 -31.5760 -31.5759 -31.5733 -31.5727
    -8.4092  -8.3770  -8.0012  -8.0007   3.8187   3.8191   4.1692   4.2010
     5.8294   5.8306   6.7325   6.7332   6.8719   6.8861   6.9874   7.0175

          k = 0.4961-0.2520 0.2500 (  5140 PWs)   bands (ev):

   -64.8271 -64.8266 -64.8245 -64.8239 -31.6267 -31.6266 -31.6208 -31.6204
   -31.5897 -31.5894 -31.5822 -31.5819 -31.5785 -31.5784 -31.5726 -31.5716
    -8.4238  -8.3920  -7.9960  -7.9955   3.8223   3.8226   4.1949   4.2246
     5.8275   5.8287   6.7449   6.7454   6.8508   6.8620   7.0141   7.0428

     highest occupied level (ev):     7.6873

!    total energy              =    -608.39181889 Ry
     Harris-Foulkes estimate   =    -608.39181889 Ry
     estimated scf accuracy    <          3.8E-09 Ry

     The total energy is the sum of the following terms:

     one-electron contribution =    -303.70417768 Ry
     hartree contribution      =     168.14298544 Ry
     xc contribution           =     -97.84855090 Ry
     ewald contribution        =    -374.98207575 Ry

     convergence has been achieved in   9 iterations

     Forces acting on atoms (cartesian axes, Ry/au):

     atom    1 type  1   force =    -0.00390437    0.00472547   -0.00003325
     atom    2 type  1   force =    -0.00390697   -0.00467876    0.00003229
     atom    3 type  1   force =     0.00385462    0.00472820    0.00003221
     atom    4 type  1   force =     0.00376782   -0.00460108   -0.00003325
     atom    5 type  2   force =     0.00460478    0.00530955   -0.00003825
     atom    6 type  2   force =    -0.00451912   -0.00538857   -0.00003812
     atom    7 type  2   force =    -0.00451861    0.00530968    0.00003910
     atom    8 type  2   force =     0.00462186   -0.00540448    0.00003926

     Total force =     0.018584     Total SCF correction =     0.000065


     Computing stress (Cartesian axis) and pressure

          total   stress  (Ry/bohr**3)                   (kbar)     P=  -67.20
  -0.00054774   0.00000002  -0.00000000        -80.58      0.00     -0.00
   0.00000002  -0.00035870   0.00000000          0.00    -52.77      0.00
  -0.00000000   0.00000000  -0.00046403         -0.00      0.00    -68.26


     BFGS Geometry Optimization

     number of scf cycles    =   1
     number of bfgs steps    =   0

     energy   new            =    -608.3918188871 Ry

     new trust radius        =       0.0071113709 bohr
     new conv_thr            =       0.0000000100 Ry


ATOMIC_POSITIONS (alat)
Mg      -0.000485332   0.000587398  -0.000004133
Mg      -0.000485655   0.499418408   0.500004014
Mg       0.500479147   0.000587737   0.500004003
Mg       0.500468358   0.499428064  -0.000004133
O        0.500572395   0.000660002  -0.000004754
O       -0.000561748   0.499330175  -0.000004738
O       -0.000561684   0.000660018   0.500004861
O        0.500574519   0.499328197   0.500004880



     Writing output data file diamond.1.007857.70.4.save
     NEW-OLD atomic charge density approx. for the potential

     Check: negative/imaginary core charge=   -0.000007    0.000000

     total cpu time spent up to now is       15.2 secs

     per-process dynamical memory:    56.2 Mb

     Self-consistent Calculation

     iteration #  1     ecut=    70.00 Ry     beta=0.70
     Davidson diagonalization with overlap
     ethr =  1.00E-06,  avg # of iterations =  3.0

     total cpu time spent up to now is       17.6 secs

     total energy              =    -608.39208823 Ry
     Harris-Foulkes estimate   =    -608.39213580 Ry
     estimated scf accuracy    <       0.00006487 Ry

     iteration #  2     ecut=    70.00 Ry     beta=0.70
     Davidson diagonalization with overlap
     ethr =  1.01E-07,  avg # of iterations =  2.2

     total cpu time spent up to now is       19.1 secs

     total energy              =    -608.39210840 Ry
     Harris-Foulkes estimate   =    -608.39211534 Ry
     estimated scf accuracy    <       0.00001155 Ry

     iteration #  3     ecut=    70.00 Ry     beta=0.70
     Davidson diagonalization with overlap
     ethr =  1.80E-08,  avg # of iterations =  2.0

     total cpu time spent up to now is       20.5 secs

     total energy              =    -608.39211087 Ry
     Harris-Foulkes estimate   =    -608.39211085 Ry
     estimated scf accuracy    <       0.00000008 Ry

     iteration #  4     ecut=    70.00 Ry     beta=0.70
     Davidson diagonalization with overlap
     ethr =  1.22E-10,  avg # of iterations =  2.9

     total cpu time spent up to now is       22.3 secs

     total energy              =    -608.39211089 Ry
     Harris-Foulkes estimate   =    -608.39211090 Ry
     estimated scf accuracy    <       0.00000002 Ry

     iteration #  5     ecut=    70.00 Ry     beta=0.70
     Davidson diagonalization with overlap
     ethr =  2.44E-11,  avg # of iterations =  2.0

     total cpu time spent up to now is       23.8 secs

     End of self-consistent calculation

          k = 0.0000 0.0000 0.0000 (  5153 PWs)   bands (ev):

   -64.8336 -64.8242 -64.8239 -64.8232 -31.6340 -31.6291 -31.6251 -31.5973
   -31.5955 -31.5936 -31.5906 -31.5886 -31.5875 -31.5712 -31.5643 -31.5590
    -9.3657  -7.9353  -7.9147  -7.8943   3.7326   3.7577   3.7849   6.3238
     6.3316   6.3724   6.3863   6.4292   6.4353   7.6528   7.6723   7.6878

          k = 0.0000 0.0000 0.2500 (  5153 PWs)   bands (ev):

   -64.8321 -64.8253 -64.8241 -64.8234 -31.6280 -31.6198 -31.6187 -31.6027
   -31.5945 -31.5919 -31.5918 -31.5912 -31.5841 -31.5772 -31.5747 -31.5658
    -9.1573  -8.1296  -7.9010  -7.8718   4.0245   4.0730   4.0943   5.8451
     5.8699   6.1315   6.2079   6.4984   6.5887   6.6589   7.4255   7.4737

          k = 0.0000 0.0000-0.5000 (  5118 PWs)   bands (ev):

   -64.8289 -64.8284 -64.8241 -64.8235 -31.6149 -31.6146 -31.6038 -31.6035
   -31.6003 -31.6003 -31.5905 -31.5904 -31.5833 -31.5830 -31.5754 -31.5751
    -8.6471  -8.6469  -7.8577  -7.8576   4.8270   4.8274   4.8674   4.8677
     5.1227   5.1231   5.9723   5.9727   6.9320   6.9322   7.0045   7.0047

          k = 0.0000 0.2520 0.0000 (  5161 PWs)   bands (ev):

   -64.8321 -64.8251 -64.8242 -64.8236 -31.6278 -31.6229 -31.6162 -31.6012
   -31.5958 -31.5937 -31.5897 -31.5882 -31.5876 -31.5757 -31.5729 -31.5708
    -9.1528  -8.1099  -7.9015  -7.8868   4.0298   4.0527   4.1078   5.8891
     5.9005   6.1207   6.1583   6.4925   6.5381   6.6417   7.4396   7.4624

          k = 0.0000 0.2520 0.2500 (  5151 PWs)   bands (ev):

   -64.8309 -64.8252 -64.8249 -64.8240 -31.6228 -31.6201 -31.6161 -31.6040
   -31.5989 -31.5979 -31.5895 -31.5851 -31.5828 -31.5820 -31.5791 -31.5648
    -8.9631  -8.0644  -8.0498  -7.9011   4.1554   4.1630   4.3110   5.0712
     5.8237   6.0464   6.0846   6.4483   6.4616   6.6095   7.1900   7.5017

          k = 0.0000 0.2520-0.5000 (  5146 PWs)   bands (ev):

   -64.8282 -64.8277 -64.8248 -64.8242 -31.6140 -31.6139 -31.6110 -31.6107
   -31.6081 -31.6080 -31.5884 -31.5881 -31.5810 -31.5809 -31.5706 -31.5704
    -8.5082  -8.5080  -7.9451  -7.9450   4.4069   4.4070   4.7317   4.7319
     5.0827   5.0831   6.5627   6.5629   6.6019   6.6022   7.0799   7.0800

          k = 0.0000-0.5040 0.0000 (  5134 PWs)   bands (ev):

   -64.8288 -64.8283 -64.8242 -64.8236 -31.6149 -31.6135 -31.6093 -31.6077
   -31.5967 -31.5947 -31.5871 -31.5871 -31.5849 -31.5841 -31.5806 -31.5796
    -8.6474  -8.6187  -7.8631  -7.8626   4.8259   4.8447   4.8713   4.8903
     5.1058   5.1248   5.9325   5.9328   6.9215   6.9498   6.9574   6.9849

          k = 0.0000-0.5040 0.2500 (  5144 PWs)   bands (ev):

   -64.8281 -64.8276 -64.8248 -64.8243 -31.6158 -31.6150 -31.6109 -31.6095
   -31.6070 -31.6060 -31.5902 -31.5891 -31.5786 -31.5783 -31.5725 -31.5723
    -8.5116  -8.4862  -7.9522  -7.9476   4.3971   4.4147   4.7157   4.7363
     5.0769   5.1209   6.5315   6.5486   6.5648   6.5961   7.0838   7.0930

          k = 0.0000-0.5040-0.5000 (  5160 PWs)   bands (ev):

   -64.8266 -64.8264 -64.8264 -64.8255 -31.6172 -31.6171 -31.6165 -31.6165
   -31.6010 -31.6007 -31.5998 -31.5995 -31.5714 -31.5712 -31.5707 -31.5706
    -8.2088  -8.2086  -8.1930  -8.1929   4.2592   4.2593   4.2670   4.2672
     5.7505   5.7509   5.7900   5.7903   7.0681   7.0683   7.0807   7.0809

          k = 0.2481 0.0000 0.0000 (  5158 PWs)   bands (ev):

   -64.8322 -64.8255 -64.8239 -64.8233 -31.6254 -31.6233 -31.6190 -31.5987
   -31.5974 -31.5962 -31.5931 -31.5872 -31.5830 -31.5827 -31.5702 -31.5653
    -9.1618  -8.1490  -7.8856  -7.8711   4.0421   4.0676   4.0809   5.8146
     5.8280   6.1815   6.2202   6.5469   6.5917   6.6733   7.4364   7.4612

          k = 0.2481 0.0000 0.2500 (  5147 PWs)   bands (ev):

   -64.8309 -64.8253 -64.8249 -64.8237 -31.6244 -31.6204 -31.6137 -31.6089
   -31.5938 -31.5900 -31.5894 -31.5890 -31.5872 -31.5853 -31.5699 -31.5688
    -8.9711  -8.0797  -8.0653  -7.8814   4.1591   4.1651   4.3462   5.0703
     5.8697   6.0268   6.0631   6.5080   6.5190   6.5589   7.1558   7.5078

          k = 0.2481 0.0000-0.5000 (  5140 PWs)   bands (ev):

   -64.8282 -64.8277 -64.8248 -64.8242 -31.6190 -31.6188 -31.6098 -31.6097
   -31.6002 -31.5999 -31.5846 -31.5845 -31.5796 -31.5793 -31.5783 -31.5781
    -8.5132  -8.5130  -7.9509  -7.9508   4.4292   4.4294   4.7690   4.7693
     5.1102   5.1105   6.5270   6.5272   6.5538   6.5540   7.1075   7.1075

          k = 0.2481 0.2520 0.0000 (  5148 PWs)   bands (ev):

   -64.8309 -64.8253 -64.8248 -64.8239 -31.6245 -31.6184 -31.6162 -31.6071
   -31.5943 -31.5924 -31.5919 -31.5893 -31.5853 -31.5819 -31.5743 -31.5661
    -8.9671  -8.0792  -8.0502  -7.8911   4.1544   4.1682   4.3273   5.0710
     5.8462   6.0178   6.0922   6.4705   6.4962   6.5857   7.1735   7.5043

          k = 0.2481 0.2520 0.2500 (  5151 PWs)   bands (ev):

   -64.8299 -64.8253 -64.8252 -64.8245 -31.6265 -31.6240 -31.6226 -31.6052
   -31.5939 -31.5931 -31.5922 -31.5861 -31.5817 -31.5794 -31.5739 -31.5665
    -8.7973  -8.0419  -8.0316  -8.0212   3.9971   3.9997   4.0033   5.0885
     5.8332   5.8448   5.8570   6.6823   6.7059   6.7274   7.3520   7.3571

          k = 0.2481 0.2520-0.5000 (  5146 PWs)   bands (ev):

   -64.8277 -64.8273 -64.8253 -64.8246 -31.6276 -31.6274 -31.6207 -31.6204
   -31.5931 -31.5929 -31.5808 -31.5806 -31.5788 -31.5787 -31.5731 -31.5728
    -8.4002  -8.4000  -7.9981  -7.9980   3.8212   3.8213   4.1973   4.1976
     5.8290   5.8291   6.7394   6.7397   6.8678   6.8684   7.0158   7.0160

          k = 0.2481-0.5040 0.0000 (  5152 PWs)   bands (ev):

   -64.8281 -64.8276 -64.8248 -64.8243 -31.6190 -31.6181 -31.6085 -31.6077
   -31.6061 -31.6047 -31.5854 -31.5843 -31.5804 -31.5801 -31.5760 -31.5756
    -8.5141  -8.4886  -7.9553  -7.9499   4.4088   4.4265   4.7347   4.7551
     5.0888   5.1329   6.5158   6.5323   6.5383   6.5708   7.0974   7.1060

          k = 0.2481-0.5040 0.2500 (  5140 PWs)   bands (ev):

   -64.8276 -64.8272 -64.8253 -64.8247 -31.6281 -31.6279 -31.6199 -31.6196
   -31.5947 -31.5945 -31.5809 -31.5802 -31.5766 -31.5765 -31.5738 -31.5734
    -8.4034  -8.3817  -8.0007  -8.0004   3.8191   3.8193   4.1747   4.1958
     5.8300   5.8308   6.7329   6.7334   6.8744   6.8841   6.9925   7.0126

          k = 0.2481-0.5040-0.5000 (  5136 PWs)   bands (ev):

   -64.8265 -64.8264 -64.8264 -64.8255 -31.6306 -31.6304 -31.6304 -31.6303
   -31.5861 -31.5859 -31.5856 -31.5854 -31.5709 -31.5707 -31.5705 -31.5704
    -8.1716  -8.1715  -8.1603  -8.1602   3.6248   3.6249   3.6354   3.6355
     6.5027   6.5028   6.5258   6.5260   7.0707   7.0708   7.0795   7.0797

          k =-0.4961 0.0000 0.0000 (  5158 PWs)   bands (ev):

   -64.8291 -64.8285 -64.8239 -64.8234 -31.6109 -31.6094 -31.6069 -31.6053
   -31.6051 -31.6035 -31.5977 -31.5976 -31.5791 -31.5782 -31.5753 -31.5743
    -8.6757  -8.6453  -7.8521  -7.8516   4.8017   4.8226   4.8491   4.8700
     5.1207   5.1374   6.0113   6.0116   6.9493   6.9783   6.9863   7.0145

          k =-0.4961 0.0000 0.2500 (  5156 PWs)   bands (ev):

   -64.8283 -64.8278 -64.8246 -64.8241 -31.6183 -31.6175 -31.6124 -31.6113
   -31.6016 -31.6001 -31.5876 -31.5870 -31.5795 -31.5783 -31.5759 -31.5757
    -8.5355  -8.5086  -7.9487  -7.9430   4.4190   4.4386   4.7650   4.7844
     5.0724   5.1182   6.5404   6.5590   6.5591   6.5905   7.0947   7.1024

          k =-0.4961 0.0000-0.5000 (  5192 PWs)   bands (ev):

   -64.8266 -64.8264 -64.8264 -64.8255 -31.6200 -31.6198 -31.6192 -31.6191
   -31.5915 -31.5913 -31.5903 -31.5901 -31.5788 -31.5787 -31.5782 -31.5781
    -8.2204  -8.2202  -8.2032  -8.2030   4.3188   4.3190   4.3259   4.3261
     5.7445   5.7449   5.7856   5.7859   7.0432   7.0434   7.0577   7.0579

          k =-0.4961 0.2520 0.0000 (  5148 PWs)   bands (ev):

   -64.8283 -64.8278 -64.8246 -64.8241 -31.6162 -31.6154 -31.6119 -31.6107
   -31.6071 -31.6057 -31.5850 -31.5844 -31.5835 -31.5825 -31.5712 -31.5709
    -8.5329  -8.5061  -7.9451  -7.9403   4.4089   4.4283   4.7465   4.7662
     5.0568   5.1027   6.5618   6.5781   6.5801   6.6131   7.0804   7.0886

          k =-0.4961 0.2520 0.2500 (  5140 PWs)   bands (ev):

   -64.8278 -64.8273 -64.8252 -64.8246 -31.6272 -31.6271 -31.6213 -31.6209
   -31.5903 -31.5900 -31.5828 -31.5825 -31.5791 -31.5790 -31.5730 -31.5723
    -8.4188  -8.3959  -7.9955  -7.9952   3.8226   3.8228   4.1993   4.2205
     5.8281   5.8289   6.7454   6.7458   6.8524   6.8606   7.0183   7.0389

          k =-0.4961 0.2520-0.5000 (  5148 PWs)   bands (ev):

   -64.8265 -64.8264 -64.8264 -64.8255 -31.6316 -31.6314 -31.6313 -31.6312
   -31.5799 -31.5797 -31.5796 -31.5794 -31.5764 -31.5762 -31.5761 -31.5761
    -8.1777  -8.1775  -8.1653  -8.1652   3.6444   3.6445   3.6554   3.6555
     6.5216   6.5218   6.5450   6.5451   7.0466   7.0468   7.0569   7.0571

          k =-0.4961-0.5040 0.0000 (  5188 PWs)   bands (ev):

   -64.8266 -64.8265 -64.8263 -64.8255 -31.6189 -31.6183 -31.6180 -31.6176
   -31.5976 -31.5963 -31.5962 -31.5950 -31.5752 -31.5747 -31.5744 -31.5740
    -8.2226  -8.2061  -8.2055  -8.1897   4.2856   4.2927   4.2933   4.3006
     5.7262   5.7660   5.7673   5.8068   7.0485   7.0619   7.0627   7.0755

          k =-0.4961-0.5040 0.2500 (  5144 PWs)   bands (ev):

   -64.8266 -64.8265 -64.8263 -64.8255 -31.6313 -31.6311 -31.6310 -31.6309
   -31.5838 -31.5834 -31.5832 -31.5829 -31.5731 -31.5729 -31.5726 -31.5725
    -8.1805  -8.1686  -8.1682  -8.1569   3.6292   3.6399   3.6400   3.6508
     6.5001   6.5232   6.5240   6.5467   7.0536   7.0631   7.0639   7.0727

          k =-0.4961-0.5040-0.5000 (  5136 PWs)   bands (ev):

   -64.8265 -64.8265 -64.8264 -64.8255 -31.6391 -31.6388 -31.6388 -31.6387
   -31.5780 -31.5778 -31.5778 -31.5777 -31.5703 -31.5701 -31.5701 -31.5700
    -8.1307  -8.1306  -8.1303  -8.1302   3.2171   3.2172   3.2173   3.2174
     7.0508   7.0509   7.0512   7.0513   7.0773   7.0774   7.0777   7.0778

          k = 0.0000-0.2520 0.2500 (  5151 PWs)   bands (ev):

   -64.8309 -64.8252 -64.8249 -64.8240 -31.6228 -31.6201 -31.6161 -31.6040
   -31.5989 -31.5979 -31.5895 -31.5851 -31.5828 -31.5820 -31.5791 -31.5648
    -8.9631  -8.0644  -8.0498  -7.9011   4.1554   4.1630   4.3110   5.0712
     5.8237   6.0464   6.0846   6.4483   6.4616   6.6095   7.1900   7.5017

          k =-0.2481 0.0000 0.2500 (  5147 PWs)   bands (ev):

   -64.8309 -64.8253 -64.8249 -64.8237 -31.6244 -31.6204 -31.6137 -31.6089
   -31.5938 -31.5900 -31.5894 -31.5890 -31.5872 -31.5853 -31.5699 -31.5688
    -8.9711  -8.0797  -8.0653  -7.8814   4.1591   4.1651   4.3462   5.0703
     5.8697   6.0268   6.0631   6.5080   6.5190   6.5589   7.1558   7.5078

          k =-0.2481 0.2520 0.0000 (  5148 PWs)   bands (ev):

   -64.8309 -64.8253 -64.8248 -64.8239 -31.6245 -31.6184 -31.6162 -31.6071
   -31.5943 -31.5924 -31.5919 -31.5893 -31.5853 -31.5819 -31.5743 -31.5661
    -8.9671  -8.0792  -8.0502  -7.8911   4.1544   4.1682   4.3273   5.0710
     5.8462   6.0178   6.0922   6.4705   6.4962   6.5857   7.1735   7.5043

          k =-0.2481-0.2520 0.2500 (  5151 PWs)   bands (ev):

   -64.8299 -64.8253 -64.8252 -64.8245 -31.6265 -31.6240 -31.6226 -31.6052
   -31.5939 -31.5931 -31.5922 -31.5861 -31.5817 -31.5794 -31.5739 -31.5665
    -8.7973  -8.0419  -8.0316  -8.0212   3.9971   3.9997   4.0033   5.0885
     5.8332   5.8448   5.8570   6.6823   6.7059   6.7274   7.3520   7.3571

          k =-0.2481 0.2520-0.2500 (  5151 PWs)   bands (ev):

   -64.8299 -64.8253 -64.8252 -64.8245 -31.6266 -31.6240 -31.6226 -31.6052
   -31.5939 -31.5931 -31.5922 -31.5861 -31.5817 -31.5793 -31.5739 -31.5665
    -8.7973  -8.0419  -8.0316  -8.0212   3.9971   3.9997   4.0033   5.0885
     5.8332   5.8448   5.8570   6.6823   6.7059   6.7274   7.3520   7.3571

          k = 0.2481-0.2520-0.2500 (  5151 PWs)   bands (ev):

   -64.8299 -64.8253 -64.8252 -64.8245 -31.6266 -31.6240 -31.6226 -31.6052
   -31.5939 -31.5931 -31.5922 -31.5861 -31.5817 -31.5793 -31.5739 -31.5665
    -8.7973  -8.0419  -8.0316  -8.0212   3.9971   3.9997   4.0033   5.0885
     5.8332   5.8448   5.8570   6.6823   6.7059   6.7274   7.3520   7.3571

          k =-0.2481 0.2520 0.5000 (  5146 PWs)   bands (ev):

   -64.8277 -64.8273 -64.8253 -64.8246 -31.6276 -31.6274 -31.6206 -31.6205
   -31.5931 -31.5928 -31.5808 -31.5806 -31.5788 -31.5787 -31.5731 -31.5729
    -8.4002  -8.4000  -7.9981  -7.9980   3.8211   3.8213   4.1973   4.1975
     5.8290   5.8291   6.7395   6.7396   6.8680   6.8683   7.0158   7.0160

          k =-0.2481 0.5040 0.2500 (  5140 PWs)   bands (ev):

   -64.8276 -64.8272 -64.8253 -64.8247 -31.6281 -31.6279 -31.6199 -31.6196
   -31.5947 -31.5945 -31.5809 -31.5802 -31.5766 -31.5765 -31.5738 -31.5734
    -8.4034  -8.3817  -8.0007  -8.0004   3.8191   3.8193   4.1747   4.1958
     5.8300   5.8308   6.7329   6.7334   6.8744   6.8841   6.9925   7.0126

          k = 0.4961-0.2520 0.2500 (  5140 PWs)   bands (ev):

   -64.8278 -64.8273 -64.8252 -64.8246 -31.6272 -31.6271 -31.6213 -31.6209
   -31.5903 -31.5900 -31.5828 -31.5825 -31.5791 -31.5790 -31.5730 -31.5723
    -8.4188  -8.3959  -7.9955  -7.9952   3.8226   3.8228   4.1993   4.2205
     5.8281   5.8289   6.7454   6.7458   6.8524   6.8606   7.0183   7.0389

     highest occupied level (ev):     7.6878

!    total energy              =    -608.39211090 Ry
     Harris-Foulkes estimate   =    -608.39211090 Ry
     estimated scf accuracy    <          1.2E-09 Ry

     The total energy is the sum of the following terms:

     one-electron contribution =    -303.65265455 Ry
     hartree contribution      =     168.11682222 Ry
     xc contribution           =     -97.84793749 Ry
     ewald contribution        =    -375.00834107 Ry

     convergence has been achieved in   5 iterations

     Forces acting on atoms (cartesian axes, Ry/au):

     atom    1 type  1   force =    -0.00287240    0.00321116   -0.00002394
     atom    2 type  1   force =    -0.00294705   -0.00324676    0.00002376
     atom    3 type  1   force =     0.00288907    0.00330143    0.00002382
     atom    4 type  1   force =     0.00284105   -0.00320613   -0.00002453
     atom    5 type  2   force =     0.00322406    0.00349684   -0.00002615
     atom    6 type  2   force =    -0.00318659   -0.00351891   -0.00002617
     atom    7 type  2   force =    -0.00318388    0.00349184    0.00002655
     atom    8 type  2   force =     0.00323573   -0.00352948    0.00002664

     Total force =     0.012877     Total SCF correction =     0.000302


     Computing stress (Cartesian axis) and pressure

          total   stress  (Ry/bohr**3)                   (kbar)     P=  -67.46
  -0.00054995   0.00000001  -0.00000000        -80.90      0.00     -0.00
   0.00000001  -0.00036177   0.00000000          0.00    -53.22      0.00
  -0.00000000   0.00000000  -0.00046400         -0.00      0.00    -68.26


     number of scf cycles    =   2
     number of bfgs steps    =   1

     energy   old            =    -608.3918188871 Ry
     energy   new            =    -608.3921108953 Ry

     CASE: energy  _new < energy  _old

     new trust radius        =       0.0078225080 bohr
     new conv_thr            =       0.0000000029 Ry


ATOMIC_POSITIONS (alat)
Mg      -0.001068391   0.001239470  -0.000008992
Mg      -0.001083800   0.498759176   0.500008838
Mg       0.501065542   0.001258049   0.500008839
Mg       0.501044991   0.498777095  -0.000009111
O        0.501226990   0.001370197  -0.000010064
O       -0.001208713   0.498615468  -0.000010053
O       -0.001208102   0.001369202   0.500010253
O        0.501231484   0.498611343   0.500010291



     Writing output data file diamond.1.007857.70.4.save
     NEW-OLD atomic charge density approx. for the potential

     Check: negative/imaginary core charge=   -0.000007    0.000000

     total cpu time spent up to now is       24.6 secs

     per-process dynamical memory:    56.2 Mb

     Self-consistent Calculation

     iteration #  1     ecut=    70.00 Ry     beta=0.70
     Davidson diagonalization with overlap
     ethr =  1.00E-06,  avg # of iterations =  3.0

     total cpu time spent up to now is       27.0 secs

     total energy              =    -608.39228641 Ry
     Harris-Foulkes estimate   =    -608.39234537 Ry
     estimated scf accuracy    <       0.00008043 Ry

     iteration #  2     ecut=    70.00 Ry     beta=0.70
     Davidson diagonalization with overlap
     ethr =  1.26E-07,  avg # of iterations =  2.2

     total cpu time spent up to now is       28.5 secs

     total energy              =    -608.39231146 Ry
     Harris-Foulkes estimate   =    -608.39232003 Ry
     estimated scf accuracy    <       0.00001429 Ry

     iteration #  3     ecut=    70.00 Ry     beta=0.70
     Davidson diagonalization with overlap
     ethr =  2.23E-08,  avg # of iterations =  2.0

     total cpu time spent up to now is       30.0 secs

     total energy              =    -608.39231451 Ry
     Harris-Foulkes estimate   =    -608.39231447 Ry
     estimated scf accuracy    <       0.00000009 Ry

     iteration #  4     ecut=    70.00 Ry     beta=0.70
     Davidson diagonalization with overlap
     ethr =  1.45E-10,  avg # of iterations =  2.8

     total cpu time spent up to now is       31.7 secs

     total energy              =    -608.39231454 Ry
     Harris-Foulkes estimate   =    -608.39231454 Ry
     estimated scf accuracy    <          9.9E-09 Ry

     iteration #  5     ecut=    70.00 Ry     beta=0.70
     Davidson diagonalization with overlap
     ethr =  1.55E-11,  avg # of iterations =  2.0

     total cpu time spent up to now is       33.2 secs

     End of self-consistent calculation

          k = 0.0000 0.0000 0.0000 (  5153 PWs)   bands (ev):

   -64.8338 -64.8244 -64.8241 -64.8235 -31.6341 -31.6293 -31.6252 -31.5975
   -31.5956 -31.5938 -31.5908 -31.5887 -31.5877 -31.5713 -31.5645 -31.5591
    -9.3654  -7.9351  -7.9144  -7.8942   3.7327   3.7581   3.7849   6.3239
     6.3316   6.3726   6.3865   6.4292   6.4355   7.6531   7.6723   7.6881

          k = 0.0000 0.0000 0.2500 (  5153 PWs)   bands (ev):

   -64.8323 -64.8255 -64.8243 -64.8236 -31.6282 -31.6199 -31.6188 -31.6029
   -31.5946 -31.5922 -31.5920 -31.5914 -31.5843 -31.5774 -31.5749 -31.5660
    -9.1569  -8.1293  -7.9008  -7.8716   4.0246   4.0731   4.0947   5.8453
     5.8701   6.1320   6.2085   6.4981   6.5885   6.6590   7.4256   7.4738

          k = 0.0000 0.0000-0.5000 (  5118 PWs)   bands (ev):

   -64.8291 -64.8287 -64.8243 -64.8237 -31.6150 -31.6148 -31.6038 -31.6035
   -31.6007 -31.6007 -31.5906 -31.5906 -31.5835 -31.5832 -31.5756 -31.5753
    -8.6468  -8.6466  -7.8576  -7.8574   4.8273   4.8275   4.8677   4.8679
     5.1227   5.1230   5.9729   5.9733   6.9319   6.9320   7.0044   7.0045

          k = 0.0000 0.2520 0.0000 (  5161 PWs)   bands (ev):

   -64.8323 -64.8253 -64.8244 -64.8238 -31.6279 -31.6231 -31.6163 -31.6014
   -31.5960 -31.5938 -31.5899 -31.5884 -31.5878 -31.5759 -31.5731 -31.5710
    -9.1524  -8.1098  -7.9013  -7.8865   4.0299   4.0532   4.1079   5.8890
     5.9006   6.1210   6.1586   6.4928   6.5381   6.6418   7.4395   7.4624

          k = 0.0000 0.2520 0.2500 (  5151 PWs)   bands (ev):

   -64.8311 -64.8254 -64.8251 -64.8242 -31.6230 -31.6202 -31.6162 -31.6042
   -31.5990 -31.5981 -31.5896 -31.5854 -31.5829 -31.5823 -31.5793 -31.5650
    -8.9627  -8.0641  -8.0497  -7.9009   4.1558   4.1631   4.3112   5.0714
     5.8239   6.0467   6.0846   6.4485   6.4615   6.6094   7.1900   7.5019

          k = 0.0000 0.2520-0.5000 (  5146 PWs)   bands (ev):

   -64.8284 -64.8280 -64.8250 -64.8244 -31.6141 -31.6140 -31.6109 -31.6106
   -31.6085 -31.6084 -31.5885 -31.5883 -31.5812 -31.5811 -31.5708 -31.5706
    -8.5079  -8.5077  -7.9449  -7.9448   4.4071   4.4072   4.7321   4.7323
     5.0828   5.0830   6.5642   6.5645   6.6007   6.6008   7.0799   7.0800

          k = 0.0000-0.5040 0.0000 (  5134 PWs)   bands (ev):

   -64.8290 -64.8285 -64.8244 -64.8239 -31.6147 -31.6139 -31.6091 -31.6082
   -31.5964 -31.5954 -31.5871 -31.5870 -31.5851 -31.5846 -31.5806 -31.5800
    -8.6395  -8.6260  -7.8628  -7.8625   4.8380   4.8570   4.8595   4.8785
     5.1109   5.1196   5.9328   5.9331   6.9292   6.9423   6.9647   6.9775

          k = 0.0000-0.5040 0.2500 (  5144 PWs)   bands (ev):

   -64.8283 -64.8279 -64.8250 -64.8245 -31.6158 -31.6153 -31.6105 -31.6098
   -31.6071 -31.6066 -31.5901 -31.5895 -31.5787 -31.5785 -31.5727 -31.5725
    -8.5046  -8.4927  -7.9507  -7.9486   4.4020   4.4104   4.7216   4.7309
     5.0883   5.1091   6.5376   6.5454   6.5718   6.5867   7.0864   7.0908

          k = 0.0000-0.5040-0.5000 (  5160 PWs)   bands (ev):

   -64.8267 -64.8266 -64.8266 -64.8257 -31.6172 -31.6170 -31.6168 -31.6167
   -31.6009 -31.6007 -31.6003 -31.6000 -31.5714 -31.5712 -31.5710 -31.5709
    -8.2043  -8.2042  -8.1969  -8.1968   4.2616   4.2618   4.2650   4.2651
     5.7610   5.7612   5.7796   5.7797   7.0717   7.0719   7.0775   7.0777

          k = 0.2481 0.0000 0.0000 (  5158 PWs)   bands (ev):

   -64.8324 -64.8257 -64.8241 -64.8236 -31.6255 -31.6235 -31.6191 -31.5989
   -31.5976 -31.5964 -31.5933 -31.5874 -31.5832 -31.5828 -31.5704 -31.5655
    -9.1614  -8.1489  -7.8853  -7.8709   4.0426   4.0678   4.0810   5.8146
     5.8279   6.1817   6.2205   6.5468   6.5919   6.6735   7.4364   7.4612

          k = 0.2481 0.0000 0.2500 (  5147 PWs)   bands (ev):

   -64.8311 -64.8255 -64.8251 -64.8239 -31.6245 -31.6206 -31.6138 -31.6091
   -31.5940 -31.5901 -31.5897 -31.5891 -31.5873 -31.5856 -31.5700 -31.5690
    -8.9707  -8.0796  -8.0650  -7.8812   4.1592   4.1654   4.3464   5.0705
     5.8699   6.0267   6.0634   6.5079   6.5202   6.5579   7.1557   7.5079

          k = 0.2481 0.0000-0.5000 (  5140 PWs)   bands (ev):

   -64.8284 -64.8280 -64.8250 -64.8244 -31.6192 -31.6190 -31.6099 -31.6098
   -31.6004 -31.6001 -31.5847 -31.5847 -31.5798 -31.5795 -31.5785 -31.5783
    -8.5128  -8.5127  -7.9507  -7.9506   4.4295   4.4295   4.7694   4.7696
     5.1103   5.1104   6.5293   6.5295   6.5517   6.5519   7.1075   7.1075

          k = 0.2481 0.2520 0.0000 (  5148 PWs)   bands (ev):

   -64.8311 -64.8256 -64.8250 -64.8241 -31.6246 -31.6185 -31.6163 -31.6073
   -31.5945 -31.5925 -31.5920 -31.5896 -31.5855 -31.5821 -31.5745 -31.5663
    -8.9667  -8.0790  -8.0500  -7.8908   4.1545   4.1684   4.3279   5.0709
     5.8465   6.0180   6.0924   6.4709   6.4967   6.5848   7.1734   7.5046

          k = 0.2481 0.2520 0.2500 (  5151 PWs)   bands (ev):

   -64.8301 -64.8255 -64.8254 -64.8247 -31.6267 -31.6242 -31.6227 -31.6053
   -31.5941 -31.5933 -31.5924 -31.5862 -31.5819 -31.5795 -31.5741 -31.5667
    -8.7968  -8.0418  -8.0313  -8.0211   3.9972   3.9999   4.0035   5.0887
     5.8332   5.8450   5.8570   6.6824   6.7058   6.7275   7.3521   7.3572

          k = 0.2481 0.2520-0.5000 (  5146 PWs)   bands (ev):

   -64.8279 -64.8275 -64.8255 -64.8249 -31.6277 -31.6275 -31.6207 -31.6206
   -31.5933 -31.5930 -31.5810 -31.5808 -31.5790 -31.5789 -31.5733 -31.5730
    -8.3998  -8.3997  -7.9979  -7.9978   3.8214   3.8214   4.1974   4.1976
     5.8291   5.8292   6.7400   6.7402   6.8680   6.8682   7.0157   7.0158

          k = 0.2481-0.5040 0.0000 (  5152 PWs)   bands (ev):

   -64.8283 -64.8279 -64.8250 -64.8245 -31.6189 -31.6184 -31.6085 -31.6080
   -31.6059 -31.6052 -31.5854 -31.5847 -31.5805 -31.5803 -31.5761 -31.5759
    -8.5070  -8.4951  -7.9536  -7.9511   4.4135   4.4220   4.7403   4.7496
     5.1008   5.1216   6.5204   6.5281   6.5470   6.5621   7.0997   7.1038

          k = 0.2481-0.5040 0.2500 (  5140 PWs)   bands (ev):

   -64.8278 -64.8274 -64.8255 -64.8249 -31.6282 -31.6280 -31.6199 -31.6198
   -31.5949 -31.5947 -31.5809 -31.5805 -31.5768 -31.5767 -31.5739 -31.5737
    -8.3973  -8.3872  -8.0004  -8.0002   3.8193   3.8194   4.1806   4.1902
     5.8304   5.8308   6.7332   6.7334   6.8769   6.8817   6.9979   7.0073

          k = 0.2481-0.5040-0.5000 (  5136 PWs)   bands (ev):

   -64.8267 -64.8266 -64.8266 -64.8257 -31.6308 -31.6305 -31.6305 -31.6305
   -31.5862 -31.5860 -31.5859 -31.5857 -31.5710 -31.5708 -31.5707 -31.5706
    -8.1683  -8.1682  -8.1630  -8.1629   3.6278   3.6279   3.6326   3.6326
     6.5089   6.5091   6.5198   6.5199   7.0733   7.0734   7.0773   7.0775

          k =-0.4961 0.0000 0.0000 (  5158 PWs)   bands (ev):

   -64.8293 -64.8288 -64.8241 -64.8236 -31.6108 -31.6099 -31.6063 -31.6055
   -31.6053 -31.6044 -31.5978 -31.5977 -31.5792 -31.5786 -31.5753 -31.5747
    -8.6686  -8.6518  -7.8518  -7.8515   4.8126   4.8332   4.8389   4.8595
     5.1246   5.1335   6.0116   6.0119   6.9558   6.9717   6.9928   7.0082

          k =-0.4961 0.0000 0.2500 (  5156 PWs)   bands (ev):

   -64.8285 -64.8281 -64.8248 -64.8243 -31.6183 -31.6178 -31.6123 -31.6116
   -31.6016 -31.6006 -31.5877 -31.5873 -31.5794 -31.5787 -31.5761 -31.5759
    -8.5292  -8.5143  -7.9471  -7.9440   4.4236   4.4346   4.7698   4.7801
     5.0824   5.1078   6.5475   6.5569   6.5634   6.5815   7.0966   7.1009

          k =-0.4961 0.0000-0.5000 (  5192 PWs)   bands (ev):

   -64.8267 -64.8266 -64.8266 -64.8257 -31.6199 -31.6198 -31.6194 -31.6193
   -31.5915 -31.5912 -31.5908 -31.5905 -31.5789 -31.5788 -31.5785 -31.5784
    -8.2162  -8.2161  -8.2068  -8.2066   4.3208   4.3210   4.3244   4.3245
     5.7537   5.7539   5.7764   5.7766   7.0468   7.0470   7.0546   7.0548

          k =-0.4961 0.2520 0.0000 (  5148 PWs)   bands (ev):

   -64.8285 -64.8281 -64.8248 -64.8243 -31.6162 -31.6157 -31.6118 -31.6111
   -31.6070 -31.6061 -31.5851 -31.5847 -31.5835 -31.5829 -31.5713 -31.5711
    -8.5266  -8.5118  -7.9439  -7.9412   4.4132   4.4241   4.7512   4.7617
     5.0673   5.0928   6.5657   6.5747   6.5875   6.6057   7.0822   7.0868

          k =-0.4961 0.2520 0.2500 (  5140 PWs)   bands (ev):

   -64.8280 -64.8276 -64.8254 -64.8248 -31.6274 -31.6273 -31.6214 -31.6211
   -31.5904 -31.5902 -31.5829 -31.5827 -31.5793 -31.5792 -31.5731 -31.5726
    -8.4133  -8.4007  -7.9952  -7.9950   3.8228   3.8230   4.2043   4.2156
     5.8285   5.8290   6.7457   6.7460   6.8542   6.8589   7.0230   7.0343

          k =-0.4961 0.2520-0.5000 (  5148 PWs)   bands (ev):

   -64.8267 -64.8266 -64.8266 -64.8257 -31.6317 -31.6315 -31.6315 -31.6314
   -31.5800 -31.5798 -31.5797 -31.5796 -31.5766 -31.5764 -31.5763 -31.5763
    -8.1746  -8.1745  -8.1678  -8.1677   3.6470   3.6471   3.6529   3.6530
     6.5270   6.5271   6.5399   6.5400   7.0492   7.0493   7.0548   7.0549

          k =-0.4961-0.5040 0.0000 (  5188 PWs)   bands (ev):

   -64.8267 -64.8267 -64.8266 -64.8257 -31.6187 -31.6184 -31.6182 -31.6179
   -31.5972 -31.5965 -31.5964 -31.5957 -31.5751 -31.5749 -31.5746 -31.5744
    -8.2142  -8.2065  -8.2049  -8.1974   4.2896   4.2929   4.2932   4.2966
     5.7461   5.7648   5.7688   5.7874   7.0555   7.0616   7.0631   7.0690

          k =-0.4961-0.5040 0.2500 (  5144 PWs)   bands (ev):

   -64.8267 -64.8267 -64.8266 -64.8257 -31.6314 -31.6312 -31.6311 -31.6311
   -31.5838 -31.5836 -31.5835 -31.5832 -31.5732 -31.5730 -31.5729 -31.5728
    -8.1743  -8.1688  -8.1676  -8.1623   3.6347   3.6396   3.6404   3.6453
     6.5118   6.5226   6.5249   6.5356   7.0587   7.0629   7.0641   7.0682

          k =-0.4961-0.5040-0.5000 (  5136 PWs)   bands (ev):

   -64.8267 -64.8267 -64.8266 -64.8257 -31.6392 -31.6390 -31.6389 -31.6389
   -31.5782 -31.5780 -31.5780 -31.5779 -31.5705 -31.5703 -31.5703 -31.5702
    -8.1303  -8.1302  -8.1302  -8.1301   3.2172   3.2173   3.2173   3.2173
     7.0511   7.0512   7.0513   7.0514   7.0776   7.0777   7.0778   7.0779

          k = 0.0000-0.2520 0.2500 (  5151 PWs)   bands (ev):

   -64.8311 -64.8254 -64.8251 -64.8242 -31.6230 -31.6202 -31.6162 -31.6042
   -31.5990 -31.5981 -31.5896 -31.5854 -31.5829 -31.5823 -31.5793 -31.5650
    -8.9627  -8.0641  -8.0497  -7.9009   4.1558   4.1631   4.3112   5.0714
     5.8239   6.0467   6.0846   6.4485   6.4615   6.6094   7.1900   7.5019

          k =-0.2481 0.0000 0.2500 (  5147 PWs)   bands (ev):

   -64.8311 -64.8255 -64.8251 -64.8239 -31.6245 -31.6206 -31.6138 -31.6091
   -31.5940 -31.5901 -31.5897 -31.5891 -31.5873 -31.5856 -31.5700 -31.5690
    -8.9707  -8.0796  -8.0650  -7.8812   4.1592   4.1654   4.3464   5.0705
     5.8699   6.0267   6.0634   6.5079   6.5202   6.5579   7.1557   7.5079

          k =-0.2481 0.2520 0.0000 (  5148 PWs)   bands (ev):

   -64.8311 -64.8256 -64.8250 -64.8241 -31.6246 -31.6185 -31.6163 -31.6072
   -31.5945 -31.5924 -31.5920 -31.5895 -31.5855 -31.5821 -31.5745 -31.5663
    -8.9667  -8.0790  -8.0500  -7.8908   4.1545   4.1684   4.3279   5.0709
     5.8465   6.0180   6.0924   6.4709   6.4967   6.5848   7.1734   7.5046

          k =-0.2481-0.2520 0.2500 (  5151 PWs)   bands (ev):

   -64.8301 -64.8255 -64.8254 -64.8247 -31.6267 -31.6242 -31.6227 -31.6053
   -31.5941 -31.5933 -31.5924 -31.5862 -31.5819 -31.5795 -31.5741 -31.5667
    -8.7968  -8.0418  -8.0313  -8.0211   3.9972   3.9999   4.0035   5.0887
     5.8332   5.8450   5.8570   6.6824   6.7058   6.7275   7.3521   7.3572

          k =-0.2481 0.2520-0.2500 (  5151 PWs)   bands (ev):

   -64.8301 -64.8255 -64.8254 -64.8247 -31.6267 -31.6242 -31.6227 -31.6053
   -31.5941 -31.5933 -31.5924 -31.5863 -31.5819 -31.5795 -31.5741 -31.5667
    -8.7968  -8.0418  -8.0313  -8.0211   3.9972   3.9999   4.0035   5.0887
     5.8332   5.8450   5.8570   6.6824   6.7058   6.7275   7.3521   7.3572

          k = 0.2481-0.2520-0.2500 (  5151 PWs)   bands (ev):

   -64.8301 -64.8255 -64.8254 -64.8247 -31.6267 -31.6242 -31.6227 -31.6053
   -31.5941 -31.5933 -31.5924 -31.5863 -31.5819 -31.5795 -31.5741 -31.5667
    -8.7968  -8.0418  -8.0313  -8.0211   3.9972   3.9999   4.0035   5.0887
     5.8332   5.8450   5.8570   6.6824   6.7058   6.7275   7.3521   7.3572

          k =-0.2481 0.2520 0.5000 (  5146 PWs)   bands (ev):

   -64.8279 -64.8275 -64.8255 -64.8249 -31.6277 -31.6275 -31.6207 -31.6206
   -31.5933 -31.5930 -31.5810 -31.5808 -31.5790 -31.5789 -31.5733 -31.5731
    -8.3998  -8.3997  -7.9979  -7.9978   3.8213   3.8214   4.1975   4.1976
     5.8291   5.8292   6.7400   6.7402   6.8681   6.8681   7.0157   7.0158

          k =-0.2481 0.5040 0.2500 (  5140 PWs)   bands (ev):

   -64.8278 -64.8274 -64.8255 -64.8249 -31.6282 -31.6280 -31.6199 -31.6198
   -31.5949 -31.5947 -31.5809 -31.5805 -31.5768 -31.5767 -31.5739 -31.5737
    -8.3973  -8.3872  -8.0004  -8.0002   3.8193   3.8194   4.1806   4.1902
     5.8304   5.8308   6.7332   6.7334   6.8769   6.8817   6.9979   7.0073

          k = 0.4961-0.2520 0.2500 (  5140 PWs)   bands (ev):

   -64.8280 -64.8276 -64.8254 -64.8248 -31.6274 -31.6273 -31.6214 -31.6211
   -31.5904 -31.5902 -31.5829 -31.5827 -31.5793 -31.5792 -31.5731 -31.5726
    -8.4133  -8.4007  -7.9952  -7.9950   3.8228   3.8230   4.2043   4.2156
     5.8285   5.8290   6.7457   6.7460   6.8542   6.8589   7.0230   7.0343

     highest occupied level (ev):     7.6881

!    total energy              =    -608.39231454 Ry
     Harris-Foulkes estimate   =    -608.39231454 Ry
     estimated scf accuracy    <          1.1E-09 Ry

     The total energy is the sum of the following terms:

     one-electron contribution =    -303.61512414 Ry
     hartree contribution      =     168.09777353 Ry
     xc contribution           =     -97.84751225 Ry
     ewald contribution        =    -375.02745167 Ry

     convergence has been achieved in   5 iterations

     Forces acting on atoms (cartesian axes, Ry/au):

     atom    1 type  1   force =    -0.00162662    0.00152879   -0.00001262
     atom    2 type  1   force =    -0.00176661   -0.00163405    0.00001328
     atom    3 type  1   force =     0.00171091    0.00168581    0.00001331
     atom    4 type  1   force =     0.00169639   -0.00162536   -0.00001373
     atom    5 type  2   force =     0.00166034    0.00155929   -0.00001276
     atom    6 type  2   force =    -0.00167076   -0.00153609   -0.00001278
     atom    7 type  2   force =    -0.00166537    0.00155306    0.00001266
     atom    8 type  2   force =     0.00166173   -0.00153145    0.00001264

     Total force =     0.006534     Total SCF correction =     0.000337


     Computing stress (Cartesian axis) and pressure

          total   stress  (Ry/bohr**3)                   (kbar)     P=  -67.69
  -0.00055200   0.00000001  -0.00000000        -81.20      0.00     -0.00
   0.00000001  -0.00036412   0.00000000          0.00    -53.56      0.00
  -0.00000000   0.00000000  -0.00046428         -0.00      0.00    -68.30


     number of scf cycles    =   3
     number of bfgs steps    =   2

     energy   old            =    -608.3921108953 Ry
     energy   new            =    -608.3923145398 Ry

     CASE: energy  _new < energy  _old

     new trust radius        =       0.0077276773 bohr
     new conv_thr            =       0.0000000018 Ry


ATOMIC_POSITIONS (alat)
Mg      -0.001710672   0.001885409  -0.000014111
Mg      -0.001767132   0.498084080   0.500014107
Mg       0.501730216   0.001950549   0.500014119
Mg       0.501702070   0.498107527  -0.000014556
O        0.501906762   0.002047397  -0.000015402
O       -0.001887990   0.497942210  -0.000015396
O       -0.001885811   0.002044444   0.500015599
O        0.501912558   0.497938384   0.500015640



     Writing output data file diamond.1.007857.70.4.save
     NEW-OLD atomic charge density approx. for the potential

     Check: negative/imaginary core charge=   -0.000007    0.000000

     total cpu time spent up to now is       34.0 secs

     per-process dynamical memory:    56.2 Mb

     Self-consistent Calculation

     iteration #  1     ecut=    70.00 Ry     beta=0.70
     Davidson diagonalization with overlap
     ethr =  1.00E-06,  avg # of iterations =  3.0

     total cpu time spent up to now is       36.4 secs

     total energy              =    -608.39235745 Ry
     Harris-Foulkes estimate   =    -608.39241690 Ry
     estimated scf accuracy    <       0.00008117 Ry

     iteration #  2     ecut=    70.00 Ry     beta=0.70
     Davidson diagonalization with overlap
     ethr =  1.27E-07,  avg # of iterations =  2.2

     total cpu time spent up to now is       37.9 secs

     total energy              =    -608.39238276 Ry
     Harris-Foulkes estimate   =    -608.39239143 Ry
     estimated scf accuracy    <       0.00001449 Ry

     iteration #  3     ecut=    70.00 Ry     beta=0.70
     Davidson diagonalization with overlap
     ethr =  2.26E-08,  avg # of iterations =  2.0

     total cpu time spent up to now is       39.3 secs

     total energy              =    -608.39238586 Ry
     Harris-Foulkes estimate   =    -608.39238582 Ry
     estimated scf accuracy    <       0.00000009 Ry

     iteration #  4     ecut=    70.00 Ry     beta=0.70
     Davidson diagonalization with overlap
     ethr =  1.48E-10,  avg # of iterations =  2.6

     total cpu time spent up to now is       41.0 secs

     total energy              =    -608.39238589 Ry
     Harris-Foulkes estimate   =    -608.39238589 Ry
     estimated scf accuracy    <          6.4E-09 Ry

     iteration #  5     ecut=    70.00 Ry     beta=0.70
     Davidson diagonalization with overlap
     ethr =  1.01E-11,  avg # of iterations =  2.0

     total cpu time spent up to now is       42.7 secs

     End of self-consistent calculation

          k = 0.0000 0.0000 0.0000 (  5153 PWs)   bands (ev):

   -64.8338 -64.8245 -64.8242 -64.8236 -31.6342 -31.6293 -31.6253 -31.5975
   -31.5957 -31.5939 -31.5909 -31.5888 -31.5877 -31.5714 -31.5646 -31.5592
    -9.3652  -7.9350  -7.9143  -7.8941   3.7327   3.7583   3.7850   6.3240
     6.3316   6.3727   6.3866   6.4292   6.4356   7.6532   7.6724   7.6882

          k = 0.0000 0.0000 0.2500 (  5153 PWs)   bands (ev):

   -64.8324 -64.8256 -64.8244 -64.8237 -31.6282 -31.6200 -31.6188 -31.6029
   -31.5946 -31.5923 -31.5920 -31.5914 -31.5844 -31.5775 -31.5750 -31.5661
    -9.1568  -8.1292  -7.9008  -7.8715   4.0246   4.0732   4.0948   5.8453
     5.8702   6.1322   6.2087   6.4980   6.5884   6.6591   7.4256   7.4739

          k = 0.0000 0.0000-0.5000 (  5118 PWs)   bands (ev):

   -64.8292 -64.8288 -64.8243 -64.8238 -31.6151 -31.6148 -31.6037 -31.6035
   -31.6009 -31.6008 -31.5906 -31.5906 -31.5836 -31.5833 -31.5757 -31.5754
    -8.6466  -8.6465  -7.8575  -7.8574   4.8275   4.8275   4.8679   4.8679
     5.1227   5.1230   5.9731   5.9735   6.9319   6.9319   7.0044   7.0044

          k = 0.0000 0.2520 0.0000 (  5161 PWs)   bands (ev):

   -64.8324 -64.8254 -64.8245 -64.8239 -31.6280 -31.6231 -31.6164 -31.6015
   -31.5960 -31.5938 -31.5900 -31.5885 -31.5878 -31.5760 -31.5731 -31.5711
    -9.1522  -8.1097  -7.9012  -7.8864   4.0300   4.0534   4.1080   5.8889
     5.9006   6.1211   6.1587   6.4928   6.5381   6.6419   7.4395   7.4625

          k = 0.0000 0.2520 0.2500 (  5151 PWs)   bands (ev):

   -64.8312 -64.8255 -64.8251 -64.8243 -31.6230 -31.6202 -31.6163 -31.6042
   -31.5991 -31.5981 -31.5897 -31.5855 -31.5829 -31.5824 -31.5794 -31.5650
    -8.9626  -8.0640  -8.0496  -7.9009   4.1559   4.1632   4.3112   5.0715
     5.8239   6.0468   6.0846   6.4485   6.4615   6.6094   7.1900   7.5019

          k = 0.0000 0.2520-0.5000 (  5146 PWs)   bands (ev):

   -64.8285 -64.8281 -64.8250 -64.8245 -31.6142 -31.6140 -31.6108 -31.6105
   -31.6087 -31.6087 -31.5886 -31.5883 -31.5812 -31.5811 -31.5709 -31.5707
    -8.5077  -8.5076  -7.9448  -7.9448   4.4072   4.4073   4.7322   4.7324
     5.0828   5.0828   6.5649   6.5651   6.6002   6.6002   7.0799   7.0800

          k = 0.0000-0.5040 0.0000 (  5134 PWs)   bands (ev):

   -64.8290 -64.8286 -64.8244 -64.8240 -31.6145 -31.6142 -31.6088 -31.6086
   -31.5960 -31.5959 -31.5870 -31.5870 -31.5851 -31.5849 -31.5805 -31.5803
    -8.6333  -8.6320  -7.8626  -7.8625   4.8479   4.8496   4.8670   4.8688
     5.1147   5.1158   5.9329   5.9332   6.9351   6.9365   6.9704   6.9718

          k = 0.0000-0.5040 0.2500 (  5144 PWs)   bands (ev):

   -64.8284 -64.8280 -64.8251 -64.8246 -31.6157 -31.6156 -31.6102 -31.6100
   -31.6070 -31.6070 -31.5900 -31.5898 -31.5787 -31.5787 -31.5727 -31.5726
    -8.4991  -8.4980  -7.9496  -7.9494   4.4061   4.4065   4.7257   4.7271
     5.0978   5.0994   6.5417   6.5425   6.5780   6.5794   7.0885   7.0888

          k = 0.0000-0.5040-0.5000 (  5160 PWs)   bands (ev):

   -64.8268 -64.8267 -64.8267 -64.8258 -31.6172 -31.6170 -31.6169 -31.6169
   -31.6008 -31.6006 -31.6005 -31.6003 -31.5714 -31.5712 -31.5711 -31.5711
    -8.2008  -8.2007  -8.2001  -8.2001   4.2630   4.2631   4.2638   4.2640
     5.7695   5.7696   5.7711   5.7712   7.0743   7.0745   7.0751   7.0753

          k = 0.2481 0.0000 0.0000 (  5158 PWs)   bands (ev):

   -64.8325 -64.8258 -64.8242 -64.8237 -31.6256 -31.6235 -31.6191 -31.5990
   -31.5976 -31.5964 -31.5933 -31.5875 -31.5833 -31.5829 -31.5705 -31.5655
    -9.1612  -8.1488  -7.8852  -7.8708   4.0428   4.0678   4.0810   5.8147
     5.8278   6.1818   6.2206   6.5469   6.5920   6.6736   7.4365   7.4612

          k = 0.2481 0.0000 0.2500 (  5147 PWs)   bands (ev):

   -64.8312 -64.8256 -64.8252 -64.8240 -31.6245 -31.6206 -31.6138 -31.6092
   -31.5940 -31.5900 -31.5899 -31.5892 -31.5874 -31.5857 -31.5701 -31.5691
    -8.9706  -8.0795  -8.0649  -7.8812   4.1593   4.1656   4.3465   5.0706
     5.8699   6.0267   6.0635   6.5079   6.5207   6.5575   7.1557   7.5080

          k = 0.2481 0.0000-0.5000 (  5140 PWs)   bands (ev):

   -64.8285 -64.8281 -64.8250 -64.8245 -31.6192 -31.6190 -31.6100 -31.6099
   -31.6004 -31.6002 -31.5848 -31.5847 -31.5799 -31.5796 -31.5785 -31.5784
    -8.5127  -8.5126  -7.9506  -7.9506   4.4295   4.4296   4.7695   4.7697
     5.1104   5.1104   6.5300   6.5302   6.5512   6.5512   7.1075   7.1075

          k = 0.2481 0.2520 0.0000 (  5148 PWs)   bands (ev):

   -64.8312 -64.8256 -64.8251 -64.8242 -31.6247 -31.6186 -31.6164 -31.6073
   -31.5946 -31.5925 -31.5921 -31.5896 -31.5856 -31.5822 -31.5746 -31.5664
    -8.9665  -8.0789  -8.0499  -7.8907   4.1546   4.1685   4.3281   5.0709
     5.8466   6.0180   6.0925   6.4711   6.4969   6.5845   7.1734   7.5047

          k = 0.2481 0.2520 0.2500 (  5151 PWs)   bands (ev):

   -64.8302 -64.8256 -64.8254 -64.8248 -31.6267 -31.6242 -31.6227 -31.6053
   -31.5942 -31.5934 -31.5925 -31.5863 -31.5819 -31.5796 -31.5742 -31.5667
    -8.7967  -8.0417  -8.0312  -8.0210   3.9973   4.0000   4.0035   5.0888
     5.8333   5.8451   5.8571   6.6825   6.7058   6.7276   7.3522   7.3573

          k = 0.2481 0.2520-0.5000 (  5146 PWs)   bands (ev):

   -64.8280 -64.8276 -64.8255 -64.8250 -31.6278 -31.6276 -31.6208 -31.6207
   -31.5933 -31.5931 -31.5810 -31.5808 -31.5791 -31.5790 -31.5733 -31.5731
    -8.3996  -8.3996  -7.9978  -7.9978   3.8214   3.8215   4.1975   4.1976
     5.8292   5.8292   6.7402   6.7404   6.8680   6.8682   7.0157   7.0157

          k = 0.2481-0.5040 0.0000 (  5152 PWs)   bands (ev):

   -64.8284 -64.8280 -64.8251 -64.8246 -31.6188 -31.6187 -31.6083 -31.6083
   -31.6057 -31.6055 -31.5852 -31.5850 -31.5805 -31.5804 -31.5761 -31.5760
    -8.5015  -8.5004  -7.9524  -7.9522   4.4176   4.4180   4.7444   4.7457
     5.1105   5.1122   6.5239   6.5247   6.5538   6.5553   7.1016   7.1019

          k = 0.2481-0.5040 0.2500 (  5140 PWs)   bands (ev):

   -64.8279 -64.8275 -64.8256 -64.8251 -31.6282 -31.6281 -31.6199 -31.6198
   -31.5950 -31.5948 -31.5809 -31.5807 -31.5768 -31.5768 -31.5739 -31.5738
    -8.3926  -8.3916  -8.0003  -8.0002   3.8194   3.8194   4.1847   4.1861
     5.8307   5.8307   6.7333   6.7335   6.8793   6.8794   7.0021   7.0031

          k = 0.2481-0.5040-0.5000 (  5136 PWs)   bands (ev):

   -64.8268 -64.8267 -64.8267 -64.8258 -31.6308 -31.6305 -31.6305 -31.6305
   -31.5862 -31.5860 -31.5860 -31.5858 -31.5711 -31.5709 -31.5708 -31.5707
    -8.1658  -8.1657  -8.1653  -8.1652   3.6299   3.6299   3.6306   3.6307
     6.5140   6.5140   6.5149   6.5150   7.0751   7.0753   7.0756   7.0758

          k =-0.4961 0.0000 0.0000 (  5158 PWs)   bands (ev):

   -64.8293 -64.8289 -64.8242 -64.8237 -31.6106 -31.6103 -31.6057 -31.6054
   -31.6054 -31.6051 -31.5978 -31.5978 -31.5791 -31.5788 -31.5752 -31.5750
    -8.6613  -8.6590  -7.8516  -7.8515   4.8239   4.8277   4.8445   4.8483
     5.1286   5.1295   6.0117   6.0120   6.9628   6.9647   6.9996   7.0015

          k =-0.4961 0.0000 0.2500 (  5156 PWs)   bands (ev):

   -64.8285 -64.8282 -64.8249 -64.8244 -31.6182 -31.6180 -31.6121 -31.6119
   -31.6013 -31.6010 -31.5876 -31.5875 -31.5793 -31.5790 -31.5762 -31.5760
    -8.5226  -8.5207  -7.9457  -7.9452   4.4283   4.4301   4.7746   4.7755
     5.0932   5.0968   6.5523   6.5535   6.5707   6.5731   7.0984   7.0991

          k =-0.4961 0.0000-0.5000 (  5192 PWs)   bands (ev):

   -64.8268 -64.8267 -64.8267 -64.8258 -31.6199 -31.6197 -31.6196 -31.6195
   -31.5913 -31.5911 -31.5911 -31.5908 -31.5789 -31.5787 -31.5786 -31.5786
    -8.2120  -8.2119  -8.2107  -8.2106   4.3226   4.3227   4.3227   4.3229
     5.7635   5.7636   5.7667   5.7668   7.0503   7.0505   7.0512   7.0514

          k =-0.4961 0.2520 0.0000 (  5148 PWs)   bands (ev):

   -64.8285 -64.8282 -64.8249 -64.8244 -31.6160 -31.6159 -31.6116 -31.6114
   -31.6068 -31.6065 -31.5850 -31.5849 -31.5834 -31.5832 -31.5714 -31.5712
    -8.5200  -8.5181  -7.9426  -7.9422   4.4178   4.4196   4.7560   4.7569
     5.0784   5.0820   6.5697   6.5708   6.5954   6.5978   7.0841   7.0849

          k =-0.4961 0.2520 0.2500 (  5140 PWs)   bands (ev):

   -64.8280 -64.8277 -64.8254 -64.8249 -31.6274 -31.6273 -31.6213 -31.6212
   -31.5905 -31.5903 -31.5829 -31.5828 -31.5794 -31.5792 -31.5730 -31.5728
    -8.4078  -8.4061  -7.9951  -7.9950   3.8229   3.8230   4.2095   4.2105
     5.8288   5.8289   6.7458   6.7460   6.8562   6.8571   7.0280   7.0294

          k =-0.4961 0.2520-0.5000 (  5148 PWs)   bands (ev):

   -64.8268 -64.8267 -64.8267 -64.8258 -31.6318 -31.6315 -31.6315 -31.6315
   -31.5801 -31.5799 -31.5798 -31.5797 -31.5767 -31.5765 -31.5764 -31.5764
    -8.1715  -8.1715  -8.1706  -8.1706   3.6497   3.6499   3.6503   3.6503
     6.5326   6.5327   6.5344   6.5344   7.0517   7.0519   7.0524   7.0525

          k =-0.4961-0.5040 0.0000 (  5188 PWs)   bands (ev):

   -64.8268 -64.8267 -64.8267 -64.8258 -31.6186 -31.6184 -31.6183 -31.6182
   -31.5968 -31.5966 -31.5965 -31.5963 -31.5750 -31.5749 -31.5747 -31.5746
    -8.2066  -8.2059  -8.2054  -8.2046   4.2927   4.2927   4.2934   4.2936
     5.7644   5.7660   5.7676   5.7692   7.0615   7.0623   7.0624   7.0632

          k =-0.4961-0.5040 0.2500 (  5144 PWs)   bands (ev):

   -64.8268 -64.8267 -64.8267 -64.8258 -31.6315 -31.6312 -31.6312 -31.6311
   -31.5838 -31.5836 -31.5835 -31.5835 -31.5732 -31.5731 -31.5730 -31.5728
    -8.1689  -8.1683  -8.1680  -8.1675   3.6394   3.6399   3.6402   3.6407
     6.5224   6.5234   6.5242   6.5252   7.0629   7.0635   7.0635   7.0641

          k =-0.4961-0.5040-0.5000 (  5136 PWs)   bands (ev):

   -64.8267 -64.8267 -64.8267 -64.8258 -31.6392 -31.6390 -31.6390 -31.6389
   -31.5783 -31.5781 -31.5780 -31.5779 -31.5706 -31.5704 -31.5704 -31.5702
    -8.1302  -8.1301  -8.1300  -8.1300   3.2172   3.2173   3.2173   3.2173
     7.0512   7.0512   7.0513   7.0515   7.0777   7.0778   7.0778   7.0780

          k = 0.0000-0.2520 0.2500 (  5151 PWs)   bands (ev):

   -64.8312 -64.8255 -64.8251 -64.8243 -31.6230 -31.6202 -31.6163 -31.6042
   -31.5991 -31.5981 -31.5897 -31.5855 -31.5829 -31.5824 -31.5794 -31.5650
    -8.9626  -8.0640  -8.0496  -7.9009   4.1559   4.1632   4.3112   5.0715
     5.8239   6.0468   6.0846   6.4485   6.4615   6.6094   7.1900   7.5019

          k =-0.2481 0.0000 0.2500 (  5147 PWs)   bands (ev):

   -64.8312 -64.8256 -64.8252 -64.8240 -31.6245 -31.6206 -31.6138 -31.6092
   -31.5940 -31.5900 -31.5899 -31.5892 -31.5874 -31.5857 -31.5701 -31.5691
    -8.9706  -8.0795  -8.0649  -7.8812   4.1593   4.1656   4.3465   5.0706
     5.8699   6.0267   6.0635   6.5079   6.5207   6.5575   7.1557   7.5080

          k =-0.2481 0.2520 0.0000 (  5148 PWs)   bands (ev):

   -64.8312 -64.8256 -64.8251 -64.8242 -31.6247 -31.6186 -31.6164 -31.6073
   -31.5946 -31.5925 -31.5921 -31.5896 -31.5856 -31.5821 -31.5746 -31.5664
    -8.9665  -8.0789  -8.0499  -7.8907   4.1546   4.1685   4.3281   5.0709
     5.8466   6.0180   6.0925   6.4711   6.4969   6.5845   7.1734   7.5047

          k =-0.2481-0.2520 0.2500 (  5151 PWs)   bands (ev):

   -64.8302 -64.8256 -64.8254 -64.8248 -31.6267 -31.6242 -31.6227 -31.6053
   -31.5942 -31.5934 -31.5925 -31.5863 -31.5819 -31.5796 -31.5742 -31.5667
    -8.7967  -8.0417  -8.0312  -8.0210   3.9973   4.0000   4.0035   5.0888
     5.8333   5.8451   5.8571   6.6825   6.7058   6.7276   7.3522   7.3573

          k =-0.2481 0.2520-0.2500 (  5151 PWs)   bands (ev):

   -64.8302 -64.8256 -64.8254 -64.8248 -31.6267 -31.6242 -31.6228 -31.6053
   -31.5941 -31.5934 -31.5924 -31.5863 -31.5820 -31.5796 -31.5742 -31.5668
    -8.7967  -8.0417  -8.0312  -8.0210   3.9973   4.0000   4.0035   5.0888
     5.8333   5.8451   5.8571   6.6825   6.7058   6.7276   7.3522   7.3573

          k = 0.2481-0.2520-0.2500 (  5151 PWs)   bands (ev):

   -64.8302 -64.8256 -64.8254 -64.8248 -31.6267 -31.6242 -31.6228 -31.6053
   -31.5941 -31.5934 -31.5924 -31.5863 -31.5820 -31.5796 -31.5742 -31.5668
    -8.7967  -8.0417  -8.0312  -8.0210   3.9973   4.0000   4.0035   5.0888
     5.8333   5.8451   5.8571   6.6825   6.7058   6.7276   7.3522   7.3573

          k =-0.2481 0.2520 0.5000 (  5146 PWs)   bands (ev):

   -64.8280 -64.8276 -64.8255 -64.8250 -31.6278 -31.6276 -31.6208 -31.6206
   -31.5933 -31.5931 -31.5810 -31.5809 -31.5791 -31.5790 -31.5733 -31.5731
    -8.3996  -8.3996  -7.9978  -7.9978   3.8214   3.8215   4.1975   4.1976
     5.8292   5.8292   6.7402   6.7404   6.8680   6.8682   7.0157   7.0157

          k =-0.2481 0.5040 0.2500 (  5140 PWs)   bands (ev):

   -64.8279 -64.8275 -64.8256 -64.8251 -31.6282 -31.6281 -31.6199 -31.6198
   -31.5950 -31.5948 -31.5809 -31.5807 -31.5768 -31.5768 -31.5739 -31.5738
    -8.3926  -8.3916  -8.0003  -8.0002   3.8194   3.8194   4.1847   4.1861
     5.8307   5.8307   6.7333   6.7335   6.8793   6.8794   7.0021   7.0031

          k = 0.4961-0.2520 0.2500 (  5140 PWs)   bands (ev):

   -64.8280 -64.8277 -64.8254 -64.8249 -31.6274 -31.6273 -31.6213 -31.6212
   -31.5905 -31.5903 -31.5829 -31.5828 -31.5794 -31.5792 -31.5730 -31.5728
    -8.4078  -8.4061  -7.9951  -7.9950   3.8229   3.8230   4.2095   4.2105
     5.8288   5.8289   6.7458   6.7460   6.8562   6.8571   7.0280   7.0294

     highest occupied level (ev):     7.6882

!    total energy              =    -608.39238589 Ry
     Harris-Foulkes estimate   =    -608.39238589 Ry
     estimated scf accuracy    <          7.5E-10 Ry

     The total energy is the sum of the following terms:

     one-electron contribution =    -303.60013678 Ry
     hartree contribution      =     168.09021097 Ry
     xc contribution           =     -97.84734923 Ry
     ewald contribution        =    -375.03511084 Ry

     convergence has been achieved in   5 iterations

     Forces acting on atoms (cartesian axes, Ry/au):

     atom    1 type  1   force =    -0.00024378   -0.00014057   -0.00000057
     atom    2 type  1   force =    -0.00041379    0.00000761    0.00000175
     atom    3 type  1   force =     0.00037391    0.00002895    0.00000175
     atom    4 type  1   force =     0.00038366   -0.00000484   -0.00000189
     atom    5 type  2   force =     0.00005150   -0.00027790    0.00000060
     atom    6 type  2   force =    -0.00009457    0.00032001    0.00000058
     atom    7 type  2   force =    -0.00009233   -0.00028487   -0.00000103
     atom    8 type  2   force =     0.00003540    0.00035160   -0.00000119

     Total force =     0.000972     Total SCF correction =     0.000278
     SCF correction compared to forces is large: reduce conv_thr to get better values


     Computing stress (Cartesian axis) and pressure

          total   stress  (Ry/bohr**3)                   (kbar)     P=  -67.77
  -0.00055289   0.00000001  -0.00000000        -81.33      0.00     -0.00
   0.00000001  -0.00036485   0.00000000          0.00    -53.67      0.00
  -0.00000000   0.00000000  -0.00046434         -0.00      0.00    -68.31


     number of scf cycles    =   4
     number of bfgs steps    =   3

     energy   old            =    -608.3923145398 Ry
     energy   new            =    -608.3923858863 Ry

     CASE: energy  _new < energy  _old

     new trust radius        =       0.0004944306 bohr
     new conv_thr            =       0.0000000004 Ry


ATOMIC_POSITIONS (alat)
Mg      -0.001749806   0.001876802  -0.000014252
Mg      -0.001828022   0.498075734   0.500014397
Mg       0.501785886   0.001963685   0.500014409
Mg       0.501758837   0.498097720  -0.000014866
O        0.501922535   0.002022205  -0.000015401
O       -0.001909117   0.497972678  -0.000015398
O       -0.001906640   0.002018357   0.500015545
O        0.501926327   0.497972819   0.500015566



     Writing output data file diamond.1.007857.70.4.save
     NEW-OLD atomic charge density approx. for the potential

     Check: negative/imaginary core charge=   -0.000007    0.000000

     total cpu time spent up to now is       43.5 secs

     per-process dynamical memory:    56.2 Mb

     Self-consistent Calculation

     iteration #  1     ecut=    70.00 Ry     beta=0.70
     Davidson diagonalization with overlap
     ethr =  1.00E-06,  avg # of iterations =  2.0

     Threshold (ethr) on eigenvalues was too large:
     Diagonalizing with lowered threshold

     Davidson diagonalization with overlap
     ethr =  1.02E-10,  avg # of iterations =  3.0

     total cpu time spent up to now is       47.0 secs

     total energy              =    -608.39238667 Ry
     Harris-Foulkes estimate   =    -608.39238674 Ry
[...]
Mg      -0.001962247   0.498077902   0.500014933
Mg       0.501903438   0.001977316   0.500014945
Mg       0.501881352   0.498095280  -0.000015466
O        0.501940009   0.001943456  -0.000015259
O       -0.001944164   0.498063104  -0.000015260
O       -0.001941611   0.001936671   0.500015252
O        0.501931883   0.498083404   0.500015149



     Writing output data file diamond.1.007857.70.4.save
     NEW-OLD atomic charge density approx. for the potential

     Check: negative/imaginary core charge=   -0.000007    0.000000

     total cpu time spent up to now is       61.4 secs

     per-process dynamical memory:    56.2 Mb

     Self-consistent Calculation

     iteration #  1     ecut=    70.00 Ry     beta=0.70
     Davidson diagonalization with overlap
     ethr =  1.00E-06,  avg # of iterations =  2.0

     Threshold (ethr) on eigenvalues was too large:
     Diagonalizing with lowered threshold

     Davidson diagonalization with overlap
     ethr =  1.61E-10,  avg # of iterations =  3.0

     total cpu time spent up to now is       64.9 secs

     total energy              =    -608.39238746 Ry
     Harris-Foulkes estimate   =    -608.39238756 Ry
     estimated scf accuracy    <       0.00000014 Ry

     iteration #  2     ecut=    70.00 Ry     beta=0.70
     Davidson diagonalization with overlap
     ethr =  2.20E-10,  avg # of iterations =  2.1

     total cpu time spent up to now is       66.3 secs

     total energy              =    -608.39238750 Ry
     Harris-Foulkes estimate   =    -608.39238751 Ry
     estimated scf accuracy    <       0.00000002 Ry

     iteration #  3     ecut=    70.00 Ry     beta=0.70
     Davidson diagonalization with overlap
     ethr =  3.69E-11,  avg # of iterations =  2.0

     total cpu time spent up to now is       67.8 secs

     total energy              =    -608.39238750 Ry
     Harris-Foulkes estimate   =    -608.39238750 Ry
     estimated scf accuracy    <          2.2E-10 Ry

     iteration #  4     ecut=    70.00 Ry     beta=0.70
     Davidson diagonalization with overlap
     ethr =  3.42E-13,  avg # of iterations =  2.9

     total cpu time spent up to now is       69.6 secs

     End of self-consistent calculation

          k = 0.0000 0.0000 0.0000 (  5153 PWs)   bands (ev):

   -64.8338 -64.8245 -64.8242 -64.8236 -31.6342 -31.6293 -31.6253 -31.5975
   -31.5957 -31.5939 -31.5909 -31.5888 -31.5877 -31.5714 -31.5646 -31.5592
    -9.3652  -7.9351  -7.9144  -7.8941   3.7327   3.7583   3.7850   6.3240
     6.3316   6.3726   6.3866   6.4292   6.4355   7.6532   7.6723   7.6882

          k = 0.0000 0.0000 0.2500 (  5153 PWs)   bands (ev):

   -64.8324 -64.8256 -64.8244 -64.8237 -31.6282 -31.6200 -31.6188 -31.6029
   -31.5946 -31.5923 -31.5920 -31.5914 -31.5844 -31.5775 -31.5750 -31.5661
    -9.1568  -8.1292  -7.9008  -7.8716   4.0245   4.0731   4.0948   5.8453
     5.8701   6.1322   6.2087   6.4979   6.5884   6.6590   7.4256   7.4739

          k = 0.0000 0.0000-0.5000 (  5118 PWs)   bands (ev):

   -64.8292 -64.8288 -64.8243 -64.8238 -31.6151 -31.6148 -31.6037 -31.6035
   -31.6009 -31.6008 -31.5906 -31.5906 -31.5836 -31.5833 -31.5757 -31.5754
    -8.6466  -8.6465  -7.8575  -7.8574   4.8275   4.8275   4.8679   4.8679
     5.1227   5.1230   5.9731   5.9735   6.9318   6.9319   7.0044   7.0044

          k = 0.0000 0.2520 0.0000 (  5161 PWs)   bands (ev):

   -64.8324 -64.8254 -64.8245 -64.8239 -31.6280 -31.6231 -31.6164 -31.6015
   -31.5960 -31.5938 -31.5900 -31.5885 -31.5878 -31.5760 -31.5731 -31.5711
    -9.1522  -8.1097  -7.9012  -7.8864   4.0300   4.0533   4.1080   5.8889
     5.9006   6.1211   6.1587   6.4928   6.5381   6.6419   7.4395   7.4624

          k = 0.0000 0.2520 0.2500 (  5151 PWs)   bands (ev):

   -64.8312 -64.8255 -64.8251 -64.8243 -31.6230 -31.6203 -31.6163 -31.6042
   -31.5991 -31.5981 -31.5897 -31.5855 -31.5829 -31.5824 -31.5794 -31.5650
    -8.9626  -8.0640  -8.0497  -7.9009   4.1559   4.1631   4.3112   5.0715
     5.8239   6.0468   6.0846   6.4485   6.4615   6.6094   7.1900   7.5019

          k = 0.0000 0.2520-0.5000 (  5146 PWs)   bands (ev):

   -64.8285 -64.8281 -64.8250 -64.8245 -31.6142 -31.6140 -31.6108 -31.6105
   -31.6087 -31.6087 -31.5886 -31.5883 -31.5812 -31.5811 -31.5709 -31.5707
    -8.5077  -8.5076  -7.9448  -7.9448   4.4072   4.4073   4.7322   4.7324
     5.0828   5.0828   6.5648   6.5651   6.6002   6.6002   7.0799   7.0799

          k = 0.0000-0.5040 0.0000 (  5134 PWs)   bands (ev):

   -64.8290 -64.8286 -64.8245 -64.8240 -31.6145 -31.6142 -31.6088 -31.6086
   -31.5960 -31.5959 -31.5870 -31.5870 -31.5851 -31.5849 -31.5805 -31.5803
    -8.6331  -8.6323  -7.8626  -7.8625   4.8481   4.8494   4.8672   4.8686
     5.1149   5.1155   5.9329   5.9332   6.9354   6.9362   6.9707   6.9715

          k = 0.0000-0.5040 0.2500 (  5144 PWs)   bands (ev):

   -64.8284 -64.8280 -64.8251 -64.8246 -31.6157 -31.6156 -31.6102 -31.6100
   -31.6070 -31.6070 -31.5900 -31.5898 -31.5787 -31.5787 -31.5727 -31.5726
    -8.4989  -8.4982  -7.9496  -7.9495   4.4060   4.4066   4.7261   4.7266
     5.0979   5.0992   6.5419   6.5423   6.5782   6.5791   7.0885   7.0888

          k = 0.0000-0.5040-0.5000 (  5160 PWs)   bands (ev):

   -64.8268 -64.8267 -64.8267 -64.8258 -31.6172 -31.6170 -31.6169 -31.6169
   -31.6008 -31.6006 -31.6005 -31.6003 -31.5714 -31.5712 -31.5711 -31.5711
    -8.2007  -8.2006  -8.2003  -8.2002   4.2633   4.2634   4.2635   4.2636
     5.7697   5.7698   5.7709   5.7709   7.0745   7.0747   7.0748   7.0750

          k = 0.2481 0.0000 0.0000 (  5158 PWs)   bands (ev):

   -64.8325 -64.8258 -64.8242 -64.8237 -31.6256 -31.6235 -31.6192 -31.5990
   -31.5976 -31.5964 -31.5933 -31.5875 -31.5833 -31.5829 -31.5705 -31.5655
    -9.1612  -8.1489  -7.8852  -7.8708   4.0428   4.0678   4.0810   5.8147
     5.8278   6.1818   6.2206   6.5469   6.5920   6.6735   7.4364   7.4611

          k = 0.2481 0.0000 0.2500 (  5147 PWs)   bands (ev):

   -64.8312 -64.8256 -64.8252 -64.8240 -31.6245 -31.6206 -31.6138 -31.6092
   -31.5940 -31.5900 -31.5899 -31.5892 -31.5874 -31.5857 -31.5701 -31.5691
    -8.9706  -8.0795  -8.0649  -7.8812   4.1593   4.1656   4.3465   5.0706
     5.8699   6.0266   6.0635   6.5079   6.5207   6.5574   7.1557   7.5080

          k = 0.2481 0.0000-0.5000 (  5140 PWs)   bands (ev):

   -64.8285 -64.8281 -64.8250 -64.8245 -31.6192 -31.6190 -31.6100 -31.6099
   -31.6004 -31.6002 -31.5848 -31.5847 -31.5799 -31.5796 -31.5785 -31.5784
    -8.5127  -8.5126  -7.9506  -7.9506   4.4295   4.4296   4.7695   4.7697
     5.1104   5.1104   6.5300   6.5302   6.5511   6.5512   7.1074   7.1075

          k = 0.2481 0.2520 0.0000 (  5148 PWs)   bands (ev):

   -64.8312 -64.8256 -64.8251 -64.8242 -31.6247 -31.6186 -31.6164 -31.6073
   -31.5946 -31.5925 -31.5921 -31.5896 -31.5856 -31.5822 -31.5746 -31.5664
    -8.9665  -8.0790  -8.0499  -7.8908   4.1546   4.1684   4.3281   5.0709
     5.8466   6.0180   6.0925   6.4710   6.4969   6.5845   7.1734   7.5046

          k = 0.2481 0.2520 0.2500 (  5151 PWs)   bands (ev):

   -64.8302 -64.8256 -64.8254 -64.8248 -31.6267 -31.6242 -31.6227 -31.6053
   -31.5942 -31.5934 -31.5925 -31.5863 -31.5819 -31.5796 -31.5742 -31.5668
    -8.7967  -8.0417  -8.0312  -8.0210   3.9973   4.0000   4.0035   5.0888
     5.8332   5.8451   5.8571   6.6825   6.7058   6.7276   7.3522   7.3573

          k = 0.2481 0.2520-0.5000 (  5146 PWs)   bands (ev):

   -64.8280 -64.8276 -64.8255 -64.8250 -31.6278 -31.6276 -31.6208 -31.6207
   -31.5933 -31.5931 -31.5810 -31.5808 -31.5791 -31.5790 -31.5733 -31.5731
    -8.3997  -8.3996  -7.9979  -7.9978   3.8214   3.8215   4.1975   4.1976
     5.8292   5.8292   6.7401   6.7404   6.8680   6.8682   7.0157   7.0157

          k = 0.2481-0.5040 0.0000 (  5152 PWs)   bands (ev):

   -64.8284 -64.8280 -64.8251 -64.8246 -31.6188 -31.6187 -31.6083 -31.6083
   -31.6057 -31.6055 -31.5852 -31.5850 -31.5805 -31.5805 -31.5761 -31.5760
    -8.5013  -8.5006  -7.9524  -7.9522   4.4175   4.4180   4.7447   4.7453
     5.1107   5.1119   6.5240   6.5245   6.5541   6.5550   7.1016   7.1019

          k = 0.2481-0.5040 0.2500 (  5140 PWs)   bands (ev):

   -64.8279 -64.8275 -64.8256 -64.8251 -31.6282 -31.6281 -31.6199 -31.6198
   -31.5950 -31.5948 -31.5809 -31.5807 -31.5768 -31.5768 -31.5739 -31.5738
    -8.3924  -8.3918  -8.0003  -8.0002   3.8194   3.8194   4.1851   4.1856
     5.8307   5.8307   6.7333   6.7335   6.8792   6.8795   7.0023   7.0029

          k = 0.2481-0.5040-0.5000 (  5136 PWs)   bands (ev):

   -64.8268 -64.8267 -64.8267 -64.8258 -31.6308 -31.6305 -31.6305 -31.6305
   -31.5862 -31.5860 -31.5860 -31.5858 -31.5711 -31.5709 -31.5708 -31.5707
    -8.1657  -8.1656  -8.1654  -8.1653   3.6301   3.6302   3.6303   3.6304
     6.5141   6.5141   6.5148   6.5148   7.0752   7.0754   7.0755   7.0757

          k =-0.4961 0.0000 0.0000 (  5158 PWs)   bands (ev):

   -64.8293 -64.8289 -64.8242 -64.8237 -31.6105 -31.6103 -31.6057 -31.6055
   -31.6053 -31.6052 -31.5978 -31.5978 -31.5791 -31.5789 -31.5752 -31.5750
    -8.6605  -8.6598  -7.8516  -7.8516   4.8252   4.8265   4.8457   4.8470
     5.1288   5.1293   6.0117   6.0120   6.9634   6.9641   7.0002   7.0009

          k =-0.4961 0.0000 0.2500 (  5156 PWs)   bands (ev):

   -64.8286 -64.8282 -64.8249 -64.8244 -31.6181 -31.6180 -31.6120 -31.6119
   -31.6013 -31.6011 -31.5876 -31.5875 -31.5793 -31.5790 -31.5762 -31.5760
    -8.5220  -8.5213  -7.9456  -7.9454   4.4289   4.4295   4.7749   4.7753
     5.0944   5.0956   6.5527   6.5531   6.5714   6.5723   7.0986   7.0989

          k =-0.4961 0.0000-0.5000 (  5192 PWs)   bands (ev):

   -64.8268 -64.8267 -64.8267 -64.8258 -31.6199 -31.6197 -31.6196 -31.6195
   -31.5913 -31.5911 -31.5910 -31.5908 -31.5789 -31.5787 -31.5786 -31.5786
    -8.2116  -8.2115  -8.2111  -8.2111   4.3226   4.3227   4.3227   4.3229
     5.7646   5.7646   5.7657   5.7657   7.0506   7.0507   7.0509   7.0511

          k =-0.4961 0.2520 0.0000 (  5148 PWs)   bands (ev):

   -64.8285 -64.8282 -64.8249 -64.8244 -31.6160 -31.6159 -31.6115 -31.6115
   -31.6067 -31.6065 -31.5850 -31.5849 -31.5834 -31.5832 -31.5714 -31.5712
    -8.5194  -8.5187  -7.9425  -7.9424   4.4184   4.4190   4.7562   4.7566
     5.0796   5.0808   6.5700   6.5705   6.5962   6.5970   7.0844   7.0846

          k =-0.4961 0.2520 0.2500 (  5140 PWs)   bands (ev):

   -64.8280 -64.8277 -64.8254 -64.8249 -31.6274 -31.6273 -31.6213 -31.6213
   -31.5905 -31.5903 -31.5829 -31.5828 -31.5794 -31.5792 -31.5730 -31.5728
    -8.4072  -8.4066  -7.9951  -7.9950   3.8229   3.8230   4.2098   4.2102
     5.8288   5.8288   6.7457   6.7460   6.8564   6.8568   7.0284   7.0289

          k =-0.4961 0.2520-0.5000 (  5148 PWs)   bands (ev):

   -64.8268 -64.8267 -64.8267 -64.8258 -31.6318 -31.6315 -31.6315 -31.6315
   -31.5801 -31.5799 -31.5798 -31.5797 -31.5767 -31.5765 -31.5764 -31.5764
    -8.1713  -8.1712  -8.1709  -8.1709   3.6499   3.6500   3.6501   3.6502
     6.5331   6.5332   6.5338   6.5338   7.0519   7.0520   7.0521   7.0523

          k =-0.4961-0.5040 0.0000 (  5188 PWs)   bands (ev):

   -64.8268 -64.8267 -64.8267 -64.8258 -31.6186 -31.6184 -31.6183 -31.6182
   -31.5967 -31.5966 -31.5966 -31.5963 -31.5750 -31.5749 -31.5747 -31.5747
    -8.2061  -8.2057  -8.2056  -8.2052   4.2929   4.2931   4.2932   4.2932
     5.7657   5.7666   5.7670   5.7679   7.0620   7.0623   7.0623   7.0627

          k =-0.4961-0.5040 0.2500 (  5144 PWs)   bands (ev):

   -64.8268 -64.8267 -64.8267 -64.8258 -31.6315 -31.6312 -31.6312 -31.6311
   -31.5838 -31.5836 -31.5835 -31.5835 -31.5732 -31.5731 -31.5730 -31.5728
    -8.1685  -8.1682  -8.1682  -8.1679   3.6398   3.6400   3.6401   3.6403
     6.5231   6.5237   6.5239   6.5244   7.0632   7.0635   7.0635   7.0638

          k =-0.4961-0.5040-0.5000 (  5136 PWs)   bands (ev):

   -64.8267 -64.8267 -64.8267 -64.8258 -31.6392 -31.6390 -31.6390 -31.6389
   -31.5783 -31.5781 -31.5780 -31.5779 -31.5706 -31.5704 -31.5704 -31.5702
    -8.1302  -8.1301  -8.1301  -8.1300   3.2172   3.2173   3.2173   3.2173
     7.0511   7.0512   7.0513   7.0514   7.0777   7.0778   7.0778   7.0779

          k = 0.0000-0.2520 0.2500 (  5151 PWs)   bands (ev):

   -64.8312 -64.8255 -64.8251 -64.8243 -31.6230 -31.6203 -31.6163 -31.6042
   -31.5991 -31.5981 -31.5897 -31.5855 -31.5829 -31.5824 -31.5794 -31.5650
    -8.9626  -8.0640  -8.0497  -7.9009   4.1559   4.1631   4.3112   5.0715
     5.8239   6.0468   6.0846   6.4485   6.4615   6.6094   7.1900   7.5019

          k =-0.2481 0.0000 0.2500 (  5147 PWs)   bands (ev):

   -64.8312 -64.8256 -64.8252 -64.8240 -31.6245 -31.6206 -31.6138 -31.6092
   -31.5940 -31.5900 -31.5899 -31.5892 -31.5874 -31.5857 -31.5701 -31.5691
    -8.9706  -8.0795  -8.0649  -7.8812   4.1593   4.1656   4.3465   5.0706
     5.8699   6.0266   6.0635   6.5079   6.5207   6.5574   7.1557   7.5080

          k =-0.2481 0.2520 0.0000 (  5148 PWs)   bands (ev):

   -64.8312 -64.8256 -64.8251 -64.8242 -31.6247 -31.6186 -31.6164 -31.6073
   -31.5946 -31.5925 -31.5921 -31.5896 -31.5856 -31.5822 -31.5746 -31.5664
    -8.9665  -8.0790  -8.0499  -7.8908   4.1546   4.1684   4.3281   5.0709
     5.8466   6.0180   6.0925   6.4710   6.4969   6.5845   7.1734   7.5046

          k =-0.2481-0.2520 0.2500 (  5151 PWs)   bands (ev):

   -64.8302 -64.8256 -64.8254 -64.8248 -31.6267 -31.6242 -31.6227 -31.6053
   -31.5942 -31.5934 -31.5925 -31.5863 -31.5819 -31.5796 -31.5742 -31.5668
    -8.7967  -8.0417  -8.0312  -8.0210   3.9973   4.0000   4.0035   5.0888
     5.8332   5.8451   5.8571   6.6825   6.7058   6.7276   7.3522   7.3573

          k =-0.2481 0.2520-0.2500 (  5151 PWs)   bands (ev):

   -64.8302 -64.8256 -64.8254 -64.8248 -31.6267 -31.6242 -31.6228 -31.6053
   -31.5941 -31.5934 -31.5924 -31.5863 -31.5820 -31.5796 -31.5742 -31.5668
    -8.7967  -8.0417  -8.0312  -8.0210   3.9973   4.0000   4.0035   5.0888
     5.8332   5.8451   5.8571   6.6825   6.7058   6.7276   7.3522   7.3573

          k = 0.2481-0.2520-0.2500 (  5151 PWs)   bands (ev):

   -64.8302 -64.8256 -64.8254 -64.8248 -31.6267 -31.6242 -31.6228 -31.6053
   -31.5941 -31.5934 -31.5924 -31.5863 -31.5820 -31.5796 -31.5742 -31.5668
    -8.7967  -8.0417  -8.0312  -8.0210   3.9973   4.0000   4.0035   5.0888
     5.8332   5.8451   5.8571   6.6825   6.7058   6.7276   7.3522   7.3573

          k =-0.2481 0.2520 0.5000 (  5146 PWs)   bands (ev):

   -64.8280 -64.8276 -64.8255 -64.8250 -31.6278 -31.6276 -31.6208 -31.6206
   -31.5933 -31.5931 -31.5810 -31.5809 -31.5791 -31.5790 -31.5733 -31.5731
    -8.3997  -8.3996  -7.9979  -7.9978   3.8214   3.8215   4.1975   4.1976
     5.8292   5.8292   6.7401   6.7404   6.8680   6.8682   7.0157   7.0157

          k =-0.2481 0.5040 0.2500 (  5140 PWs)   bands (ev):

   -64.8279 -64.8275 -64.8256 -64.8251 -31.6282 -31.6281 -31.6199 -31.6198
   -31.5950 -31.5948 -31.5809 -31.5807 -31.5768 -31.5768 -31.5739 -31.5738
    -8.3924  -8.3918  -8.0003  -8.0002   3.8194   3.8194   4.1851   4.1856
     5.8307   5.8307   6.7333   6.7335   6.8792   6.8795   7.0023   7.0029

          k = 0.4961-0.2520 0.2500 (  5140 PWs)   bands (ev):

   -64.8280 -64.8277 -64.8254 -64.8249 -31.6274 -31.6273 -31.6213 -31.6213
   -31.5905 -31.5903 -31.5829 -31.5828 -31.5794 -31.5792 -31.5730 -31.5728
    -8.4072  -8.4066  -7.9951  -7.9950   3.8229   3.8230   4.2098   4.2102
     5.8288   5.8288   6.7457   6.7460   6.8564   6.8568   7.0284   7.0289

     highest occupied level (ev):     7.6882

!    total energy              =    -608.39238750 Ry
     Harris-Foulkes estimate   =    -608.39238750 Ry
     estimated scf accuracy    <          6.7E-11 Ry

     The total energy is the sum of the following terms:

     one-electron contribution =    -303.59990578 Ry
     hartree contribution      =     168.09014240 Ry
     xc contribution           =     -97.84736940 Ry
     ewald contribution        =    -375.03525472 Ry

     convergence has been achieved in   4 iterations

     Forces acting on atoms (cartesian axes, Ry/au):

     atom    1 type  1   force =     0.00004718   -0.00004287    0.00000043
     atom    2 type  1   force =    -0.00001723    0.00001608   -0.00000008
     atom    3 type  1   force =     0.00000255   -0.00000296   -0.00000009
     atom    4 type  1   force =     0.00000815    0.00001389    0.00000002
     atom    5 type  2   force =     0.00000072    0.00002661   -0.00000010
     atom    6 type  2   force =    -0.00000974   -0.00003802   -0.00000009
     atom    7 type  2   force =    -0.00000766    0.00002998    0.00000008
     atom    8 type  2   force =    -0.00002397   -0.00000272   -0.00000016

     Total force =     0.000093     Total SCF correction =     0.000031
     SCF correction compared to forces is large: reduce conv_thr to get better values


     Computing stress (Cartesian axis) and pressure

          total   stress  (Ry/bohr**3)                   (kbar)     P=  -67.75
  -0.00055280   0.00000001  -0.00000000        -81.32      0.00     -0.00
   0.00000001  -0.00036474   0.00000000          0.00    -53.65      0.00
  -0.00000000   0.00000000  -0.00046423         -0.00      0.00    -68.29


     bfgs converged in   7 scf cycles and   6 bfgs steps
     (criteria: energy <  1.0E-05 Ry, force <  1.0E-04 Ry/Bohr)

     End of BFGS Geometry Optimization

     Final energy   =    -608.3923875045 Ry
Begin final coordinates

ATOMIC_POSITIONS (alat)
Mg      -0.001808660   0.001822868  -0.000014295
Mg      -0.001962247   0.498077902   0.500014933
Mg       0.501903438   0.001977316   0.500014945
Mg       0.501881352   0.498095280  -0.000015466
O        0.501940009   0.001943456  -0.000015259
O       -0.001944164   0.498063104  -0.000015260
O       -0.001941611   0.001936671   0.500015252
O        0.501931883   0.498083404   0.500015149
End final coordinates



     Writing output data file diamond.1.007857.70.4.save
 
     init_run     :      0.62s CPU      0.64s WALL (       1 calls)
     electrons    :     62.84s CPU     63.89s WALL (       7 calls)
     update_pot   :      0.68s CPU      0.69s WALL (       6 calls)
     forces       :      1.31s CPU      1.31s WALL (       7 calls)
     stress       :      3.00s CPU      3.01s WALL (       7 calls)

     Called by init_run:
     wfcinit      :      0.50s CPU      0.52s WALL (       1 calls)
     potinit      :      0.05s CPU      0.05s WALL (       1 calls)

     Called by electrons:
     c_bands      :     55.18s CPU     56.06s WALL (      39 calls)
     sum_band     :      7.40s CPU      7.55s WALL (      39 calls)
     v_of_rho     :      0.22s CPU      0.22s WALL (      43 calls)
     mix_rho      :      0.03s CPU      0.03s WALL (      39 calls)

     Called by c_bands:
     init_us_2    :      0.82s CPU      0.84s WALL (    3348 calls)
     cegterg      :     51.44s CPU     52.29s WALL (    1404 calls)

     Called by sum_band:

     Called by *egterg:
     h_psi        :     37.73s CPU     38.56s WALL (    4723 calls)
     g_psi        :      0.29s CPU      0.29s WALL (    3283 calls)
     cdiaghg      :      7.30s CPU      7.31s WALL (    4363 calls)

     Called by h_psi:
     h_psi:pot    :     37.56s CPU     38.36s WALL (    4723 calls)
     h_psi:calbec :      2.10s CPU      2.12s WALL (    4723 calls)
     vloc_psi     :     33.69s CPU     34.45s WALL (    4723 calls)
     add_vuspsi   :      1.76s CPU      1.78s WALL (    4723 calls)

     General routines
     calbec       :      2.78s CPU      2.80s WALL (    5983 calls)
     fft          :      0.21s CPU      0.21s WALL (     653 calls)
     fftw         :     37.10s CPU     37.47s WALL (  289810 calls)
     davcio       :      0.00s CPU      0.01s WALL (      36 calls)
 
     Parallel routines
     fft_scatter  :     10.34s CPU      9.97s WALL (  290463 calls)
 
     PWSCF        :  1m 9.00s CPU     1m10.29s WALL

 
   This run was terminated on:  16:21:53  22Apr2018            

=------------------------------------------------------------------------------=
   JOB DONE.
=------------------------------------------------------------------------------=
