
     Program PWSCF v.6.1 (svn rev. 13369) starts on 22Apr2018 at 16:21:54 

     This program is part of the open-source Quantum ESPRESSO suite
     for quantum simulation of materials; please cite
         "P. Giannozzi et al., J. Phys.:Condens. Matter 21 395502 (2009);
          URL http://www.quantum-espresso.org", 
     in publications or presentations arising from this work. More details at
     http://www.quantum-espresso.org/quote

     Parallel version (MPI), running on     8 processors
     R & G space division:  proc/nbgrp/npool/nimage =       8
     Waiting for input...
     Reading input from standard input
Warning: card       &CELL ignored
Warning: card       CELL_DYNAMICS = 'BFGS' ignored
Warning: card       PRESS = 0.0D0 ignored
Warning: card       PRESS_CONV_THR = 0.01D0 ignored
Warning: card       / ignored

     Current dimensions of program PWSCF are:
     Max number of different atomic species (ntypx) = 10
     Max number of k-points (npk) =  40000
     Max angular momentum in pseudopotentials (lmaxx) =  3

     Subspace diagonalization in iterative solution of the eigenvalue problem:
     a serial algorithm will be used

 
     Parallelization info
     --------------------
     sticks:   dense  smooth     PW     G-vecs:    dense   smooth      PW
     Min         181     181     52                 5155     5155     814
     Max         182     182     53                 5157     5157     817
     Sum        1453    1453    421                41247    41247    6531
 


     bravais-lattice index     =            0
     lattice parameter (alat)  =       8.0448  a.u.
     unit-cell volume          =     520.6402 (a.u.)^3
     number of atoms/cell      =            8
     number of atomic types    =            2
     number of electrons       =        64.00
     number of Kohn-Sham states=           32
     kinetic-energy cutoff     =      70.0000  Ry
     charge density cutoff     =     280.0000  Ry
     convergence threshold     =      1.0E-08
     mixing beta               =       0.7000
     number of iterations used =            8  plain     mixing
     Exchange-correlation      = PBE ( 1  4  3  4 0 0)
     nstep                     =           50


     celldm(1)=   8.044750  celldm(2)=   0.000000  celldm(3)=   0.000000
     celldm(4)=   0.000000  celldm(5)=   0.000000  celldm(6)=   0.000000

     crystal axes: (cart. coord. in units of alat)
               a(1) = (   1.008571   0.000000   0.000000 )  
               a(2) = (   0.000000   0.991429   0.000000 )  
               a(3) = (   0.000000   0.000000   1.000073 )  

     reciprocal axes: (cart. coord. in units 2 pi/alat)
               b(1) = (  0.991502  0.000000  0.000000 )  
               b(2) = (  0.000000  1.008645  0.000000 )  
               b(3) = (  0.000000  0.000000  0.999927 )  


     PseudoPot. # 1 for Mg read from file:
     ../pseudo/Mg.pbe.UPF
     MD5 check sum: 4c04d8c6e0476e83eaecaf72fa8acc4d
     Pseudo is Norm-conserving, Zval = 10.0
     Generated using ONCVPSP code by D. R. Hamann
     Using radial grid of 1510 points,  4 beta functions with: 
                l(1) =   0
                l(2) =   0
                l(3) =   1
                l(4) =   1

     PseudoPot. # 2 for O  read from file:
     ../pseudo/O.pbe.UPF
     MD5 check sum: 3e3f909f7470e8921608ab6b1f57bbae
     Pseudo is Norm-conserving + core correction, Zval =  6.0
     Generated using ONCVPSP code by D. R. Hamann
     Using radial grid of  936 points,  5 beta functions with: 
                l(1) =   0
                l(2) =   0
                l(3) =   1
                l(4) =   1
                l(5) =   2

     atomic species   valence    mass     pseudopotential
        Mg            10.00    24.30500     Mg( 1.00)
        O              6.00    15.99940     O ( 1.00)

     No symmetry found



   Cartesian axes

     site n.     atom                  positions (alat units)
         1           Mg  tau(   1) = (   0.0000000   0.0000000   0.0000000  )
         2           Mg  tau(   2) = (   0.0000000   0.5000000   0.5000000  )
         3           Mg  tau(   3) = (   0.5000000   0.0000000   0.5000000  )
         4           Mg  tau(   4) = (   0.5000000   0.5000000   0.0000000  )
         5           O   tau(   5) = (   0.5000000   0.0000000   0.0000000  )
         6           O   tau(   6) = (   0.0000000   0.5000000   0.0000000  )
         7           O   tau(   7) = (   0.0000000   0.0000000   0.5000000  )
         8           O   tau(   8) = (   0.5000000   0.5000000   0.5000000  )

     number of k points=    36
                       cart. coord. in units 2pi/alat
        k(    1) = (   0.0000000   0.0000000   0.0000000), wk =   0.0312500
        k(    2) = (   0.0000000   0.0000000   0.2499816), wk =   0.0625000
        k(    3) = (   0.0000000   0.0000000  -0.4999633), wk =   0.0312500
        k(    4) = (   0.0000000   0.2521613   0.0000000), wk =   0.0625000
        k(    5) = (   0.0000000   0.2521613   0.2499816), wk =   0.0625000
        k(    6) = (   0.0000000   0.2521613  -0.4999633), wk =   0.0625000
        k(    7) = (   0.0000000  -0.5043225   0.0000000), wk =   0.0312500
        k(    8) = (   0.0000000  -0.5043225   0.2499816), wk =   0.0625000
        k(    9) = (   0.0000000  -0.5043225  -0.4999633), wk =   0.0312500
        k(   10) = (   0.2478755   0.0000000   0.0000000), wk =   0.0625000
        k(   11) = (   0.2478755   0.0000000   0.2499816), wk =   0.0625000
        k(   12) = (   0.2478755   0.0000000  -0.4999633), wk =   0.0625000
        k(   13) = (   0.2478755   0.2521613   0.0000000), wk =   0.0625000
        k(   14) = (   0.2478755   0.2521613   0.2499816), wk =   0.0625000
        k(   15) = (   0.2478755   0.2521613  -0.4999633), wk =   0.0625000
        k(   16) = (   0.2478755  -0.5043225   0.0000000), wk =   0.0625000
        k(   17) = (   0.2478755  -0.5043225   0.2499816), wk =   0.0625000
        k(   18) = (   0.2478755  -0.5043225  -0.4999633), wk =   0.0625000
        k(   19) = (  -0.4957509   0.0000000   0.0000000), wk =   0.0312500
        k(   20) = (  -0.4957509   0.0000000   0.2499816), wk =   0.0625000
        k(   21) = (  -0.4957509   0.0000000  -0.4999633), wk =   0.0312500
        k(   22) = (  -0.4957509   0.2521613   0.0000000), wk =   0.0625000
        k(   23) = (  -0.4957509   0.2521613   0.2499816), wk =   0.0625000
        k(   24) = (  -0.4957509   0.2521613  -0.4999633), wk =   0.0625000
        k(   25) = (  -0.4957509  -0.5043225   0.0000000), wk =   0.0312500
        k(   26) = (  -0.4957509  -0.5043225   0.2499816), wk =   0.0625000
        k(   27) = (  -0.4957509  -0.5043225  -0.4999633), wk =   0.0312500
        k(   28) = (   0.0000000  -0.2521613   0.2499816), wk =   0.0625000
        k(   29) = (  -0.2478755   0.0000000   0.2499816), wk =   0.0625000
        k(   30) = (  -0.2478755   0.2521613   0.0000000), wk =   0.0625000
        k(   31) = (  -0.2478755  -0.2521613   0.2499816), wk =   0.0625000
        k(   32) = (  -0.2478755   0.2521613  -0.2499816), wk =   0.0625000
        k(   33) = (   0.2478755  -0.2521613  -0.2499816), wk =   0.0625000
        k(   34) = (  -0.2478755   0.2521613   0.4999633), wk =   0.0625000
        k(   35) = (  -0.2478755   0.5043225   0.2499816), wk =   0.0625000
        k(   36) = (   0.4957509  -0.2521613   0.2499816), wk =   0.0625000

     Dense  grid:    41247 G-vectors     FFT dimensions: (  45,  45,  45)

     Estimated max dynamical RAM per process >      17.22MB

     Estimated total allocated dynamical RAM >     137.73MB

     Check: negative/imaginary core charge=   -0.000007    0.000000

     Initial potential from superposition of free atoms

     starting charge   63.99678, renormalised to   64.00000
     Starting wfc are   36 randomized atomic wfcs

     total cpu time spent up to now is        0.8 secs

     per-process dynamical memory:    51.3 Mb

     Self-consistent Calculation

     iteration #  1     ecut=    70.00 Ry     beta=0.70
     Davidson diagonalization with overlap
     ethr =  1.00E-02,  avg # of iterations =  2.0

     total cpu time spent up to now is        2.3 secs

     total energy              =    -607.71841210 Ry
     Harris-Foulkes estimate   =    -608.84355693 Ry
     estimated scf accuracy    <       1.56339718 Ry

     iteration #  2     ecut=    70.00 Ry     beta=0.70
     Davidson diagonalization with overlap
     ethr =  2.44E-03,  avg # of iterations =  2.9

     total cpu time spent up to now is        3.9 secs

     total energy              =    -608.10445751 Ry
     Harris-Foulkes estimate   =    -608.80255721 Ry
     estimated scf accuracy    <       1.44912105 Ry

     iteration #  3     ecut=    70.00 Ry     beta=0.70
     Davidson diagonalization with overlap
     ethr =  2.26E-03,  avg # of iterations =  2.0

     total cpu time spent up to now is        5.4 secs

     total energy              =    -608.39018812 Ry
     Harris-Foulkes estimate   =    -608.39085581 Ry
     estimated scf accuracy    <       0.00677289 Ry

     iteration #  4     ecut=    70.00 Ry     beta=0.70
     Davidson diagonalization with overlap
     ethr =  1.06E-05,  avg # of iterations =  2.0

     total cpu time spent up to now is        6.9 secs

     total energy              =    -608.39166889 Ry
     Harris-Foulkes estimate   =    -608.39171397 Ry
     estimated scf accuracy    <       0.00011160 Ry

     iteration #  5     ecut=    70.00 Ry     beta=0.70
     Davidson diagonalization with overlap
     ethr =  1.74E-07,  avg # of iterations =  1.9

     total cpu time spent up to now is        8.2 secs

     total energy              =    -608.39167672 Ry
     Harris-Foulkes estimate   =    -608.39167513 Ry
     estimated scf accuracy    <       0.00001030 Ry

     iteration #  6     ecut=    70.00 Ry     beta=0.70
     Davidson diagonalization with overlap
     ethr =  1.61E-08,  avg # of iterations =  2.0

     total cpu time spent up to now is        9.8 secs

     total energy              =    -608.39167812 Ry
     Harris-Foulkes estimate   =    -608.39167850 Ry
     estimated scf accuracy    <       0.00000079 Ry

     iteration #  7     ecut=    70.00 Ry     beta=0.70
     Davidson diagonalization with overlap
     ethr =  1.24E-09,  avg # of iterations =  2.0

     total cpu time spent up to now is       11.3 secs

     total energy              =    -608.39167816 Ry
     Harris-Foulkes estimate   =    -608.39167822 Ry
     estimated scf accuracy    <       0.00000015 Ry

     iteration #  8     ecut=    70.00 Ry     beta=0.70
     Davidson diagonalization with overlap
     ethr =  2.41E-10,  avg # of iterations =  2.0

     total cpu time spent up to now is       12.7 secs

     total energy              =    -608.39167816 Ry
     Harris-Foulkes estimate   =    -608.39167817 Ry
     estimated scf accuracy    <       0.00000002 Ry

     iteration #  9     ecut=    70.00 Ry     beta=0.70
     Davidson diagonalization with overlap
     ethr =  3.80E-11,  avg # of iterations =  2.0

     total cpu time spent up to now is       14.5 secs

     End of self-consistent calculation

          k = 0.0000 0.0000 0.0000 (  5153 PWs)   bands (ev):

   -64.8326 -64.8233 -64.8229 -64.8222 -31.6336 -31.6283 -31.6239 -31.5970
   -31.5949 -31.5928 -31.5896 -31.5874 -31.5862 -31.5708 -31.5634 -31.5578
    -9.3667  -7.9378  -7.9155  -7.8931   3.7301   3.7567   3.7871   6.3182
     6.3272   6.3710   6.3863   6.4335   6.4399   7.6503   7.6721   7.6886

          k = 0.0000 0.0000 0.2500 (  5157 PWs)   bands (ev):

   -64.8311 -64.8243 -64.8231 -64.8224 -31.6277 -31.6190 -31.6175 -31.6023
   -31.5938 -31.5913 -31.5906 -31.5903 -31.5829 -31.5762 -31.5750 -31.5647
    -9.1582  -8.1304  -7.9030  -7.8711   4.0220   4.0751   4.0934   5.8435
     5.8706   6.1270   6.2100   6.4950   6.5931   6.6587   7.4228   7.4750

          k = 0.0000 0.0000-0.5000 (  5126 PWs)   bands (ev):

   -64.8279 -64.8274 -64.8231 -64.8225 -31.6146 -31.6143 -31.6029 -31.6027
   -31.5992 -31.5991 -31.5897 -31.5897 -31.5834 -31.5831 -31.5741 -31.5739
    -8.6481  -8.6477  -7.8584  -7.8583   4.8246   4.8252   4.8685   4.8691
     5.1227   5.1230   5.9710   5.9714   6.9288   6.9292   7.0072   7.0076

          k = 0.0000 0.2522 0.0000 (  5157 PWs)   bands (ev):

   -64.8311 -64.8240 -64.8232 -64.8226 -31.6274 -31.6221 -31.6151 -31.6006
   -31.5947 -31.5934 -31.5890 -31.5871 -31.5864 -31.5752 -31.5708 -31.5698
    -9.1534  -8.1086  -7.9035  -7.8875   4.0277   4.0520   4.1087   5.8922
     5.9041   6.1157   6.1566   6.4874   6.5374   6.6400   7.4386   7.4633

          k = 0.0000 0.2522 0.2500 (  5147 PWs)   bands (ev):

   -64.8299 -64.8242 -64.8238 -64.8230 -31.6224 -31.6191 -31.6151 -31.6030
   -31.5985 -31.5973 -31.5887 -31.5841 -31.5814 -31.5806 -31.5786 -31.5634
    -8.9638  -8.0651  -8.0490  -7.9027   4.1540   4.1627   4.3090   5.0707
     5.8212   6.0449   6.0874   6.4445   6.4595   6.6120   7.1914   7.5010

          k = 0.0000 0.2522-0.5000 (  5146 PWs)   bands (ev):

   -64.8272 -64.8267 -64.8238 -64.8232 -31.6132 -31.6130 -31.6108 -31.6105
   -31.6070 -31.6069 -31.5879 -31.5876 -31.5799 -31.5798 -31.5694 -31.5692
    -8.5090  -8.5087  -7.9454  -7.9453   4.4054   4.4056   4.7292   4.7295
     5.0812   5.0818   6.5615   6.5619   6.6061   6.6066   7.0785   7.0786

          k = 0.0000-0.5043 0.0000 (  5134 PWs)   bands (ev):

   -64.8279 -64.8272 -64.8232 -64.8226 -31.6149 -31.6126 -31.6088 -31.6062
   -31.5960 -31.5929 -31.5865 -31.5862 -31.5842 -31.5832 -31.5801 -31.5784
    -8.6560  -8.6091  -7.8645  -7.8636   4.8116   4.8317   4.8853   4.9057
     5.0990   5.1301   5.9282   5.9285   6.9093   6.9489   6.9555   6.9937

          k = 0.0000-0.5043 0.2500 (  5148 PWs)   bands (ev):

   -64.8272 -64.8265 -64.8238 -64.8233 -31.6152 -31.6139 -31.6110 -31.6089
   -31.6061 -31.6046 -31.5905 -31.5887 -31.5776 -31.5770 -31.5715 -31.5712
    -8.5192  -8.4780  -7.9545  -7.9471   4.3901   4.4182   4.7060   4.7401
     5.0637   5.1351   6.5221   6.5514   6.5576   6.6074   7.0800   7.0949

          k = 0.0000-0.5043-0.5000 (  5152 PWs)   bands (ev):

   -64.8256 -64.8254 -64.8253 -64.8244 -31.6165 -31.6163 -31.6156 -31.6154
   -31.6008 -31.6006 -31.5989 -31.5986 -31.5700 -31.5698 -31.5691 -31.5689
    -8.2140  -8.2138  -8.1883  -8.1881   4.2533   4.2535   4.2665   4.2667
     5.7383   5.7389   5.8025   5.8030   7.0646   7.0649   7.0852   7.0855

          k = 0.2479 0.0000 0.0000 (  5158 PWs)   bands (ev):

   -64.8312 -64.8245 -64.8229 -64.8223 -31.6250 -31.6225 -31.6179 -31.5979
   -31.5975 -31.5961 -31.5920 -31.5862 -31.5825 -31.5814 -31.5690 -31.5634
    -9.1632  -8.1513  -7.8863  -7.8703   4.0405   4.0691   4.0793   5.8103
     5.8255   6.1817   6.2239   6.5471   6.5956   6.6741   7.4349   7.4621

          k = 0.2479 0.0000 0.2500 (  5147 PWs)   bands (ev):

   -64.8299 -64.8243 -64.8239 -64.8227 -31.6239 -31.6194 -31.6123 -31.6084
   -31.5931 -31.5898 -31.5887 -31.5878 -31.5859 -31.5843 -31.5695 -31.5676
    -8.9725  -8.0816  -8.0661  -7.8811   4.1586   4.1648   4.3477   5.0696
     5.8713   6.0242   6.0631   6.5100   6.5196   6.5587   7.1539   7.5073

          k = 0.2479 0.0000-0.5000 (  5156 PWs)   bands (ev):

   -64.8272 -64.8267 -64.8238 -64.8232 -31.6192 -31.6189 -31.6095 -31.6094
   -31.5988 -31.5985 -31.5843 -31.5842 -31.5784 -31.5781 -31.5781 -31.5779
    -8.5145  -8.5141  -7.9517  -7.9516   4.4293   4.4295   4.7697   4.7701
     5.1115   5.1121   6.5209   6.5212   6.5550   6.5554   7.1084   7.1085

          k = 0.2479 0.2522 0.0000 (  5150 PWs)   bands (ev):

   -64.8299 -64.8244 -64.8238 -64.8228 -31.6240 -31.6175 -31.6154 -31.6064
   -31.5935 -31.5920 -31.5908 -31.5889 -31.5843 -31.5806 -31.5733 -31.5651
    -8.9682  -8.0810  -8.0494  -7.8917   4.1534   4.1685   4.3260   5.0708
     5.8453   6.0139   6.0952   6.4680   6.4962   6.5875   7.1736   7.5036

          k = 0.2479 0.2522 0.2500 (  5152 PWs)   bands (ev):

   -64.8289 -64.8243 -64.8241 -64.8234 -31.6260 -31.6234 -31.6216 -31.6047
   -31.5933 -31.5922 -31.5913 -31.5853 -31.5806 -31.5781 -31.5735 -31.5651
    -8.7984  -8.0434  -8.0323  -8.0208   3.9965   3.9990   4.0032   5.0879
     5.8317   5.8442   5.8578   6.6797   6.7061   6.7289   7.3512   7.3570

          k = 0.2479 0.2522-0.5000 (  5150 PWs)   bands (ev):

   -64.8267 -64.8262 -64.8243 -64.8236 -31.6268 -31.6268 -31.6201 -31.6198
   -31.5925 -31.5922 -31.5804 -31.5801 -31.5778 -31.5777 -31.5718 -31.5716
    -8.4012  -8.4009  -7.9986  -7.9986   3.8206   3.8210   4.1968   4.1973
     5.8283   5.8287   6.7382   6.7386   6.8674   6.8685   7.0159   7.0163

          k = 0.2479-0.5043 0.0000 (  5148 PWs)   bands (ev):

   -64.8272 -64.8265 -64.8238 -64.8233 -31.6186 -31.6172 -31.6079 -31.6067
   -31.6053 -31.6030 -31.5849 -31.5831 -31.5795 -31.5789 -31.5753 -31.5746
    -8.5221  -8.4806  -7.9580  -7.9492   4.4032   4.4316   4.7271   4.7610
     5.0756   5.1472   6.5079   6.5259   6.5349   6.5790   7.0952   7.1090

          k = 0.2479-0.5043 0.2500 (  5138 PWs)   bands (ev):

   -64.8267 -64.8261 -64.8243 -64.8237 -31.6273 -31.6271 -31.6192 -31.6189
   -31.5941 -31.5939 -31.5806 -31.5796 -31.5754 -31.5753 -31.5724 -31.5718
    -8.4103  -8.3751  -8.0017  -8.0011   3.8184   3.8188   4.1665   4.2013
     5.8291   5.8305   6.7317   6.7325   6.8721   6.8877   6.9847   7.0176

          k = 0.2479-0.5043-0.5000 (  5136 PWs)   bands (ev):

   -64.8256 -64.8254 -64.8254 -64.8245 -31.6299 -31.6296 -31.6296 -31.6295
   -31.5857 -31.5855 -31.5849 -31.5847 -31.5698 -31.5696 -31.5693 -31.5691
    -8.1756  -8.1754  -8.1573  -8.1571   3.6202   3.6203   3.6376   3.6378
     6.4941   6.4944   6.5318   6.5322   7.0683   7.0685   7.0827   7.0829

          k =-0.4958 0.0000 0.0000 (  5158 PWs)   bands (ev):

   -64.8282 -64.8275 -64.8229 -64.8224 -31.6105 -31.6083 -31.6070 -31.6046
   -31.6040 -31.6018 -31.5972 -31.5970 -31.5785 -31.5773 -31.5742 -31.5728
    -8.6855  -8.6395  -7.8525  -7.8516   4.7871   4.8111   4.8584   4.8822
     5.1165   5.1417   6.0140   6.0144   6.9414   6.9817   6.9853   7.0243

          k =-0.4958 0.0000 0.2500 (  5160 PWs)   bands (ev):

   -64.8274 -64.8268 -64.8236 -64.8231 -31.6178 -31.6166 -31.6124 -31.6108
   -31.6007 -31.5986 -31.5872 -31.5863 -31.5785 -31.5769 -31.5753 -31.5749
    -8.5442  -8.5035  -7.9507  -7.9420   4.4144   4.4438   4.7613   4.7908
     5.0611   5.1300   6.5301   6.5560   6.5609   6.6009   7.0928   7.1042

          k =-0.4958 0.0000-0.5000 (  5196 PWs)   bands (ev):

   -64.8256 -64.8254 -64.8253 -64.8245 -31.6196 -31.6194 -31.6187 -31.6186
   -31.5903 -31.5900 -31.5885 -31.5882 -31.5785 -31.5784 -31.5778 -31.5777
    -8.2261  -8.2258  -8.2000  -8.1998   4.3190   4.3191   4.3301   4.3302
     5.7338   5.7343   5.7956   5.7962   7.0376   7.0379   7.0597   7.0600

          k =-0.4958 0.2522 0.0000 (  5148 PWs)   bands (ev):

   -64.8274 -64.8268 -64.8236 -64.8231 -31.6158 -31.6147 -31.6112 -31.6096
   -31.6067 -31.6047 -31.5844 -31.5835 -31.5827 -31.5813 -31.5701 -31.5696
    -8.5414  -8.5008  -7.9465  -7.9392   4.4039   4.4329   4.7415   4.7716
     5.0427   5.1118   6.5591   6.5734   6.5837   6.6233   7.0773   7.0895

          k =-0.4958 0.2522 0.2500 (  5144 PWs)   bands (ev):

   -64.8268 -64.8263 -64.8241 -64.8236 -31.6265 -31.6264 -31.6208 -31.6203
   -31.5894 -31.5890 -31.5825 -31.5821 -31.5783 -31.5782 -31.5719 -31.5709
    -8.4262  -8.3915  -7.9960  -7.9954   3.8223   3.8226   4.1946   4.2268
     5.8271   5.8285   6.7451   6.7457   6.8491   6.8612   7.0139   7.0451

          k =-0.4958 0.2522-0.5000 (  5148 PWs)   bands (ev):

   -64.8256 -64.8254 -64.8254 -64.8245 -31.6310 -31.6308 -31.6307 -31.6305
   -31.5792 -31.5790 -31.5789 -31.5787 -31.5753 -31.5751 -31.5749 -31.5748
    -8.1819  -8.1817  -8.1632  -8.1630   3.6420   3.6422   3.6589   3.6591
     6.5161   6.5164   6.5513   6.5516   7.0422   7.0424   7.0580   7.0582

          k =-0.4958-0.5043 0.0000 (  5192 PWs)   bands (ev):

   -64.8257 -64.8255 -64.8252 -64.8244 -31.6189 -31.6179 -31.6176 -31.6171
   -31.5972 -31.5954 -31.5952 -31.5935 -31.5743 -31.5738 -31.5732 -31.5728
    -8.2329  -8.2068  -8.2057  -8.1813   4.2806   4.2917   4.2936   4.3051
     5.7028   5.7649   5.7677   5.8290   7.0399   7.0617   7.0622   7.0825

          k =-0.4958-0.5043 0.2500 (  5136 PWs)   bands (ev):

   -64.8256 -64.8255 -64.8253 -64.8244 -31.6305 -31.6302 -31.6301 -31.6300
   -31.5833 -31.5827 -31.5823 -31.5819 -31.5719 -31.5717 -31.5712 -31.5711
    -8.1882  -8.1692  -8.1684  -8.1512   3.6227   3.6390   3.6404   3.6571
     6.4862   6.5224   6.5241   6.5592   7.0474   7.0632   7.0633   7.0775

          k =-0.4958-0.5043-0.5000 (  5136 PWs)   bands (ev):

   -64.8255 -64.8255 -64.8254 -64.8245 -31.6384 -31.6381 -31.6381 -31.6379
   -31.5775 -31.5772 -31.5772 -31.5771 -31.5691 -31.5689 -31.5689 -31.5687
    -8.1317  -8.1316  -8.1308  -8.1307   3.2169   3.2169   3.2173   3.2173
     7.0487   7.0488   7.0496   7.0497   7.0777   7.0778   7.0785   7.0786

          k = 0.0000-0.2522 0.2500 (  5147 PWs)   bands (ev):

   -64.8299 -64.8242 -64.8238 -64.8230 -31.6224 -31.6191 -31.6151 -31.6030
   -31.5985 -31.5973 -31.5887 -31.5841 -31.5814 -31.5806 -31.5786 -31.5634
    -8.9638  -8.0651  -8.0490  -7.9027   4.1540   4.1627   4.3090   5.0707
     5.8212   6.0449   6.0874   6.4445   6.4595   6.6120   7.1914   7.5010

          k =-0.2479 0.0000 0.2500 (  5147 PWs)   bands (ev):

   -64.8299 -64.8243 -64.8239 -64.8227 -31.6239 -31.6194 -31.6123 -31.6084
   -31.5931 -31.5898 -31.5887 -31.5878 -31.5859 -31.5843 -31.5695 -31.5676
    -8.9725  -8.0816  -8.0661  -7.8811   4.1586   4.1648   4.3477   5.0696
     5.8713   6.0242   6.0631   6.5100   6.5196   6.5587   7.1539   7.5073

          k =-0.2479 0.2522 0.0000 (  5150 PWs)   bands (ev):

   -64.8299 -64.8243 -64.8238 -64.8228 -31.6241 -31.6175 -31.6154 -31.6064
   -31.5935 -31.5919 -31.5908 -31.5889 -31.5844 -31.5806 -31.5733 -31.5651
    -8.9682  -8.0810  -8.0494  -7.8917   4.1534   4.1685   4.3260   5.0708
     5.8453   6.0139   6.0952   6.4681   6.4962   6.5875   7.1736   7.5036

          k =-0.2479-0.2522 0.2500 (  5152 PWs)   bands (ev):

   -64.8289 -64.8243 -64.8241 -64.8234 -31.6260 -31.6234 -31.6216 -31.6047
   -31.5933 -31.5922 -31.5913 -31.5853 -31.5806 -31.5781 -31.5735 -31.5651
    -8.7984  -8.0434  -8.0323  -8.0208   3.9965   3.9990   4.0032   5.0879
     5.8317   5.8442   5.8578   6.6797   6.7061   6.7289   7.3512   7.3570

          k =-0.2479 0.2522-0.2500 (  5152 PWs)   bands (ev):

   -64.8289 -64.8243 -64.8241 -64.8234 -31.6260 -31.6234 -31.6216 -31.6047
   -31.5932 -31.5923 -31.5912 -31.5854 -31.5807 -31.5781 -31.5736 -31.5651
    -8.7983  -8.0434  -8.0323  -8.0208   3.9965   3.9990   4.0032   5.0879
     5.8317   5.8442   5.8578   6.6797   6.7061   6.7289   7.3512   7.3570

          k = 0.2479-0.2522-0.2500 (  5152 PWs)   bands (ev):

   -64.8289 -64.8243 -64.8241 -64.8234 -31.6260 -31.6234 -31.6216 -31.6047
   -31.5932 -31.5923 -31.5912 -31.5854 -31.5807 -31.5781 -31.5736 -31.5651
    -8.7983  -8.0434  -8.0323  -8.0208   3.9965   3.9990   4.0032   5.0879
     5.8317   5.8442   5.8578   6.6797   6.7061   6.7289   7.3512   7.3570

          k =-0.2479 0.2522 0.5000 (  5150 PWs)   bands (ev):

   -64.8267 -64.8262 -64.8243 -64.8236 -31.6271 -31.6267 -31.6199 -31.6199
   -31.5924 -31.5922 -31.5803 -31.5802 -31.5779 -31.5777 -31.5718 -31.5716
    -8.4012  -8.4009  -7.9987  -7.9985   3.8206   3.8211   4.1969   4.1972
     5.8283   5.8286   6.7383   6.7384   6.8675   6.8683   7.0159   7.0163

          k =-0.2479 0.5043 0.2500 (  5138 PWs)   bands (ev):

   -64.8267 -64.8261 -64.8243 -64.8237 -31.6273 -31.6271 -31.6192 -31.6189
   -31.5941 -31.5939 -31.5806 -31.5796 -31.5754 -31.5753 -31.5724 -31.5718
    -8.4103  -8.3751  -8.0017  -8.0011   3.8184   3.8188   4.1665   4.2013
     5.8291   5.8305   6.7317   6.7325   6.8721   6.8877   6.9847   7.0176

          k = 0.4958-0.2522 0.2500 (  5144 PWs)   bands (ev):

   -64.8268 -64.8263 -64.8241 -64.8236 -31.6265 -31.6264 -31.6208 -31.6203
   -31.5894 -31.5890 -31.5825 -31.5821 -31.5783 -31.5782 -31.5719 -31.5709
    -8.4262  -8.3915  -7.9960  -7.9954   3.8223   3.8226   4.1946   4.2268
     5.8271   5.8285   6.7451   6.7457   6.8491   6.8612   7.0139   7.0451

     highest occupied level (ev):     7.6886

!    total energy              =    -608.39167817 Ry
     Harris-Foulkes estimate   =    -608.39167817 Ry
     estimated scf accuracy    <          4.1E-09 Ry

     The total energy is the sum of the following terms:

     one-electron contribution =    -303.73218539 Ry
     hartree contribution      =     168.15739656 Ry
     xc contribution           =     -97.84898162 Ry
     ewald contribution        =    -374.96790772 Ry

     convergence has been achieved in   9 iterations

     Forces acting on atoms (cartesian axes, Ry/au):

     atom    1 type  1   force =    -0.00422184    0.00520246   -0.00003923
     atom    2 type  1   force =    -0.00422447   -0.00515695    0.00003823
     atom    3 type  1   force =     0.00417307    0.00520486    0.00003820
     atom    4 type  1   force =     0.00406618   -0.00506086   -0.00003973
     atom    5 type  2   force =     0.00499047    0.00583568   -0.00004535
     atom    6 type  2   force =    -0.00489616   -0.00592273   -0.00004525
     atom    7 type  2   force =    -0.00489462    0.00583566    0.00004649
     atom    8 type  2   force =     0.00500738   -0.00593813    0.00004663

     Total force =     0.020307     Total SCF correction =     0.000059


     Computing stress (Cartesian axis) and pressure

          total   stress  (Ry/bohr**3)                   (kbar)     P=  -66.85
  -0.00055078   0.00000002  -0.00000000        -81.02      0.00     -0.00
   0.00000002  -0.00034763   0.00000000          0.00    -51.14      0.00
  -0.00000000   0.00000000  -0.00046482         -0.00      0.00    -68.38


     BFGS Geometry Optimization

     number of scf cycles    =   1
     number of bfgs steps    =   0

     energy   new            =    -608.3916781650 Ry

     new trust radius        =       0.0077677178 bohr
     new conv_thr            =       0.0000000100 Ry


ATOMIC_POSITIONS (alat)
Mg      -0.000524795   0.000646690  -0.000004876
Mg      -0.000525121   0.499358967   0.500004752
Mg       0.500518732   0.000646989   0.500004748
Mg       0.500505445   0.499370912  -0.000004938
O        0.500620338   0.000725402  -0.000005637
O       -0.000608616   0.499263777  -0.000005625
O       -0.000608424   0.000725400   0.500005779
O        0.500622441   0.499261862   0.500005797



     Writing output data file diamond.1.008571.70.4.save
     NEW-OLD atomic charge density approx. for the potential

     Check: negative/imaginary core charge=   -0.000007    0.000000

     total cpu time spent up to now is       15.3 secs

     per-process dynamical memory:    56.0 Mb

     Self-consistent Calculation

     iteration #  1     ecut=    70.00 Ry     beta=0.70
     Davidson diagonalization with overlap
     ethr =  1.00E-06,  avg # of iterations =  3.0

     total cpu time spent up to now is       17.7 secs

     total energy              =    -608.39199961 Ry
     Harris-Foulkes estimate   =    -608.39205644 Ry
     estimated scf accuracy    <       0.00007749 Ry

     iteration #  2     ecut=    70.00 Ry     beta=0.70
     Davidson diagonalization with overlap
     ethr =  1.21E-07,  avg # of iterations =  2.2

     total cpu time spent up to now is       19.2 secs

     total energy              =    -608.39202370 Ry
     Harris-Foulkes estimate   =    -608.39203199 Ry
     estimated scf accuracy    <       0.00001380 Ry

     iteration #  3     ecut=    70.00 Ry     beta=0.70
     Davidson diagonalization with overlap
     ethr =  2.16E-08,  avg # of iterations =  2.0

     total cpu time spent up to now is       20.6 secs

     total energy              =    -608.39202666 Ry
     Harris-Foulkes estimate   =    -608.39202662 Ry
     estimated scf accuracy    <       0.00000009 Ry

     iteration #  4     ecut=    70.00 Ry     beta=0.70
     Davidson diagonalization with overlap
     ethr =  1.47E-10,  avg # of iterations =  2.9

     total cpu time spent up to now is       22.4 secs

     total energy              =    -608.39202668 Ry
     Harris-Foulkes estimate   =    -608.39202669 Ry
     estimated scf accuracy    <       0.00000002 Ry

     iteration #  5     ecut=    70.00 Ry     beta=0.70
     Davidson diagonalization with overlap
     ethr =  3.08E-11,  avg # of iterations =  2.0

     total cpu time spent up to now is       23.9 secs

     End of self-consistent calculation

          k = 0.0000 0.0000 0.0000 (  5153 PWs)   bands (ev):

   -64.8333 -64.8240 -64.8236 -64.8230 -31.6342 -31.6289 -31.6245 -31.5976
   -31.5956 -31.5935 -31.5902 -31.5881 -31.5868 -31.5714 -31.5640 -31.5584
    -9.3659  -7.9374  -7.9149  -7.8927   3.7303   3.7574   3.7872   6.3186
     6.3273   6.3716   6.3868   6.4337   6.4403   7.6509   7.6723   7.6892

          k = 0.0000 0.0000 0.2500 (  5157 PWs)   bands (ev):

   -64.8319 -64.8250 -64.8239 -64.8231 -31.6282 -31.6196 -31.6181 -31.6030
   -31.5943 -31.5920 -31.5911 -31.5909 -31.5836 -31.5769 -31.5756 -31.5653
    -9.1575  -8.1298  -7.9026  -7.8707   4.0223   4.0752   4.0941   5.8439
     5.8709   6.1279   6.2112   6.4944   6.5929   6.6589   7.4230   7.4752

          k = 0.0000 0.0000-0.5000 (  5126 PWs)   bands (ev):

   -64.8287 -64.8282 -64.8238 -64.8232 -31.6152 -31.6149 -31.6032 -31.6030
   -31.6001 -31.6001 -31.5902 -31.5902 -31.5841 -31.5839 -31.5748 -31.5745
    -8.6474  -8.6471  -7.8580  -7.8579   4.8252   4.8256   4.8690   4.8694
     5.1227   5.1231   5.9722   5.9725   6.9286   6.9289   7.0072   7.0074

          k = 0.0000 0.2522 0.0000 (  5157 PWs)   bands (ev):

   -64.8318 -64.8248 -64.8239 -64.8233 -31.6280 -31.6226 -31.6157 -31.6013
   -31.5954 -31.5939 -31.5896 -31.5877 -31.5870 -31.5759 -31.5714 -31.5705
    -9.1526  -8.1083  -7.9030  -7.8870   4.0281   4.0529   4.1089   5.8921
     5.9043   6.1161   6.1571   6.4879   6.5376   6.6404   7.4386   7.4635

          k = 0.0000 0.2522 0.2500 (  5147 PWs)   bands (ev):

   -64.8306 -64.8249 -64.8246 -64.8237 -31.6230 -31.6196 -31.6157 -31.6036
   -31.5991 -31.5980 -31.5892 -31.5848 -31.5819 -31.5813 -31.5793 -31.5640
    -8.9630  -8.0645  -8.0487  -7.9022   4.1547   4.1630   4.3095   5.0711
     5.8216   6.0456   6.0874   6.4450   6.4595   6.6118   7.1915   7.5014

          k = 0.0000 0.2522-0.5000 (  5146 PWs)   bands (ev):

   -64.8279 -64.8275 -64.8245 -64.8239 -31.6136 -31.6135 -31.6112 -31.6109
   -31.6078 -31.6077 -31.5885 -31.5882 -31.5805 -31.5804 -31.5700 -31.5698
    -8.5082  -8.5080  -7.9450  -7.9449   4.4058   4.4059   4.7298   4.7301
     5.0815   5.0819   6.5639   6.5641   6.6044   6.6047   7.0785   7.0786

          k = 0.0000-0.5043 0.0000 (  5134 PWs)   bands (ev):

   -64.8286 -64.8280 -64.8239 -64.8234 -31.6151 -31.6135 -31.6091 -31.6073
   -31.5962 -31.5940 -31.5868 -31.5866 -31.5850 -31.5842 -31.5805 -31.5793
    -8.6476  -8.6163  -7.8638  -7.8633   4.8240   4.8444   4.8735   4.8940
     5.1042   5.1249   5.9288   5.9290   6.9173   6.9481   6.9565   6.9863

          k = 0.0000-0.5043 0.2500 (  5148 PWs)   bands (ev):

   -64.8279 -64.8273 -64.8246 -64.8240 -31.6156 -31.6147 -31.6111 -31.6096
   -31.6067 -31.6056 -31.5909 -31.5896 -31.5781 -31.5777 -31.5721 -31.5719
    -8.5118  -8.4843  -7.9527  -7.9478   4.3952   4.4142   4.7123   4.7348
     5.0752   5.1231   6.5297   6.5485   6.5638   6.5977   7.0828   7.0928

          k = 0.0000-0.5043-0.5000 (  5152 PWs)   bands (ev):

   -64.8263 -64.8261 -64.8261 -64.8252 -31.6169 -31.6167 -31.6162 -31.6161
   -31.6012 -31.6010 -31.5999 -31.5996 -31.5705 -31.5703 -31.5698 -31.5697
    -8.2092  -8.2090  -8.1920  -8.1918   4.2560   4.2562   4.2646   4.2647
     5.7491   5.7494   5.7920   5.7924   7.0686   7.0688   7.0822   7.0824

          k = 0.2479 0.0000 0.0000 (  5158 PWs)   bands (ev):

   -64.8319 -64.8253 -64.8236 -64.8231 -31.6256 -31.6231 -31.6184 -31.5986
   -31.5981 -31.5967 -31.5926 -31.5868 -31.5832 -31.5820 -31.5697 -31.5640
    -9.1624  -8.1510  -7.8857  -7.8699   4.0414   4.0693   4.0796   5.8106
     5.8253   6.1823   6.2246   6.5471   6.5961   6.6745   7.4351   7.4622

          k = 0.2479 0.0000 0.2500 (  5147 PWs)   bands (ev):

   -64.8307 -64.8251 -64.8246 -64.8234 -31.6245 -31.6199 -31.6128 -31.6090
   -31.5937 -31.5903 -31.5894 -31.5884 -31.5865 -31.5850 -31.5702 -31.5682
    -8.9717  -8.0812  -8.0655  -7.8807   4.1589   4.1655   4.3480   5.0701
     5.8717   6.0241   6.0637   6.5101   6.5216   6.5571   7.1540   7.5077

          k = 0.2479 0.0000-0.5000 (  5156 PWs)   bands (ev):

   -64.8279 -64.8275 -64.8245 -64.8239 -31.6197 -31.6195 -31.6101 -31.6100
   -31.5994 -31.5992 -31.5849 -31.5848 -31.5790 -31.5788 -31.5787 -31.5786
    -8.5137  -8.5135  -7.9513  -7.9512   4.4297   4.4299   4.7705   4.7707
     5.1116   5.1120   6.5245   6.5247   6.5520   6.5523   7.1085   7.1086

          k = 0.2479 0.2522 0.0000 (  5150 PWs)   bands (ev):

   -64.8306 -64.8251 -64.8245 -64.8236 -31.6246 -31.6181 -31.6159 -31.6070
   -31.5942 -31.5924 -31.5915 -31.5897 -31.5850 -31.5813 -31.5740 -31.5657
    -8.9673  -8.0806  -8.0490  -7.8912   4.1538   4.1688   4.3271   5.0709
     5.8460   6.0143   6.0955   6.4690   6.4970   6.5861   7.1735   7.5041

          k = 0.2479 0.2522 0.2500 (  5152 PWs)   bands (ev):

   -64.8296 -64.8251 -64.8249 -64.8242 -31.6265 -31.6240 -31.6222 -31.6052
   -31.5939 -31.5929 -31.5919 -31.5860 -31.5813 -31.5788 -31.5742 -31.5658
    -8.7975  -8.0430  -8.0318  -8.0204   3.9968   3.9995   4.0036   5.0884
     5.8319   5.8446   5.8580   6.6801   6.7060   6.7293   7.3515   7.3573

          k = 0.2479 0.2522-0.5000 (  5150 PWs)   bands (ev):

   -64.8274 -64.8270 -64.8250 -64.8244 -31.6275 -31.6273 -31.6206 -31.6204
   -31.5931 -31.5929 -31.5810 -31.5807 -31.5784 -31.5783 -31.5725 -31.5723
    -8.4004  -8.4002  -7.9982  -7.9982   3.8211   3.8213   4.1971   4.1975
     5.8287   5.8289   6.7393   6.7396   6.8677   6.8683   7.0158   7.0160

          k = 0.2479-0.5043 0.0000 (  5148 PWs)   bands (ev):

   -64.8279 -64.8273 -64.8246 -64.8240 -31.6190 -31.6180 -31.6083 -31.6074
   -31.6055 -31.6039 -31.5853 -31.5840 -31.5800 -31.5796 -31.5758 -31.5754
    -8.5145  -8.4869  -7.9561  -7.9502   4.4080   4.4272   4.7331   4.7554
     5.0880   5.1360   6.5128   6.5308   6.5349   6.5703   7.0976   7.1070

          k = 0.2479-0.5043 0.2500 (  5138 PWs)   bands (ev):

   -64.8274 -64.8269 -64.8250 -64.8245 -31.6279 -31.6277 -31.6198 -31.6195
   -31.5947 -31.5946 -31.5810 -31.5803 -31.5760 -31.5759 -31.5729 -31.5725
    -8.4038  -8.3803  -8.0011  -8.0007   3.8188   3.8191   4.1726   4.1955
     5.8298   5.8308   6.7321   6.7327   6.8748   6.8854   6.9903   7.0122

          k = 0.2479-0.5043-0.5000 (  5136 PWs)   bands (ev):

   -64.8263 -64.8261 -64.8261 -64.8252 -31.6304 -31.6302 -31.6302 -31.6301
   -31.5862 -31.5860 -31.5857 -31.5854 -31.5704 -31.5702 -31.5700 -31.5698
    -8.1720  -8.1719  -8.1597  -8.1596   3.6234   3.6235   3.6349   3.6350
     6.5006   6.5009   6.5259   6.5261   7.0712   7.0714   7.0807   7.0809

          k =-0.4958 0.0000 0.0000 (  5158 PWs)   bands (ev):

   -64.8289 -64.8283 -64.8236 -64.8231 -31.6108 -31.6092 -31.6071 -31.6053
   -31.6046 -31.6029 -31.5978 -31.5976 -31.5790 -31.5781 -31.5747 -31.5736
    -8.6786  -8.6453  -7.8519  -7.8513   4.7975   4.8210   4.8492   4.8727
     5.1201   5.1383   6.0147   6.0150   6.9475   6.9791   6.9879   7.0186

          k =-0.4958 0.0000 0.2500 (  5160 PWs)   bands (ev):

   -64.8281 -64.8275 -64.8243 -64.8238 -31.6182 -31.6173 -31.6127 -31.6115
   -31.6011 -31.5995 -31.5878 -31.5870 -31.5789 -31.5778 -31.5759 -31.5756
    -8.5380  -8.5085  -7.9489  -7.9427   4.4189   4.4404   4.7661   4.7872
     5.0701   5.1202   6.5391   6.5580   6.5598   6.5919   7.0947   7.1030

          k =-0.4958 0.0000-0.5000 (  5196 PWs)   bands (ev):

   -64.8263 -64.8261 -64.8261 -64.8252 -31.6201 -31.6199 -31.6194 -31.6192
   -31.5907 -31.5904 -31.5894 -31.5891 -31.5791 -31.5789 -31.5785 -31.5784
    -8.2219  -8.2217  -8.2030  -8.2029   4.3211   4.3213   4.3288   4.3290
     5.7423   5.7427   5.7872   5.7875   7.0412   7.0414   7.0571   7.0573

          k =-0.4958 0.2522 0.0000 (  5148 PWs)   bands (ev):

   -64.8281 -64.8275 -64.8243 -64.8238 -31.6162 -31.6154 -31.6116 -31.6104
   -31.6070 -31.6056 -31.5850 -31.5843 -31.5832 -31.5821 -31.5707 -31.5703
    -8.5351  -8.5058  -7.9450  -7.9398   4.4080   4.4292   4.7461   4.7675
     5.0529   5.1030   6.5630   6.5804   6.5807   6.6165   7.0790   7.0880

          k =-0.4958 0.2522 0.2500 (  5144 PWs)   bands (ev):

   -64.8275 -64.8270 -64.8249 -64.8243 -31.6271 -31.6270 -31.6213 -31.6209
   -31.5900 -31.5896 -31.5831 -31.5828 -31.5789 -31.5788 -31.5724 -31.5717
    -8.4207  -8.3956  -7.9955  -7.9950   3.8227   3.8229   4.1994   4.2224
     5.8277   5.8287   6.7457   6.7462   6.8508   6.8598   7.0184   7.0409

          k =-0.4958 0.2522-0.5000 (  5148 PWs)   bands (ev):

   -64.8263 -64.8261 -64.8261 -64.8252 -31.6316 -31.6313 -31.6313 -31.6312
   -31.5798 -31.5796 -31.5795 -31.5794 -31.5759 -31.5757 -31.5756 -31.5755
    -8.1787  -8.1785  -8.1652  -8.1650   3.6447   3.6448   3.6567   3.6568
     6.5213   6.5215   6.5467   6.5469   7.0449   7.0451   7.0562   7.0564

          k =-0.4958-0.5043 0.0000 (  5192 PWs)   bands (ev):

   -64.8263 -64.8262 -64.8260 -64.8252 -31.6191 -31.6185 -31.6183 -31.6179
   -31.5974 -31.5960 -31.5959 -31.5946 -31.5748 -31.5744 -31.5739 -31.5737
    -8.2243  -8.2063  -8.2056  -8.1884   4.2848   4.2925   4.2932   4.3012
     5.7224   5.7658   5.7674   5.8103   7.0471   7.0617   7.0625   7.0764

          k =-0.4958-0.5043 0.2500 (  5136 PWs)   bands (ev):

   -64.8263 -64.8262 -64.8260 -64.8252 -31.6310 -31.6308 -31.6307 -31.6306
   -31.5838 -31.5833 -31.5831 -31.5827 -31.5724 -31.5722 -31.5719 -31.5718
    -8.1817  -8.1687  -8.1682  -8.1560   3.6282   3.6399   3.6399   3.6518
     6.4979   6.5231   6.5240   6.5486   7.0526   7.0629   7.0638   7.0734

          k =-0.4958-0.5043-0.5000 (  5136 PWs)   bands (ev):

   -64.8262 -64.8262 -64.8261 -64.8252 -31.6389 -31.6387 -31.6386 -31.6386
   -31.5781 -31.5779 -31.5779 -31.5778 -31.5698 -31.5696 -31.5695 -31.5694
    -8.1309  -8.1308  -8.1304  -8.1303   3.2171   3.2172   3.2173   3.2173
     7.0494   7.0495   7.0498   7.0499   7.0783   7.0784   7.0787   7.0788

          k = 0.0000-0.2522 0.2500 (  5147 PWs)   bands (ev):

   -64.8306 -64.8249 -64.8246 -64.8237 -31.6230 -31.6196 -31.6157 -31.6036
   -31.5991 -31.5980 -31.5892 -31.5848 -31.5819 -31.5813 -31.5793 -31.5640
    -8.9630  -8.0645  -8.0487  -7.9022   4.1547   4.1630   4.3095   5.0711
     5.8216   6.0456   6.0874   6.4450   6.4595   6.6118   7.1915   7.5014

          k =-0.2479 0.0000 0.2500 (  5147 PWs)   bands (ev):

   -64.8307 -64.8251 -64.8246 -64.8234 -31.6245 -31.6199 -31.6128 -31.6090
   -31.5937 -31.5903 -31.5894 -31.5884 -31.5865 -31.5850 -31.5702 -31.5682
    -8.9717  -8.0812  -8.0655  -7.8807   4.1589   4.1655   4.3480   5.0701
     5.8717   6.0241   6.0637   6.5101   6.5216   6.5571   7.1540   7.5077

          k =-0.2479 0.2522 0.0000 (  5150 PWs)   bands (ev):

   -64.8306 -64.8251 -64.8245 -64.8236 -31.6246 -31.6181 -31.6159 -31.6070
   -31.5942 -31.5924 -31.5915 -31.5897 -31.5850 -31.5813 -31.5740 -31.5657
    -8.9673  -8.0806  -8.0490  -7.8912   4.1538   4.1688   4.3271   5.0709
     5.8460   6.0143   6.0955   6.4690   6.4970   6.5861   7.1735   7.5041

          k =-0.2479-0.2522 0.2500 (  5152 PWs)   bands (ev):

   -64.8296 -64.8251 -64.8249 -64.8242 -31.6265 -31.6240 -31.6222 -31.6052
   -31.5939 -31.5929 -31.5919 -31.5860 -31.5813 -31.5788 -31.5742 -31.5658
    -8.7975  -8.0430  -8.0318  -8.0204   3.9968   3.9995   4.0036   5.0884
     5.8319   5.8446   5.8580   6.6801   6.7060   6.7293   7.3515   7.3573

          k =-0.2479 0.2522-0.2500 (  5152 PWs)   bands (ev):

   -64.8296 -64.8251 -64.8249 -64.8242 -31.6265 -31.6240 -31.6222 -31.6052
   -31.5939 -31.5929 -31.5919 -31.5860 -31.5813 -31.5788 -31.5742 -31.5658
    -8.7975  -8.0430  -8.0318  -8.0204   3.9968   3.9995   4.0036   5.0884
     5.8320   5.8446   5.8580   6.6801   6.7060   6.7293   7.3515   7.3573

          k = 0.2479-0.2522-0.2500 (  5152 PWs)   bands (ev):

   -64.8296 -64.8251 -64.8249 -64.8242 -31.6265 -31.6240 -31.6222 -31.6052
   -31.5939 -31.5929 -31.5919 -31.5860 -31.5813 -31.5788 -31.5742 -31.5658
    -8.7975  -8.0430  -8.0318  -8.0204   3.9968   3.9995   4.0036   5.0884
     5.8320   5.8446   5.8580   6.6801   6.7060   6.7293   7.3515   7.3573

          k =-0.2479 0.2522 0.5000 (  5150 PWs)   bands (ev):

   -64.8274 -64.8270 -64.8250 -64.8244 -31.6276 -31.6273 -31.6205 -31.6204
   -31.5931 -31.5928 -31.5809 -31.5808 -31.5785 -31.5783 -31.5725 -31.5723
    -8.4004  -8.4002  -7.9983  -7.9982   3.8210   3.8213   4.1972   4.1974
     5.8287   5.8288   6.7393   6.7395   6.8678   6.8681   7.0158   7.0160

          k =-0.2479 0.5043 0.2500 (  5138 PWs)   bands (ev):

   -64.8274 -64.8269 -64.8250 -64.8245 -31.6279 -31.6277 -31.6198 -31.6195
   -31.5947 -31.5946 -31.5810 -31.5803 -31.5760 -31.5759 -31.5729 -31.5725
    -8.4038  -8.3803  -8.0011  -8.0007   3.8188   3.8191   4.1726   4.1955
     5.8298   5.8308   6.7321   6.7327   6.8748   6.8854   6.9903   7.0122

          k = 0.4958-0.2522 0.2500 (  5144 PWs)   bands (ev):

   -64.8275 -64.8270 -64.8249 -64.8243 -31.6271 -31.6270 -31.6213 -31.6209
   -31.5900 -31.5896 -31.5831 -31.5828 -31.5789 -31.5788 -31.5724 -31.5717
    -8.4207  -8.3956  -7.9955  -7.9950   3.8227   3.8229   4.1994   4.2224
     5.8277   5.8287   6.7457   6.7462   6.8509   6.8598   7.0184   7.0409

     highest occupied level (ev):     7.6892

!    total energy              =    -608.39202668 Ry
     Harris-Foulkes estimate   =    -608.39202668 Ry
     estimated scf accuracy    <          1.4E-09 Ry

     The total energy is the sum of the following terms:

     one-electron contribution =    -303.67078571 Ry
     hartree contribution      =     168.12618534 Ry
     xc contribution           =     -97.84824155 Ry
     ewald contribution        =    -374.99918476 Ry

     convergence has been achieved in   5 iterations

     Forces acting on atoms (cartesian axes, Ry/au):

     atom    1 type  1   force =    -0.00311712    0.00351989   -0.00002854
     atom    2 type  1   force =    -0.00319698   -0.00356295    0.00002825
     atom    3 type  1   force =     0.00313775    0.00361835    0.00002831
     atom    4 type  1   force =     0.00307749   -0.00351158   -0.00002913
     atom    5 type  2   force =     0.00350422    0.00383026   -0.00003113
     atom    6 type  2   force =    -0.00346285   -0.00385349   -0.00003115
     atom    7 type  2   force =    -0.00345927    0.00382430    0.00003166
     atom    8 type  2   force =     0.00351676   -0.00386477    0.00003174

     Total force =     0.014052     Total SCF correction =     0.000324


     Computing stress (Cartesian axis) and pressure

          total   stress  (Ry/bohr**3)                   (kbar)     P=  -67.17
  -0.00055351   0.00000002  -0.00000000        -81.42      0.00     -0.00
   0.00000002  -0.00035147   0.00000000          0.00    -51.70      0.00
  -0.00000000   0.00000000  -0.00046492         -0.00      0.00    -68.39


     number of scf cycles    =   2
     number of bfgs steps    =   1

     energy   old            =    -608.3916781650 Ry
     energy   new            =    -608.3920266825 Ry

     CASE: energy  _new < energy  _old

     new trust radius        =       0.0085444896 bohr
     new conv_thr            =       0.0000000035 Ry


ATOMIC_POSITIONS (alat)
Mg      -0.001158072   0.001362122  -0.000010675
Mg      -0.001174543   0.498634864   0.500010492
Mg       0.501156141   0.001382326   0.500010499
Mg       0.501130594   0.498657266  -0.000010857
O        0.501332443   0.001504051  -0.000011964
O       -0.001312286   0.498480366  -0.000011955
O       -0.001311371   0.001502845   0.500012213
O        0.501337093   0.498476160   0.500012247



     Writing output data file diamond.1.008571.70.4.save
     NEW-OLD atomic charge density approx. for the potential

     Check: negative/imaginary core charge=   -0.000007    0.000000

     total cpu time spent up to now is       24.7 secs

     per-process dynamical memory:    56.0 Mb

     Self-consistent Calculation

     iteration #  1     ecut=    70.00 Ry     beta=0.70
     Davidson diagonalization with overlap
     ethr =  1.00E-06,  avg # of iterations =  3.0

     total cpu time spent up to now is       27.1 secs

     total energy              =    -608.39223555 Ry
     Harris-Foulkes estimate   =    -608.39230592 Ry
     estimated scf accuracy    <       0.00009600 Ry

     iteration #  2     ecut=    70.00 Ry     beta=0.70
     Davidson diagonalization with overlap
     ethr =  1.50E-07,  avg # of iterations =  2.2

     total cpu time spent up to now is       28.6 secs

     total energy              =    -608.39226544 Ry
     Harris-Foulkes estimate   =    -608.39227567 Ry
     estimated scf accuracy    <       0.00001706 Ry

     iteration #  3     ecut=    70.00 Ry     beta=0.70
     Davidson diagonalization with overlap
     ethr =  2.67E-08,  avg # of iterations =  2.0

     total cpu time spent up to now is       30.0 secs

     total energy              =    -608.39226909 Ry
     Harris-Foulkes estimate   =    -608.39226904 Ry
     estimated scf accuracy    <       0.00000011 Ry

     iteration #  4     ecut=    70.00 Ry     beta=0.70
     Davidson diagonalization with overlap
     ethr =  1.74E-10,  avg # of iterations =  2.8

     total cpu time spent up to now is       31.8 secs

     total energy              =    -608.39226912 Ry
     Harris-Foulkes estimate   =    -608.39226912 Ry
     estimated scf accuracy    <       0.00000001 Ry

     iteration #  5     ecut=    70.00 Ry     beta=0.70
     Davidson diagonalization with overlap
     ethr =  1.96E-11,  avg # of iterations =  2.0

     total cpu time spent up to now is       33.3 secs

     End of self-consistent calculation

          k = 0.0000 0.0000 0.0000 (  5153 PWs)   bands (ev):

   -64.8335 -64.8242 -64.8239 -64.8232 -31.6343 -31.6291 -31.6246 -31.5978
   -31.5958 -31.5937 -31.5904 -31.5882 -31.5870 -31.5716 -31.5643 -31.5585
    -9.3655  -7.9372  -7.9146  -7.8925   3.7304   3.7579   3.7873   6.3188
     6.3272   6.3719   6.3870   6.4337   6.4405   7.6513   7.6724   7.6895

          k = 0.0000 0.0000 0.2500 (  5157 PWs)   bands (ev):

   -64.8321 -64.8253 -64.8241 -64.8234 -31.6284 -31.6197 -31.6182 -31.6031
   -31.5945 -31.5923 -31.5913 -31.5910 -31.5838 -31.5771 -31.5759 -31.5655
    -9.1571  -8.1295  -7.9023  -7.8705   4.0224   4.0753   4.0945   5.8441
     5.8711   6.1285   6.2119   6.4940   6.5926   6.6590   7.4231   7.4753

          k = 0.0000 0.0000-0.5000 (  5126 PWs)   bands (ev):

   -64.8289 -64.8284 -64.8240 -64.8235 -31.6153 -31.6150 -31.6032 -31.6029
   -31.6005 -31.6005 -31.5904 -31.5903 -31.5844 -31.5841 -31.5751 -31.5748
    -8.6469  -8.6467  -7.8577  -7.8577   4.8255   4.8258   4.8694   4.8696
     5.1227   5.1230   5.9729   5.9732   6.9285   6.9286   7.0071   7.0072

          k = 0.0000 0.2522 0.0000 (  5157 PWs)   bands (ev):

   -64.8321 -64.8250 -64.8242 -64.8236 -31.6281 -31.6228 -31.6158 -31.6015
   -31.5956 -31.5941 -31.5898 -31.5879 -31.5872 -31.5761 -31.5716 -31.5708
    -9.1521  -8.1082  -7.9028  -7.8867   4.0283   4.0535   4.1091   5.8919
     5.9044   6.1164   6.1574   6.4882   6.5377   6.6406   7.4386   7.4635

          k = 0.0000 0.2522 0.2500 (  5147 PWs)   bands (ev):

   -64.8309 -64.8252 -64.8248 -64.8240 -31.6231 -31.6198 -31.6158 -31.6038
   -31.5993 -31.5982 -31.5893 -31.5851 -31.5820 -31.5817 -31.5795 -31.5643
    -8.9625  -8.0642  -8.0485  -7.9020   4.1552   4.1631   4.3097   5.0713
     5.8217   6.0460   6.0873   6.4452   6.4594   6.6117   7.1915   7.5016

          k = 0.0000 0.2522-0.5000 (  5146 PWs)   bands (ev):

   -64.8282 -64.8277 -64.8247 -64.8242 -31.6138 -31.6136 -31.6111 -31.6109
   -31.6083 -31.6082 -31.5887 -31.5885 -31.5807 -31.5806 -31.5703 -31.5701
    -8.5078  -8.5076  -7.9448  -7.9447   4.4060   4.4061   4.7303   4.7305
     5.0815   5.0818   6.5656   6.5659   6.6030   6.6031   7.0785   7.0786

          k = 0.0000-0.5043 0.0000 (  5134 PWs)   bands (ev):

   -64.8287 -64.8283 -64.8241 -64.8236 -31.6149 -31.6141 -31.6088 -31.6079
   -31.5959 -31.5948 -31.5866 -31.5866 -31.5853 -31.5848 -31.5805 -31.5798
    -8.6389  -8.6244  -7.8634  -7.8631   4.8373   4.8580   4.8605   4.8811
     5.1097   5.1192   5.9291   5.9294   6.9257   6.9399   6.9645   6.9782

          k = 0.0000-0.5043 0.2500 (  5148 PWs)   bands (ev):

   -64.8281 -64.8276 -64.8248 -64.8243 -31.6155 -31.6150 -31.6107 -31.6099
   -31.6068 -31.6063 -31.5908 -31.5901 -31.5782 -31.5780 -31.5723 -31.5722
    -8.5041  -8.4913  -7.9511  -7.9488   4.4005   4.4095   4.7188   4.7290
     5.0877   5.1101   6.5366   6.5450   6.5713   6.5873   7.0856   7.0904

          k = 0.0000-0.5043-0.5000 (  5152 PWs)   bands (ev):

   -64.8265 -64.8264 -64.8264 -64.8255 -31.6169 -31.6167 -31.6165 -31.6164
   -31.6012 -31.6009 -31.6004 -31.6002 -31.5705 -31.5704 -31.5702 -31.5700
    -8.2042  -8.2041  -8.1963  -8.1962   4.2587   4.2589   4.2624   4.2625
     5.7605   5.7607   5.7805   5.7807   7.0725   7.0727   7.0787   7.0789

          k = 0.2479 0.0000 0.0000 (  5158 PWs)   bands (ev):

   -64.8321 -64.8255 -64.8239 -64.8233 -31.6257 -31.6233 -31.6186 -31.5988
   -31.5983 -31.5969 -31.5928 -31.5871 -31.5834 -31.5822 -31.5699 -31.5642
    -9.1619  -8.1508  -7.8854  -7.8696   4.0419   4.0695   4.0797   5.8107
     5.8251   6.1826   6.2249   6.5471   6.5964   6.6748   7.4351   7.4622

          k = 0.2479 0.0000 0.2500 (  5147 PWs)   bands (ev):

   -64.8309 -64.8253 -64.8249 -64.8237 -31.6246 -31.6201 -31.6130 -31.6091
   -31.5940 -31.5905 -31.5897 -31.5886 -31.5867 -31.5853 -31.5704 -31.5685
    -8.9712  -8.0811  -8.0652  -7.8805   4.1590   4.1660   4.3482   5.0704
     5.8719   6.0240   6.0640   6.5100   6.5232   6.5557   7.1540   7.5079

          k = 0.2479 0.0000-0.5000 (  5156 PWs)   bands (ev):

   -64.8282 -64.8277 -64.8247 -64.8242 -31.6199 -31.6196 -31.6102 -31.6101
   -31.5997 -31.5994 -31.5850 -31.5850 -31.5793 -31.5790 -31.5790 -31.5788
    -8.5132  -8.5131  -7.9511  -7.9510   4.4300   4.4301   4.7709   4.7711
     5.1117   5.1119   6.5272   6.5274   6.5495   6.5497   7.1085   7.1086

          k = 0.2479 0.2522 0.0000 (  5150 PWs)   bands (ev):

   -64.8309 -64.8253 -64.8248 -64.8238 -31.6248 -31.6183 -31.6161 -31.6072
   -31.5944 -31.5925 -31.5917 -31.5900 -31.5852 -31.5815 -31.5742 -31.5659
    -8.9668  -8.0804  -8.0488  -7.8909   4.1540   4.1689   4.3277   5.0708
     5.8463   6.0145   6.0957   6.4696   6.4976   6.5850   7.1734   7.5043

          k = 0.2479 0.2522 0.2500 (  5152 PWs)   bands (ev):

   -64.8299 -64.8253 -64.8251 -64.8245 -31.6267 -31.6242 -31.6223 -31.6053
   -31.5941 -31.5932 -31.5922 -31.5862 -31.5815 -31.5790 -31.5744 -31.5660
    -8.7970  -8.0428  -8.0314  -8.0202   3.9970   3.9998   4.0037   5.0886
     5.8320   5.8449   5.8581   6.6803   6.7059   6.7295   7.3517   7.3574

          k = 0.2479 0.2522-0.5000 (  5150 PWs)   bands (ev):

   -64.8277 -64.8272 -64.8252 -64.8246 -31.6276 -31.6275 -31.6207 -31.6206
   -31.5933 -31.5931 -31.5812 -31.5810 -31.5787 -31.5786 -31.5727 -31.5725
    -8.3999  -8.3998  -7.9981  -7.9980   3.8214   3.8214   4.1973   4.1975
     5.8289   5.8290   6.7399   6.7402   6.8678   6.8681   7.0156   7.0158

          k = 0.2479-0.5043 0.0000 (  5148 PWs)   bands (ev):

   -64.8281 -64.8276 -64.8248 -64.8243 -31.6189 -31.6184 -31.6083 -31.6078
   -31.6054 -31.6045 -31.5852 -31.5845 -31.5801 -31.5799 -31.5760 -31.5758
    -8.5067  -8.4939  -7.9543  -7.9516   4.4132   4.4223   4.7393   4.7494
     5.1012   5.1236   6.5179   6.5261   6.5444   6.5608   7.1001   7.1046

          k = 0.2479-0.5043 0.2500 (  5138 PWs)   bands (ev):

   -64.8276 -64.8272 -64.8253 -64.8247 -31.6280 -31.6278 -31.6199 -31.6197
   -31.5950 -31.5948 -31.5811 -31.5807 -31.5762 -31.5762 -31.5731 -31.5728
    -8.3971  -8.3862  -8.0008  -8.0006   3.8191   3.8192   4.1790   4.1893
     5.8304   5.8308   6.7325   6.7328   6.8777   6.8828   6.9963   7.0064

          k = 0.2479-0.5043-0.5000 (  5136 PWs)   bands (ev):

   -64.8265 -64.8264 -64.8264 -64.8255 -31.6306 -31.6304 -31.6303 -31.6303
   -31.5863 -31.5861 -31.5860 -31.5858 -31.5705 -31.5703 -31.5702 -31.5701
    -8.1684  -8.1683  -8.1627  -8.1626   3.6266   3.6268   3.6318   3.6319
     6.5076   6.5077   6.5193   6.5194   7.0740   7.0742   7.0784   7.0785

          k =-0.4958 0.0000 0.0000 (  5158 PWs)   bands (ev):

   -64.8290 -64.8286 -64.8238 -64.8234 -31.6107 -31.6097 -31.6067 -31.6056
   -31.6046 -31.6036 -31.5979 -31.5978 -31.5791 -31.5785 -31.5747 -31.5740
    -8.6708  -8.6524  -7.8515  -7.8511   4.8093   4.8325   4.8381   4.8613
     5.1243   5.1341   6.0151   6.0154   6.9546   6.9720   6.9949   7.0118

          k =-0.4958 0.0000 0.2500 (  5160 PWs)   bands (ev):

   -64.8283 -64.8278 -64.8246 -64.8241 -31.6182 -31.6176 -31.6126 -31.6119
   -31.6011 -31.6001 -31.5878 -31.5874 -31.5789 -31.5782 -31.5761 -31.5759
    -8.5311  -8.5148  -7.9472  -7.9438   4.4239   4.4361   4.7713   4.7826
     5.0810   5.1089   6.5473   6.5577   6.5623   6.5821   7.0967   7.1014

          k =-0.4958 0.0000-0.5000 (  5196 PWs)   bands (ev):

   -64.8265 -64.8264 -64.8264 -64.8255 -31.6201 -31.6199 -31.6197 -31.6195
   -31.5906 -31.5904 -31.5898 -31.5895 -31.5792 -31.5791 -31.5788 -31.5787
    -8.2173  -8.2172  -8.2069  -8.2068   4.3233   4.3234   4.3272   4.3273
     5.7523   5.7525   5.7772   5.7774   7.0451   7.0453   7.0537   7.0539

          k =-0.4958 0.2522 0.0000 (  5148 PWs)   bands (ev):

   -64.8283 -64.8278 -64.8246 -64.8241 -31.6162 -31.6157 -31.6116 -31.6108
   -31.6070 -31.6061 -31.5850 -31.5846 -31.5833 -31.5826 -31.5708 -31.5706
    -8.5282  -8.5120  -7.9436  -7.9407   4.4126   4.4246   4.7512   4.7627
     5.0645   5.0924   6.5672   6.5770   6.5885   6.6084   7.0810   7.0861

          k =-0.4958 0.2522 0.2500 (  5144 PWs)   bands (ev):

   -64.8277 -64.8273 -64.8251 -64.8246 -31.6272 -31.6271 -31.6214 -31.6211
   -31.5901 -31.5899 -31.5833 -31.5830 -31.5792 -31.5791 -31.5725 -31.5720
    -8.4147  -8.4009  -7.9951  -7.9949   3.8229   3.8230   4.2048   4.2172
     5.8282   5.8288   6.7460   6.7463   6.8528   6.8579   7.0235   7.0359

          k =-0.4958 0.2522-0.5000 (  5148 PWs)   bands (ev):

   -64.8265 -64.8264 -64.8264 -64.8255 -31.6317 -31.6315 -31.6315 -31.6314
   -31.5800 -31.5798 -31.5797 -31.5796 -31.5761 -31.5759 -31.5758 -31.5758
    -8.1753  -8.1752  -8.1679  -8.1677   3.6476   3.6477   3.6540   3.6541
     6.5271   6.5272   6.5412   6.5413   7.0477   7.0479   7.0539   7.0540

          k =-0.4958-0.5043 0.0000 (  5192 PWs)   bands (ev):

   -64.8265 -64.8264 -64.8263 -64.8255 -31.6190 -31.6187 -31.6185 -31.6182
   -31.5970 -31.5962 -31.5962 -31.5954 -31.5748 -31.5745 -31.5742 -31.5741
    -8.2150  -8.2068  -8.2048  -8.1967   4.2892   4.2928   4.2932   4.2968
     5.7442   5.7643   5.7691   5.7891   7.0547   7.0612   7.0630   7.0694

          k =-0.4958-0.5043 0.2500 (  5136 PWs)   bands (ev):

   -64.8265 -64.8264 -64.8263 -64.8255 -31.6311 -31.6309 -31.6308 -31.6308
   -31.5838 -31.5835 -31.5833 -31.5831 -31.5726 -31.5724 -31.5722 -31.5721
    -8.1750  -8.1690  -8.1676  -8.1619   3.6342   3.6395   3.6405   3.6458
     6.5107   6.5223   6.5250   6.5365   7.0581   7.0627   7.0641   7.0685

          k =-0.4958-0.5043-0.5000 (  5136 PWs)   bands (ev):

   -64.8264 -64.8264 -64.8264 -64.8255 -31.6390 -31.6388 -31.6388 -31.6387
   -31.5783 -31.5781 -31.5781 -31.5780 -31.5700 -31.5698 -31.5697 -31.5696
    -8.1304  -8.1303  -8.1302  -8.1302   3.2172   3.2173   3.2173   3.2173
     7.0497   7.0498   7.0499   7.0500   7.0786   7.0787   7.0788   7.0789

          k = 0.0000-0.2522 0.2500 (  5147 PWs)   bands (ev):

   -64.8309 -64.8252 -64.8248 -64.8240 -31.6231 -31.6198 -31.6158 -31.6038
   -31.5993 -31.5982 -31.5893 -31.5851 -31.5820 -31.5817 -31.5795 -31.5643
    -8.9625  -8.0642  -8.0485  -7.9020   4.1552   4.1631   4.3097   5.0713
     5.8217   6.0460   6.0873   6.4452   6.4594   6.6117   7.1915   7.5016

          k =-0.2479 0.0000 0.2500 (  5147 PWs)   bands (ev):

   -64.8309 -64.8253 -64.8249 -64.8237 -31.6246 -31.6201 -31.6130 -31.6091
   -31.5940 -31.5905 -31.5897 -31.5886 -31.5867 -31.5853 -31.5704 -31.5685
    -8.9712  -8.0811  -8.0652  -7.8805   4.1590   4.1660   4.3482   5.0704
     5.8719   6.0240   6.0640   6.5100   6.5232   6.5557   7.1540   7.5079

          k =-0.2479 0.2522 0.0000 (  5150 PWs)   bands (ev):

   -64.8309 -64.8253 -64.8248 -64.8238 -31.6248 -31.6183 -31.6161 -31.6072
   -31.5944 -31.5925 -31.5917 -31.5900 -31.5852 -31.5815 -31.5742 -31.5660
    -8.9668  -8.0804  -8.0488  -7.8909   4.1540   4.1689   4.3277   5.0708
     5.8463   6.0145   6.0957   6.4696   6.4976   6.5850   7.1734   7.5043

          k =-0.2479-0.2522 0.2500 (  5152 PWs)   bands (ev):

   -64.8299 -64.8253 -64.8251 -64.8245 -31.6267 -31.6242 -31.6223 -31.6053
   -31.5941 -31.5932 -31.5922 -31.5862 -31.5815 -31.5790 -31.5744 -31.5660
    -8.7970  -8.0428  -8.0314  -8.0202   3.9970   3.9998   4.0037   5.0886
     5.8320   5.8449   5.8581   6.6803   6.7059   6.7295   7.3517   7.3574

          k =-0.2479 0.2522-0.2500 (  5152 PWs)   bands (ev):

   -64.8299 -64.8253 -64.8251 -64.8245 -31.6267 -31.6242 -31.6223 -31.6053
   -31.5941 -31.5932 -31.5921 -31.5862 -31.5815 -31.5790 -31.5745 -31.5660
    -8.7970  -8.0428  -8.0314  -8.0202   3.9970   3.9998   4.0037   5.0886
     5.8320   5.8449   5.8581   6.6803   6.7058   6.7295   7.3517   7.3574

          k = 0.2479-0.2522-0.2500 (  5152 PWs)   bands (ev):

   -64.8299 -64.8253 -64.8251 -64.8245 -31.6267 -31.6242 -31.6223 -31.6053
   -31.5941 -31.5932 -31.5921 -31.5862 -31.5815 -31.5790 -31.5745 -31.5660
    -8.7970  -8.0428  -8.0314  -8.0202   3.9970   3.9998   4.0037   5.0886
     5.8320   5.8449   5.8581   6.6803   6.7058   6.7295   7.3517   7.3574

          k =-0.2479 0.2522 0.5000 (  5150 PWs)   bands (ev):

   -64.8277 -64.8272 -64.8252 -64.8246 -31.6277 -31.6275 -31.6207 -31.6206
   -31.5933 -31.5930 -31.5812 -31.5810 -31.5787 -31.5786 -31.5727 -31.5725
    -8.3999  -8.3998  -7.9981  -7.9980   3.8213   3.8214   4.1973   4.1975
     5.8289   5.8289   6.7399   6.7402   6.8679   6.8680   7.0157   7.0158

          k =-0.2479 0.5043 0.2500 (  5138 PWs)   bands (ev):

   -64.8276 -64.8272 -64.8253 -64.8247 -31.6280 -31.6278 -31.6199 -31.6197
   -31.5950 -31.5948 -31.5811 -31.5807 -31.5762 -31.5762 -31.5731 -31.5728
    -8.3971  -8.3862  -8.0008  -8.0006   3.8191   3.8192   4.1790   4.1893
     5.8304   5.8308   6.7325   6.7328   6.8777   6.8828   6.9963   7.0064

          k = 0.4958-0.2522 0.2500 (  5144 PWs)   bands (ev):

   -64.8277 -64.8273 -64.8251 -64.8246 -31.6272 -31.6271 -31.6214 -31.6211
   -31.5901 -31.5899 -31.5833 -31.5830 -31.5792 -31.5791 -31.5725 -31.5720
    -8.4147  -8.4009  -7.9951  -7.9949   3.8229   3.8230   4.2048   4.2172
     5.8282   5.8288   6.7460   6.7463   6.8528   6.8579   7.0235   7.0359

     highest occupied level (ev):     7.6895

!    total energy              =    -608.39226912 Ry
     Harris-Foulkes estimate   =    -608.39226912 Ry
     estimated scf accuracy    <          1.4E-09 Ry

     The total energy is the sum of the following terms:

     one-electron contribution =    -303.62614169 Ry
     hartree contribution      =     168.10352491 Ry
     xc contribution           =     -97.84773510 Ry
     ewald contribution        =    -375.02191724 Ry

     convergence has been achieved in   5 iterations

     Forces acting on atoms (cartesian axes, Ry/au):

     atom    1 type  1   force =    -0.00177689    0.00165941   -0.00001507
     atom    2 type  1   force =    -0.00192641   -0.00177415    0.00001581
     atom    3 type  1   force =     0.00186791    0.00182892    0.00001584
     atom    4 type  1   force =     0.00184914   -0.00176257   -0.00001630
     atom    5 type  2   force =     0.00181323    0.00169083   -0.00001519
     atom    6 type  2   force =    -0.00182312   -0.00166500   -0.00001522
     atom    7 type  2   force =    -0.00181823    0.00168209    0.00001507
     atom    8 type  2   force =     0.00181436   -0.00165952    0.00001506

     Total force =     0.007110     Total SCF correction =     0.000368


     Computing stress (Cartesian axis) and pressure

          total   stress  (Ry/bohr**3)                   (kbar)     P=  -67.45
  -0.00055593   0.00000001  -0.00000000        -81.78      0.00     -0.00
   0.00000001  -0.00035429   0.00000000          0.00    -52.12      0.00
  -0.00000000   0.00000000  -0.00046525         -0.00      0.00    -68.44


     number of scf cycles    =   3
     number of bfgs steps    =   2

     energy   old            =    -608.3920266825 Ry
     energy   new            =    -608.3922691178 Ry

     CASE: energy  _new < energy  _old

     new trust radius        =       0.0083902192 bohr
     new conv_thr            =       0.0000000019 Ry


ATOMIC_POSITIONS (alat)
Mg      -0.001855610   0.002063801  -0.000016763
Mg      -0.001915763   0.497901185   0.500016741
Mg       0.501877974   0.002134149   0.500016759
Mg       0.501842792   0.497930707  -0.000017299
O        0.502070963   0.002239191  -0.000018298
O       -0.002049846   0.497749696  -0.000018297
O       -0.002047424   0.002235330   0.500018560
O        0.502076914   0.497745942   0.500018597



     Writing output data file diamond.1.008571.70.4.save
     NEW-OLD atomic charge density approx. for the potential

     Check: negative/imaginary core charge=   -0.000007    0.000000

     total cpu time spent up to now is       34.1 secs

     per-process dynamical memory:    56.0 Mb

     Self-consistent Calculation

     iteration #  1     ecut=    70.00 Ry     beta=0.70
     Davidson diagonalization with overlap
     ethr =  1.00E-06,  avg # of iterations =  3.0

     total cpu time spent up to now is       36.5 secs

     total energy              =    -608.39232000 Ry
     Harris-Foulkes estimate   =    -608.39239008 Ry
     estimated scf accuracy    <       0.00009569 Ry

     iteration #  2     ecut=    70.00 Ry     beta=0.70
     Davidson diagonalization with overlap
     ethr =  1.50E-07,  avg # of iterations =  2.2

     total cpu time spent up to now is       38.0 secs

     total energy              =    -608.39234984 Ry
     Harris-Foulkes estimate   =    -608.39236007 Ry
     estimated scf accuracy    <       0.00001709 Ry

     iteration #  3     ecut=    70.00 Ry     beta=0.70
     Davidson diagonalization with overlap
     ethr =  2.67E-08,  avg # of iterations =  2.0

     total cpu time spent up to now is       39.4 secs

     total energy              =    -608.39235350 Ry
     Harris-Foulkes estimate   =    -608.39235344 Ry
     estimated scf accuracy    <       0.00000011 Ry

     iteration #  4     ecut=    70.00 Ry     beta=0.70
     Davidson diagonalization with overlap
     ethr =  1.75E-10,  avg # of iterations =  2.7

     total cpu time spent up to now is       41.1 secs

     total energy              =    -608.39235353 Ry
     Harris-Foulkes estimate   =    -608.39235353 Ry
     estimated scf accuracy    <          7.7E-09 Ry

     iteration #  5     ecut=    70.00 Ry     beta=0.70
     Davidson diagonalization with overlap
     ethr =  1.20E-11,  avg # of iterations =  2.0

     total cpu time spent up to now is       42.7 secs

     End of self-consistent calculation

          k = 0.0000 0.0000 0.0000 (  5153 PWs)   bands (ev):

   -64.8336 -64.8243 -64.8240 -64.8234 -31.6344 -31.6291 -31.6247 -31.5978
   -31.5958 -31.5938 -31.5905 -31.5883 -31.5871 -31.5717 -31.5644 -31.5586
    -9.3653  -7.9371  -7.9144  -7.8924   3.7304   3.7581   3.7874   6.3189
     6.3272   6.3719   6.3872   6.4337   6.4406   7.6514   7.6724   7.6897

          k = 0.0000 0.0000 0.2500 (  5157 PWs)   bands (ev):

   -64.8322 -64.8253 -64.8242 -64.8235 -31.6284 -31.6198 -31.6183 -31.6032
   -31.5945 -31.5924 -31.5914 -31.5911 -31.5839 -31.5772 -31.5760 -31.5656
    -9.1569  -8.1293  -7.9022  -7.8704   4.0224   4.0754   4.0947   5.8442
     5.8712   6.1287   6.2122   6.4939   6.5925   6.6591   7.4232   7.4754

          k = 0.0000 0.0000-0.5000 (  5126 PWs)   bands (ev):

   -64.8290 -64.8285 -64.8241 -64.8236 -31.6153 -31.6151 -31.6032 -31.6029
   -31.6007 -31.6007 -31.5904 -31.5904 -31.5845 -31.5842 -31.5751 -31.5749
    -8.6467  -8.6466  -7.8576  -7.8576   4.8257   4.8258   4.8696   4.8696
     5.1227   5.1230   5.9731   5.9735   6.9285   6.9285   7.0071   7.0071

          k = 0.0000 0.2522 0.0000 (  5157 PWs)   bands (ev):

   -64.8322 -64.8251 -64.8243 -64.8237 -31.6282 -31.6229 -31.6158 -31.6016
   -31.5957 -31.5941 -31.5899 -31.5880 -31.5872 -31.5762 -31.5717 -31.5709
    -9.1519  -8.1081  -7.9027  -7.8866   4.0283   4.0537   4.1091   5.8918
     5.9045   6.1166   6.1576   6.4883   6.5377   6.6406   7.4386   7.4636

          k = 0.0000 0.2522 0.2500 (  5147 PWs)   bands (ev):

   -64.8309 -64.8252 -64.8249 -64.8241 -31.6231 -31.6199 -31.6158 -31.6039
   -31.5994 -31.5983 -31.5894 -31.5853 -31.5820 -31.5818 -31.5796 -31.5643
    -8.9623  -8.0641  -8.0484  -7.9019   4.1554   4.1632   4.3097   5.0715
     5.8218   6.0461   6.0873   6.4453   6.4594   6.6117   7.1915   7.5017

          k = 0.0000 0.2522-0.5000 (  5146 PWs)   bands (ev):

   -64.8282 -64.8278 -64.8248 -64.8243 -31.6138 -31.6136 -31.6111 -31.6108
   -31.6085 -31.6084 -31.5888 -31.5885 -31.5808 -31.5807 -31.5703 -31.5701
    -8.5076  -8.5075  -7.9447  -7.9446   4.4062   4.4062   4.7305   4.7307
     5.0816   5.0816   6.5664   6.5666   6.6024   6.6024   7.0786   7.0786

          k = 0.0000-0.5043 0.0000 (  5134 PWs)   bands (ev):

   -64.8288 -64.8284 -64.8242 -64.8238 -31.6146 -31.6144 -31.6085 -31.6083
   -31.5954 -31.5954 -31.5865 -31.5865 -31.5854 -31.5852 -31.5803 -31.5801
    -8.6322  -8.6308  -7.8632  -7.8631   4.8479   4.8500   4.8687   4.8707
     5.1138   5.1151   5.9293   5.9295   6.9320   6.9337   6.9705   6.9721

          k = 0.0000-0.5043 0.2500 (  5148 PWs)   bands (ev):

   -64.8281 -64.8278 -64.8249 -64.8244 -31.6154 -31.6153 -31.6104 -31.6102
   -31.6067 -31.6067 -31.5906 -31.5904 -31.5782 -31.5782 -31.5724 -31.5723
    -8.4982  -8.4969  -7.9499  -7.9497   4.4048   4.4054   4.7233   4.7248
     5.0978   5.0998   6.5411   6.5420   6.5778   6.5795   7.0879   7.0883

          k = 0.0000-0.5043-0.5000 (  5152 PWs)   bands (ev):

   -64.8265 -64.8265 -64.8265 -64.8256 -31.6168 -31.6166 -31.6166 -31.6165
   -31.6010 -31.6008 -31.6007 -31.6005 -31.5705 -31.5703 -31.5703 -31.5702
    -8.2005  -8.2004  -8.1997  -8.1996   4.2602   4.2603   4.2611   4.2613
     5.7696   5.7697   5.7715   5.7716   7.0753   7.0755   7.0762   7.0764

          k = 0.2479 0.0000 0.0000 (  5158 PWs)   bands (ev):

   -64.8322 -64.8256 -64.8240 -64.8234 -31.6258 -31.6234 -31.6186 -31.5989
   -31.5983 -31.5970 -31.5929 -31.5871 -31.5835 -31.5822 -31.5700 -31.5643
    -9.1617  -8.1507  -7.8853  -7.8695   4.0422   4.0696   4.0797   5.8107
     5.8250   6.1827   6.2251   6.5472   6.5965   6.6748   7.4351   7.4622

          k = 0.2479 0.0000 0.2500 (  5147 PWs)   bands (ev):

   -64.8310 -64.8254 -64.8250 -64.8238 -31.6247 -31.6202 -31.6130 -31.6092
   -31.5940 -31.5905 -31.5898 -31.5887 -31.5868 -31.5854 -31.5705 -31.5685
    -8.9710  -8.0810  -8.0650  -7.8804   4.1591   4.1662   4.3483   5.0705
     5.8720   6.0240   6.0642   6.5100   6.5240   6.5551   7.1540   7.5080

          k = 0.2479 0.0000-0.5000 (  5156 PWs)   bands (ev):

   -64.8282 -64.8278 -64.8248 -64.8243 -31.6199 -31.6197 -31.6102 -31.6102
   -31.5997 -31.5995 -31.5851 -31.5850 -31.5794 -31.5791 -31.5791 -31.5789
    -8.5130  -8.5129  -7.9510  -7.9510   4.4301   4.4302   4.7711   4.7713
     5.1118   5.1119   6.5280   6.5283   6.5489   6.5489   7.1085   7.1086

          k = 0.2479 0.2522 0.0000 (  5150 PWs)   bands (ev):

   -64.8310 -64.8254 -64.8249 -64.8240 -31.6248 -31.6184 -31.6161 -31.6073
   -31.5945 -31.5925 -31.5918 -31.5901 -31.5853 -31.5816 -31.5743 -31.5660
    -8.9666  -8.0804  -8.0487  -7.8908   4.1540   4.1690   4.3280   5.0708
     5.8465   6.0145   6.0958   6.4697   6.4979   6.5846   7.1734   7.5045

          k = 0.2479 0.2522 0.2500 (  5152 PWs)   bands (ev):

   -64.8300 -64.8254 -64.8252 -64.8246 -31.6267 -31.6242 -31.6224 -31.6054
   -31.5942 -31.5933 -31.5922 -31.5863 -31.5816 -31.5791 -31.5745 -31.5661
    -8.7968  -8.0428  -8.0313  -8.0201   3.9970   3.9999   4.0038   5.0887
     5.8321   5.8449   5.8581   6.6804   6.7058   6.7296   7.3517   7.3575

          k = 0.2479 0.2522-0.5000 (  5150 PWs)   bands (ev):

   -64.8277 -64.8273 -64.8253 -64.8248 -31.6277 -31.6275 -31.6207 -31.6206
   -31.5934 -31.5932 -31.5813 -31.5811 -31.5787 -31.5786 -31.5728 -31.5726
    -8.3997  -8.3997  -7.9980  -7.9979   3.8214   3.8215   4.1974   4.1975
     5.8290   5.8290   6.7402   6.7404   6.8679   6.8680   7.0156   7.0157

          k = 0.2479-0.5043 0.0000 (  5148 PWs)   bands (ev):

   -64.8281 -64.8278 -64.8249 -64.8244 -31.6188 -31.6186 -31.6081 -31.6080
   -31.6051 -31.6049 -31.5851 -31.5849 -31.5800 -31.5800 -31.5760 -31.5759
    -8.5008  -8.4995  -7.9530  -7.9527   4.4175   4.4180   4.7436   4.7452
     5.1116   5.1137   6.5216   6.5226   6.5517   6.5535   7.1022   7.1025

          k = 0.2479-0.5043 0.2500 (  5138 PWs)   bands (ev):

   -64.8277 -64.8273 -64.8254 -64.8249 -31.6280 -31.6279 -31.6199 -31.6198
   -31.5951 -31.5949 -31.5811 -31.5809 -31.5763 -31.5763 -31.5731 -31.5730
    -8.3921  -8.3910  -8.0006  -8.0005   3.8192   3.8193   4.1834   4.1849
     5.8307   5.8307   6.7327   6.7328   6.8801   6.8804   7.0007   7.0019

          k = 0.2479-0.5043-0.5000 (  5136 PWs)   bands (ev):

   -64.8265 -64.8265 -64.8265 -64.8256 -31.6306 -31.6304 -31.6304 -31.6303
   -31.5863 -31.5861 -31.5861 -31.5860 -31.5706 -31.5704 -31.5703 -31.5702
    -8.1657  -8.1656  -8.1651  -8.1650   3.6289   3.6289   3.6297   3.6298
     6.5129   6.5130   6.5141   6.5142   7.0760   7.0762   7.0766   7.0768

          k =-0.4958 0.0000 0.0000 (  5158 PWs)   bands (ev):

   -64.8291 -64.8287 -64.8239 -64.8235 -31.6105 -31.6101 -31.6063 -31.6060
   -31.6044 -31.6041 -31.5979 -31.5979 -31.5790 -31.5787 -31.5746 -31.5743
    -8.6628  -8.6601  -7.8512  -7.8511   4.8216   4.8261   4.8448   4.8492
     5.1287   5.1298   6.0152   6.0155   6.9621   6.9645   7.0023   7.0046

          k =-0.4958 0.0000 0.2500 (  5160 PWs)   bands (ev):

   -64.8283 -64.8280 -64.8247 -64.8242 -31.6181 -31.6179 -31.6124 -31.6122
   -31.6008 -31.6005 -31.5877 -31.5876 -31.5788 -31.5785 -31.5762 -31.5760
    -8.5240  -8.5216  -7.9456  -7.9451   4.4290   4.4312   4.7766   4.7776
     5.0927   5.0970   6.5527   6.5540   6.5700   6.5729   7.0987   7.0995

          k =-0.4958 0.0000-0.5000 (  5196 PWs)   bands (ev):

   -64.8265 -64.8265 -64.8265 -64.8256 -31.6201 -31.6199 -31.6198 -31.6197
   -31.5904 -31.5902 -31.5902 -31.5899 -31.5792 -31.5791 -31.5789 -31.5789
    -8.2127  -8.2127  -8.2112  -8.2111   4.3252   4.3254   4.3254   4.3255
     5.7630   5.7630   5.7667   5.7668   7.0490   7.0492   7.0500   7.0502

          k =-0.4958 0.2522 0.0000 (  5148 PWs)   bands (ev):

   -64.8283 -64.8280 -64.8247 -64.8242 -31.6161 -31.6159 -31.6113 -31.6111
   -31.6067 -31.6064 -31.5850 -31.5848 -31.5831 -31.5829 -31.5709 -31.5707
    -8.5211  -8.5188  -7.9423  -7.9419   4.4176   4.4197   4.7564   4.7575
     5.0764   5.0807   6.5715   6.5729   6.5971   6.5999   7.0831   7.0840

          k =-0.4958 0.2522 0.2500 (  5144 PWs)   bands (ev):

   -64.8278 -64.8275 -64.8252 -64.8247 -31.6273 -31.6272 -31.6214 -31.6213
   -31.5902 -31.5900 -31.5833 -31.5832 -31.5793 -31.5792 -31.5725 -31.5723
    -8.4087  -8.4067  -7.9949  -7.9948   3.8230   3.8231   4.2104   4.2117
     5.8286   5.8287   6.7461   6.7463   6.8549   6.8559   7.0289   7.0306

          k =-0.4958 0.2522-0.5000 (  5148 PWs)   bands (ev):

   -64.8265 -64.8265 -64.8265 -64.8256 -31.6317 -31.6315 -31.6315 -31.6314
   -31.5801 -31.5799 -31.5798 -31.5797 -31.5762 -31.5760 -31.5759 -31.5759
    -8.1720  -8.1719  -8.1709  -8.1708   3.6505   3.6507   3.6512   3.6512
     6.5332   6.5333   6.5353   6.5353   7.0505   7.0507   7.0513   7.0514

          k =-0.4958-0.5043 0.0000 (  5192 PWs)   bands (ev):

   -64.8265 -64.8265 -64.8265 -64.8256 -31.6189 -31.6187 -31.6186 -31.6185
   -31.5965 -31.5963 -31.5963 -31.5960 -31.5747 -31.5745 -31.5744 -31.5743
    -8.2069  -8.2060  -8.2054  -8.2045   4.2925   4.2926   4.2934   4.2936
     5.7639   5.7659   5.7677   5.7696   7.0612   7.0621   7.0622   7.0631

          k =-0.4958-0.5043 0.2500 (  5136 PWs)   bands (ev):

   -64.8265 -64.8265 -64.8265 -64.8256 -31.6312 -31.6310 -31.6309 -31.6309
   -31.5837 -31.5835 -31.5835 -31.5834 -31.5726 -31.5724 -31.5723 -31.5722
    -8.1691  -8.1684  -8.1680  -8.1674   3.6393   3.6399   3.6401   3.6408
     6.5221   6.5232   6.5242   6.5254   7.0628   7.0634   7.0635   7.0641

          k =-0.4958-0.5043-0.5000 (  5136 PWs)   bands (ev):

   -64.8265 -64.8265 -64.8265 -64.8256 -31.6391 -31.6389 -31.6388 -31.6388
   -31.5784 -31.5782 -31.5782 -31.5781 -31.5701 -31.5698 -31.5698 -31.5697
    -8.1302  -8.1301  -8.1301  -8.1301   3.2172   3.2173   3.2173   3.2173
     7.0498   7.0499   7.0500   7.0501   7.0787   7.0788   7.0789   7.0790

          k = 0.0000-0.2522 0.2500 (  5147 PWs)   bands (ev):

   -64.8309 -64.8252 -64.8249 -64.8241 -31.6231 -31.6199 -31.6158 -31.6039
   -31.5994 -31.5983 -31.5894 -31.5853 -31.5820 -31.5818 -31.5796 -31.5643
    -8.9623  -8.0641  -8.0484  -7.9019   4.1554   4.1632   4.3097   5.0715
     5.8218   6.0461   6.0873   6.4453   6.4594   6.6117   7.1915   7.5017

          k =-0.2479 0.0000 0.2500 (  5147 PWs)   bands (ev):

   -64.8310 -64.8254 -64.8250 -64.8238 -31.6247 -31.6202 -31.6130 -31.6092
   -31.5940 -31.5905 -31.5898 -31.5887 -31.5868 -31.5854 -31.5705 -31.5685
    -8.9710  -8.0810  -8.0650  -7.8804   4.1591   4.1662   4.3483   5.0705
     5.8720   6.0240   6.0642   6.5100   6.5240   6.5551   7.1540   7.5080

          k =-0.2479 0.2522 0.0000 (  5150 PWs)   bands (ev):

   -64.8310 -64.8254 -64.8249 -64.8240 -31.6248 -31.6184 -31.6161 -31.6072
   -31.5945 -31.5925 -31.5918 -31.5901 -31.5853 -31.5816 -31.5743 -31.5660
    -8.9666  -8.0804  -8.0487  -7.8908   4.1540   4.1690   4.3280   5.0708
     5.8465   6.0145   6.0958   6.4697   6.4979   6.5846   7.1734   7.5045

          k =-0.2479-0.2522 0.2500 (  5152 PWs)   bands (ev):

   -64.8300 -64.8254 -64.8252 -64.8246 -31.6267 -31.6242 -31.6224 -31.6054
   -31.5942 -31.5933 -31.5922 -31.5863 -31.5816 -31.5791 -31.5745 -31.5661
    -8.7968  -8.0428  -8.0313  -8.0201   3.9970   3.9999   4.0038   5.0887
     5.8321   5.8449   5.8581   6.6804   6.7058   6.7296   7.3517   7.3575

          k =-0.2479 0.2522-0.2500 (  5152 PWs)   bands (ev):

   -64.8300 -64.8254 -64.8252 -64.8246 -31.6267 -31.6242 -31.6224 -31.6054
   -31.5941 -31.5933 -31.5922 -31.5863 -31.5816 -31.5791 -31.5745 -31.5661
    -8.7968  -8.0428  -8.0313  -8.0201   3.9970   3.9999   4.0038   5.0887
     5.8321   5.8449   5.8581   6.6804   6.7058   6.7296   7.3517   7.3575

          k = 0.2479-0.2522-0.2500 (  5152 PWs)   bands (ev):

   -64.8300 -64.8254 -64.8252 -64.8246 -31.6267 -31.6242 -31.6224 -31.6054
   -31.5941 -31.5933 -31.5922 -31.5863 -31.5816 -31.5791 -31.5745 -31.5661
    -8.7968  -8.0428  -8.0313  -8.0201   3.9970   3.9999   4.0038   5.0887
     5.8321   5.8449   5.8581   6.6804   6.7058   6.7296   7.3517   7.3575

          k =-0.2479 0.2522 0.5000 (  5150 PWs)   bands (ev):

   -64.8277 -64.8273 -64.8253 -64.8248 -31.6277 -31.6275 -31.6208 -31.6206
   -31.5934 -31.5931 -31.5813 -31.5811 -31.5787 -31.5787 -31.5728 -31.5726
    -8.3997  -8.3997  -7.9980  -7.9979   3.8214   3.8215   4.1974   4.1975
     5.8290   5.8290   6.7402   6.7404   6.8679   6.8680   7.0156   7.0157

          k =-0.2479 0.5043 0.2500 (  5138 PWs)   bands (ev):

   -64.8277 -64.8273 -64.8254 -64.8249 -31.6280 -31.6279 -31.6199 -31.6198
   -31.5951 -31.5949 -31.5811 -31.5809 -31.5763 -31.5763 -31.5731 -31.5730
    -8.3921  -8.3910  -8.0006  -8.0005   3.8192   3.8193   4.1834   4.1849
     5.8307   5.8307   6.7327   6.7328   6.8801   6.8804   7.0007   7.0019

          k = 0.4958-0.2522 0.2500 (  5144 PWs)   bands (ev):

   -64.8278 -64.8275 -64.8252 -64.8247 -31.6273 -31.6272 -31.6214 -31.6213
   -31.5902 -31.5900 -31.5833 -31.5832 -31.5793 -31.5792 -31.5725 -31.5723
    -8.4087  -8.4067  -7.9949  -7.9948   3.8230   3.8231   4.2104   4.2117
     5.8286   5.8287   6.7461   6.7463   6.8549   6.8559   7.0289   7.0306

     highest occupied level (ev):     7.6897

!    total energy              =    -608.39235353 Ry
     Harris-Foulkes estimate   =    -608.39235353 Ry
     estimated scf accuracy    <          8.9E-10 Ry

     The total energy is the sum of the following terms:

     one-electron contribution =    -303.60837648 Ry
     hartree contribution      =     168.09455980 Ry
     xc contribution           =     -97.84754165 Ry
     ewald contribution        =    -375.03099520 Ry

     convergence has been achieved in   5 iterations

     Forces acting on atoms (cartesian axes, Ry/au):

     atom    1 type  1   force =    -0.00029173   -0.00016550   -0.00000080
     atom    2 type  1   force =    -0.00047178    0.00002413    0.00000217
     atom    3 type  1   force =     0.00042895    0.00001346    0.00000217
     atom    4 type  1   force =     0.00044054    0.00000888   -0.00000229
     atom    5 type  2   force =     0.00007519   -0.00031790    0.00000065
     atom    6 type  2   force =    -0.00012503    0.00036438    0.00000067
     atom    7 type  2   force =    -0.00011728   -0.00032563   -0.00000117
     atom    8 type  2   force =     0.00006113    0.00039818   -0.00000139

     Total force =     0.001119     Total SCF correction =     0.000298
     SCF correction compared to forces is large: reduce conv_thr to get better values


     Computing stress (Cartesian axis) and pressure

          total   stress  (Ry/bohr**3)                   (kbar)     P=  -67.54
  -0.00055700   0.00000001  -0.00000000        -81.94      0.00     -0.00
   0.00000001  -0.00035514   0.00000000          0.00    -52.24      0.00
  -0.00000000   0.00000000  -0.00046533         -0.00      0.00    -68.45


     number of scf cycles    =   4
     number of bfgs steps    =   3

     energy   old            =    -608.3922691178 Ry
     energy   new            =    -608.3923535267 Ry

     CASE: energy  _new < energy  _old

     new trust radius        =       0.0005694251 bohr
     new conv_thr            =       0.0000000005 Ry


ATOMIC_POSITIONS (alat)
Mg      -0.001902751   0.002054137  -0.000016957
Mg      -0.001986039   0.497892744   0.500017107
Mg       0.501942616   0.002147548   0.500017126
Mg       0.501908713   0.497920493  -0.000017684
O        0.502091837   0.002211163  -0.000018317
O       -0.002076917   0.497783558  -0.000018312
O       -0.002073502   0.002206301   0.500018513
O        0.502096043   0.497784057   0.500018523



     Writing output data file diamond.1.008571.70.4.save
     NEW-OLD atomic charge density approx. for the potential

     Check: negative/imaginary core charge=   -0.000007    0.000000

     total cpu time spent up to now is       43.5 secs

     per-process dynamical memory:    56.0 Mb

     Self-consistent Calculation

     iteration #  1     ecut=    70.00 Ry     beta=0.70
     Davidson diagonalization with overlap
     ethr =  1.00E-06,  avg # of iterations =  2.0

     Threshold (ethr) on eigenvalues was too large:
     Diagonalizing with lowered threshold

     Davidson diagonalization with overlap
     ethr =  1.56E-10,  avg # of iterations =  3.0

     total cpu time spent up to now is       47.0 secs

     total energy              =    -608.39235456 Ry
     Harris-Foulkes estimate   =    -608.39235466 Ry
[...]
Mg      -0.002139965   0.497900314   0.500017774
Mg       0.502078334   0.002156400   0.500017790
Mg       0.502049916   0.497922095  -0.000018403
O        0.502117142   0.002119767  -0.000018159
O       -0.002122691   0.497887253  -0.000018161
O       -0.002116487   0.002112849   0.500018163
O        0.502109834   0.497909826   0.500018037



     Writing output data file diamond.1.008571.70.4.save
     NEW-OLD atomic charge density approx. for the potential

     Check: negative/imaginary core charge=   -0.000007    0.000000

     total cpu time spent up to now is       61.4 secs

     per-process dynamical memory:    56.0 Mb

     Self-consistent Calculation

     iteration #  1     ecut=    70.00 Ry     beta=0.70
     Davidson diagonalization with overlap
     ethr =  1.00E-06,  avg # of iterations =  2.0

     Threshold (ethr) on eigenvalues was too large:
     Diagonalizing with lowered threshold

     Davidson diagonalization with overlap
     ethr =  2.32E-10,  avg # of iterations =  2.9

     total cpu time spent up to now is       64.9 secs

     total energy              =    -608.39235561 Ry
     Harris-Foulkes estimate   =    -608.39235575 Ry
     estimated scf accuracy    <       0.00000019 Ry

     iteration #  2     ecut=    70.00 Ry     beta=0.70
     Davidson diagonalization with overlap
     ethr =  3.01E-10,  avg # of iterations =  2.1

     total cpu time spent up to now is       66.3 secs

     total energy              =    -608.39235567 Ry
     Harris-Foulkes estimate   =    -608.39235569 Ry
     estimated scf accuracy    <       0.00000003 Ry

     iteration #  3     ecut=    70.00 Ry     beta=0.70
     Davidson diagonalization with overlap
     ethr =  5.08E-11,  avg # of iterations =  2.0

     total cpu time spent up to now is       67.8 secs

     total energy              =    -608.39235567 Ry
     Harris-Foulkes estimate   =    -608.39235567 Ry
     estimated scf accuracy    <          3.0E-10 Ry

     iteration #  4     ecut=    70.00 Ry     beta=0.70
     Davidson diagonalization with overlap
     ethr =  4.69E-13,  avg # of iterations =  2.9

     total cpu time spent up to now is       69.6 secs

     End of self-consistent calculation

          k = 0.0000 0.0000 0.0000 (  5153 PWs)   bands (ev):

   -64.8336 -64.8243 -64.8240 -64.8234 -31.6344 -31.6291 -31.6247 -31.5978
   -31.5958 -31.5938 -31.5905 -31.5883 -31.5871 -31.5717 -31.5644 -31.5586
    -9.3653  -7.9371  -7.9145  -7.8924   3.7304   3.7581   3.7873   6.3188
     6.3272   6.3719   6.3871   6.4337   6.4406   7.6513   7.6724   7.6897

          k = 0.0000 0.0000 0.2500 (  5157 PWs)   bands (ev):

   -64.8322 -64.8254 -64.8242 -64.8235 -31.6284 -31.6198 -31.6183 -31.6032
   -31.5945 -31.5924 -31.5914 -31.5911 -31.5839 -31.5772 -31.5760 -31.5656
    -9.1569  -8.1293  -7.9023  -7.8704   4.0224   4.0754   4.0947   5.8441
     5.8712   6.1287   6.2121   6.4938   6.5925   6.6591   7.4231   7.4754

          k = 0.0000 0.0000-0.5000 (  5126 PWs)   bands (ev):

   -64.8290 -64.8285 -64.8241 -64.8236 -31.6153 -31.6151 -31.6032 -31.6029
   -31.6007 -31.6007 -31.5904 -31.5904 -31.5845 -31.5842 -31.5752 -31.5749
    -8.6467  -8.6466  -7.8577  -7.8576   4.8257   4.8257   4.8696   4.8696
     5.1227   5.1230   5.9731   5.9735   6.9285   6.9285   7.0070   7.0071

          k = 0.0000 0.2522 0.0000 (  5157 PWs)   bands (ev):

   -64.8322 -64.8251 -64.8243 -64.8237 -31.6282 -31.6229 -31.6158 -31.6016
   -31.5957 -31.5941 -31.5899 -31.5880 -31.5872 -31.5762 -31.5717 -31.5709
    -9.1519  -8.1081  -7.9027  -7.8866   4.0283   4.0537   4.1091   5.8918
     5.9045   6.1165   6.1576   6.4883   6.5376   6.6406   7.4386   7.4635

          k = 0.0000 0.2522 0.2500 (  5147 PWs)   bands (ev):

   -64.8310 -64.8252 -64.8249 -64.8241 -31.6231 -31.6199 -31.6158 -31.6039
   -31.5993 -31.5983 -31.5894 -31.5853 -31.5820 -31.5818 -31.5796 -31.5643
    -8.9623  -8.0641  -8.0484  -7.9019   4.1553   4.1632   4.3097   5.0714
     5.8218   6.0460   6.0873   6.4453   6.4594   6.6117   7.1915   7.5016

          k = 0.0000 0.2522-0.5000 (  5146 PWs)   bands (ev):

   -64.8282 -64.8278 -64.8248 -64.8243 -31.6138 -31.6136 -31.6110 -31.6108
   -31.6085 -31.6085 -31.5888 -31.5885 -31.5808 -31.5807 -31.5703 -31.5701
    -8.5076  -8.5075  -7.9447  -7.9447   4.4061   4.4062   4.7305   4.7307
     5.0815   5.0816   6.5664   6.5666   6.6024   6.6024   7.0785   7.0786

          k = 0.0000-0.5043 0.0000 (  5134 PWs)   bands (ev):

   -64.8288 -64.8284 -64.8242 -64.8238 -31.6146 -31.6144 -31.6085 -31.6083
   -31.5954 -31.5953 -31.5865 -31.5865 -31.5854 -31.5852 -31.5803 -31.5801
    -8.6320  -8.6311  -7.8632  -7.8632   4.8482   4.8497   4.8690   4.8704
     5.1141   5.1147   5.9292   5.9295   6.9324   6.9332   6.9709   6.9717

          k = 0.0000-0.5043 0.2500 (  5148 PWs)   bands (ev):

   -64.8281 -64.8278 -64.8249 -64.8244 -31.6154 -31.6153 -31.6104 -31.6102
   -31.6067 -31.6067 -31.5906 -31.5904 -31.5782 -31.5782 -31.5724 -31.5723
    -8.4980  -8.4972  -7.9499  -7.9498   4.4048   4.4054   4.7238   4.7243
     5.0981   5.0995   6.5413   6.5418   6.5781   6.5791   7.0879   7.0882

          k = 0.0000-0.5043-0.5000 (  5152 PWs)   bands (ev):

   -64.8265 -64.8265 -64.8265 -64.8256 -31.6168 -31.6167 -31.6166 -31.6165
   -31.6010 -31.6008 -31.6007 -31.6005 -31.5706 -31.5704 -31.5703 -31.5702
    -8.2004  -8.2003  -8.1999  -8.1998   4.2605   4.2607   4.2607   4.2609
     5.7699   5.7700   5.7712   5.7712   7.0756   7.0757   7.0759   7.0761

          k = 0.2479 0.0000 0.0000 (  5158 PWs)   bands (ev):

   -64.8322 -64.8256 -64.8240 -64.8234 -31.6258 -31.6234 -31.6186 -31.5989
   -31.5983 -31.5970 -31.5929 -31.5871 -31.5835 -31.5822 -31.5700 -31.5643
    -9.1617  -8.1508  -7.8853  -7.8696   4.0422   4.0696   4.0797   5.8107
     5.8250   6.1827   6.2250   6.5471   6.5965   6.6748   7.4351   7.4622

          k = 0.2479 0.0000 0.2500 (  5147 PWs)   bands (ev):

   -64.8310 -64.8254 -64.8250 -64.8238 -31.6247 -31.6202 -31.6130 -31.6092
   -31.5940 -31.5905 -31.5898 -31.5887 -31.5868 -31.5854 -31.5705 -31.5685
    -8.9711  -8.0810  -8.0651  -7.8804   4.1591   4.1662   4.3483   5.0704
     5.8720   6.0240   6.0642   6.5100   6.5239   6.5550   7.1540   7.5080

          k = 0.2479 0.0000-0.5000 (  5156 PWs)   bands (ev):

   -64.8283 -64.8278 -64.8248 -64.8243 -31.6199 -31.6197 -31.6102 -31.6102
   -31.5997 -31.5995 -31.5851 -31.5850 -31.5794 -31.5791 -31.5791 -31.5789
    -8.5130  -8.5130  -7.9511  -7.9510   4.4301   4.4302   4.7710   4.7713
     5.1118   5.1118   6.5280   6.5282   6.5488   6.5489   7.1085   7.1086

          k = 0.2479 0.2522 0.0000 (  5150 PWs)   bands (ev):

   -64.8310 -64.8254 -64.8249 -64.8240 -31.6248 -31.6184 -31.6161 -31.6073
   -31.5945 -31.5925 -31.5918 -31.5901 -31.5853 -31.5816 -31.5743 -31.5660
    -8.9666  -8.0804  -8.0488  -7.8909   4.1540   4.1690   4.3280   5.0708
     5.8464   6.0145   6.0958   6.4697   6.4979   6.5846   7.1734   7.5044

          k = 0.2479 0.2522 0.2500 (  5152 PWs)   bands (ev):

   -64.8300 -64.8254 -64.8252 -64.8246 -31.6267 -31.6242 -31.6224 -31.6054
   -31.5942 -31.5933 -31.5922 -31.5863 -31.5816 -31.5791 -31.5745 -31.5661
    -8.7968  -8.0428  -8.0313  -8.0202   3.9970   3.9999   4.0038   5.0887
     5.8320   5.8449   5.8581   6.6804   6.7058   6.7296   7.3517   7.3575

          k = 0.2479 0.2522-0.5000 (  5150 PWs)   bands (ev):

   -64.8277 -64.8274 -64.8253 -64.8248 -31.6277 -31.6275 -31.6207 -31.6206
   -31.5934 -31.5932 -31.5813 -31.5811 -31.5787 -31.5787 -31.5728 -31.5726
    -8.3998  -8.3997  -7.9980  -7.9979   3.8214   3.8215   4.1974   4.1975
     5.8289   5.8290   6.7401   6.7404   6.8679   6.8680   7.0156   7.0156

          k = 0.2479-0.5043 0.0000 (  5148 PWs)   bands (ev):

   -64.8281 -64.8278 -64.8249 -64.8244 -31.6188 -31.6186 -31.6081 -31.6080
   -31.6051 -31.6049 -31.5851 -31.5849 -31.5800 -31.5800 -31.5760 -31.5759
    -8.5006  -8.4998  -7.9530  -7.9528   4.4174   4.4180   4.7441   4.7447
     5.1119   5.1133   6.5218   6.5223   6.5521   6.5531   7.1022   7.1025

          k = 0.2479-0.5043 0.2500 (  5138 PWs)   bands (ev):

   -64.8277 -64.8273 -64.8254 -64.8249 -31.6280 -31.6279 -31.6199 -31.6198
   -31.5951 -31.5949 -31.5811 -31.5809 -31.5763 -31.5763 -31.5731 -31.5730
    -8.3919  -8.3912  -8.0006  -8.0006   3.8192   3.8192   4.1839   4.1844
     5.8307   5.8307   6.7326   6.7328   6.8801   6.8804   7.0010   7.0016

          k = 0.2479-0.5043-0.5000 (  5136 PWs)   bands (ev):

   -64.8265 -64.8265 -64.8265 -64.8256 -31.6306 -31.6304 -31.6304 -31.6303
   -31.5863 -31.5861 -31.5861 -31.5860 -31.5706 -31.5704 -31.5703 -31.5702
    -8.1656  -8.1655  -8.1652  -8.1652   3.6291   3.6292   3.6294   3.6295
     6.5131   6.5132   6.5139   6.5139   7.0762   7.0763   7.0764   7.0766

          k =-0.4958 0.0000 0.0000 (  5158 PWs)   bands (ev):

   -64.8291 -64.8287 -64.8239 -64.8235 -31.6104 -31.6102 -31.6062 -31.6061
   -31.6044 -31.6041 -31.5979 -31.5979 -31.5790 -31.5788 -31.5746 -31.5744
    -8.6619  -8.6611  -7.8512  -7.8512   4.8231   4.8245   4.8463   4.8477
     5.1290   5.1294   6.0152   6.0155   6.9629   6.9636   7.0031   7.0038

          k =-0.4958 0.0000 0.2500 (  5160 PWs)   bands (ev):

   -64.8283 -64.8280 -64.8247 -64.8242 -31.6180 -31.6179 -31.6123 -31.6122
   -31.6007 -31.6005 -31.5877 -31.5876 -31.5787 -31.5785 -31.5762 -31.5760
    -8.5232  -8.5225  -7.9455  -7.9453   4.4298   4.4304   4.7769   4.7773
     5.0942   5.0955   6.5531   6.5536   6.5710   6.5719   7.0990   7.0992

          k =-0.4958 0.0000-0.5000 (  5196 PWs)   bands (ev):

   -64.8265 -64.8265 -64.8265 -64.8256 -31.6201 -31.6199 -31.6198 -31.6197
   -31.5904 -31.5902 -31.5902 -31.5899 -31.5792 -31.5790 -31.5789 -31.5789
    -8.2122  -8.2122  -8.2118  -8.2117   4.3252   4.3254   4.3254   4.3255
     5.7642   5.7643   5.7654   5.7655   7.0493   7.0495   7.0497   7.0498

          k =-0.4958 0.2522 0.0000 (  5148 PWs)   bands (ev):

   -64.8283 -64.8280 -64.8247 -64.8242 -31.6161 -31.6160 -31.6113 -31.6112
   -31.6067 -31.6065 -31.5849 -31.5848 -31.5831 -31.5829 -31.5709 -31.5707
    -8.5203  -8.5196  -7.9422  -7.9420   4.4183   4.4190   4.7567   4.7572
     5.0779   5.0792   6.5719   6.5724   6.5980   6.5989   7.0834   7.0837

          k =-0.4958 0.2522 0.2500 (  5144 PWs)   bands (ev):

   -64.8278 -64.8275 -64.8252 -64.8247 -31.6273 -31.6272 -31.6213 -31.6213
   -31.5902 -31.5900 -31.5833 -31.5832 -31.5793 -31.5792 -31.5725 -31.5723
    -8.4080  -8.4074  -7.9949  -7.9949   3.8230   3.8231   4.2108   4.2112
     5.8286   5.8286   6.7461   6.7463   6.8552   6.8556   7.0294   7.0300

          k =-0.4958 0.2522-0.5000 (  5148 PWs)   bands (ev):

   -64.8265 -64.8265 -64.8265 -64.8256 -31.6317 -31.6315 -31.6315 -31.6314
   -31.5801 -31.5799 -31.5798 -31.5797 -31.5762 -31.5760 -31.5759 -31.5759
    -8.1716  -8.1716  -8.1713  -8.1712   3.6507   3.6508   3.6510   3.6510
     6.5339   6.5340   6.5346   6.5346   7.0507   7.0509   7.0510   7.0512

          k =-0.4958-0.5043 0.0000 (  5192 PWs)   bands (ev):

   -64.8265 -64.8265 -64.8265 -64.8256 -31.6189 -31.6187 -31.6186 -31.6185
   -31.5965 -31.5963 -31.5963 -31.5961 -31.5747 -31.5745 -31.5744 -31.5743
    -8.2062  -8.2058  -8.2057  -8.2052   4.2928   4.2930   4.2931   4.2932
     5.7656   5.7666   5.7669   5.7680   7.0618   7.0621   7.0622   7.0625

          k =-0.4958-0.5043 0.2500 (  5136 PWs)   bands (ev):

   -64.8265 -64.8265 -64.8265 -64.8256 -31.6312 -31.6310 -31.6309 -31.6309
   -31.5837 -31.5835 -31.5834 -31.5834 -31.5726 -31.5724 -31.5723 -31.5722
    -8.1686  -8.1683  -8.1682  -8.1679   3.6398   3.6400   3.6401   3.6403
     6.5230   6.5236   6.5238   6.5244   7.0631   7.0634   7.0634   7.0637

          k =-0.4958-0.5043-0.5000 (  5136 PWs)   bands (ev):

   -64.8265 -64.8265 -64.8265 -64.8256 -31.6391 -31.6389 -31.6388 -31.6388
   -31.5784 -31.5782 -31.5782 -31.5781 -31.5701 -31.5698 -31.5698 -31.5697
    -8.1303  -8.1302  -8.1301  -8.1301   3.2172   3.2173   3.2173   3.2173
     7.0498   7.0499   7.0500   7.0501   7.0787   7.0788   7.0789   7.0790

          k = 0.0000-0.2522 0.2500 (  5147 PWs)   bands (ev):

   -64.8310 -64.8252 -64.8249 -64.8241 -31.6231 -31.6199 -31.6158 -31.6039
   -31.5993 -31.5983 -31.5894 -31.5853 -31.5820 -31.5818 -31.5796 -31.5643
    -8.9623  -8.0641  -8.0484  -7.9019   4.1553   4.1632   4.3097   5.0714
     5.8218   6.0460   6.0873   6.4453   6.4594   6.6117   7.1915   7.5016

          k =-0.2479 0.0000 0.2500 (  5147 PWs)   bands (ev):

   -64.8310 -64.8254 -64.8250 -64.8238 -31.6247 -31.6202 -31.6130 -31.6092
   -31.5940 -31.5905 -31.5898 -31.5887 -31.5868 -31.5854 -31.5705 -31.5685
    -8.9711  -8.0810  -8.0651  -7.8804   4.1591   4.1662   4.3483   5.0704
     5.8720   6.0240   6.0642   6.5100   6.5239   6.5550   7.1540   7.5080

          k =-0.2479 0.2522 0.0000 (  5150 PWs)   bands (ev):

   -64.8310 -64.8254 -64.8249 -64.8240 -31.6248 -31.6184 -31.6161 -31.6072
   -31.5945 -31.5925 -31.5918 -31.5901 -31.5853 -31.5816 -31.5743 -31.5660
    -8.9666  -8.0804  -8.0488  -7.8909   4.1540   4.1690   4.3280   5.0708
     5.8464   6.0145   6.0958   6.4697   6.4979   6.5846   7.1734   7.5044

          k =-0.2479-0.2522 0.2500 (  5152 PWs)   bands (ev):

   -64.8300 -64.8254 -64.8252 -64.8246 -31.6267 -31.6242 -31.6224 -31.6054
   -31.5942 -31.5933 -31.5922 -31.5863 -31.5816 -31.5791 -31.5745 -31.5661
    -8.7968  -8.0428  -8.0313  -8.0202   3.9970   3.9999   4.0038   5.0887
     5.8320   5.8449   5.8581   6.6804   6.7058   6.7296   7.3517   7.3575

          k =-0.2479 0.2522-0.2500 (  5152 PWs)   bands (ev):

   -64.8300 -64.8254 -64.8252 -64.8246 -31.6267 -31.6242 -31.6224 -31.6054
   -31.5941 -31.5933 -31.5922 -31.5863 -31.5816 -31.5791 -31.5745 -31.5661
    -8.7968  -8.0428  -8.0313  -8.0202   3.9970   3.9999   4.0038   5.0887
     5.8320   5.8449   5.8581   6.6804   6.7058   6.7296   7.3517   7.3575

          k = 0.2479-0.2522-0.2500 (  5152 PWs)   bands (ev):

   -64.8300 -64.8254 -64.8252 -64.8246 -31.6267 -31.6242 -31.6224 -31.6054
   -31.5941 -31.5933 -31.5922 -31.5863 -31.5816 -31.5791 -31.5745 -31.5661
    -8.7968  -8.0428  -8.0313  -8.0202   3.9970   3.9999   4.0038   5.0887
     5.8320   5.8449   5.8581   6.6804   6.7058   6.7296   7.3517   7.3575

          k =-0.2479 0.2522 0.5000 (  5150 PWs)   bands (ev):

   -64.8277 -64.8274 -64.8253 -64.8248 -31.6277 -31.6275 -31.6208 -31.6206
   -31.5934 -31.5931 -31.5813 -31.5811 -31.5787 -31.5787 -31.5728 -31.5726
    -8.3998  -8.3997  -7.9980  -7.9979   3.8214   3.8215   4.1974   4.1975
     5.8289   5.8290   6.7401   6.7404   6.8679   6.8680   7.0156   7.0156

          k =-0.2479 0.5043 0.2500 (  5138 PWs)   bands (ev):

   -64.8277 -64.8273 -64.8254 -64.8249 -31.6280 -31.6279 -31.6199 -31.6198
   -31.5951 -31.5949 -31.5811 -31.5809 -31.5763 -31.5763 -31.5731 -31.5730
    -8.3919  -8.3912  -8.0006  -8.0006   3.8192   3.8192   4.1839   4.1844
     5.8307   5.8307   6.7326   6.7328   6.8801   6.8804   7.0010   7.0016

          k = 0.4958-0.2522 0.2500 (  5144 PWs)   bands (ev):

   -64.8278 -64.8275 -64.8252 -64.8247 -31.6273 -31.6272 -31.6213 -31.6213
   -31.5902 -31.5900 -31.5833 -31.5832 -31.5793 -31.5792 -31.5725 -31.5723
    -8.4080  -8.4074  -7.9949  -7.9949   3.8230   3.8231   4.2108   4.2112
     5.8286   5.8286   6.7461   6.7463   6.8552   6.8556   7.0294   7.0300

     highest occupied level (ev):     7.6897

!    total energy              =    -608.39235567 Ry
     Harris-Foulkes estimate   =    -608.39235567 Ry
     estimated scf accuracy    <          9.6E-11 Ry

     The total energy is the sum of the following terms:

     one-electron contribution =    -303.60804285 Ry
     hartree contribution      =     168.09444680 Ry
     xc contribution           =     -97.84756412 Ry
     ewald contribution        =    -375.03119550 Ry

     convergence has been achieved in   4 iterations

     Forces acting on atoms (cartesian axes, Ry/au):

     atom    1 type  1   force =     0.00005197   -0.00004440    0.00000052
     atom    2 type  1   force =    -0.00001722    0.00001922   -0.00000012
     atom    3 type  1   force =     0.00000263   -0.00000370   -0.00000012
     atom    4 type  1   force =     0.00000886    0.00001596    0.00000006
     atom    5 type  2   force =    -0.00000178    0.00003147   -0.00000010
     atom    6 type  2   force =    -0.00000684   -0.00004434   -0.00000010
     atom    7 type  2   force =    -0.00000889    0.00003239    0.00000006
     atom    8 type  2   force =    -0.00002872   -0.00000660   -0.00000020

     Total force =     0.000103     Total SCF correction =     0.000037
     SCF correction compared to forces is large: reduce conv_thr to get better values


     Computing stress (Cartesian axis) and pressure

          total   stress  (Ry/bohr**3)                   (kbar)     P=  -67.53
  -0.00055691   0.00000001  -0.00000000        -81.92      0.00     -0.00
   0.00000001  -0.00035502   0.00000000          0.00    -52.22      0.00
  -0.00000000   0.00000000  -0.00046520         -0.00      0.00    -68.43


     bfgs converged in   7 scf cycles and   6 bfgs steps
     (criteria: energy <  1.0E-05 Ry, force <  1.0E-04 Ry/Bohr)

     End of BFGS Geometry Optimization

     Final energy   =    -608.3923556744 Ry
Begin final coordinates

ATOMIC_POSITIONS (alat)
Mg      -0.001976083   0.001991495  -0.000017041
Mg      -0.002139965   0.497900314   0.500017774
Mg       0.502078334   0.002156400   0.500017790
Mg       0.502049916   0.497922095  -0.000018403
O        0.502117142   0.002119767  -0.000018159
O       -0.002122691   0.497887253  -0.000018161
O       -0.002116487   0.002112849   0.500018163
O        0.502109834   0.497909826   0.500018037
End final coordinates



     Writing output data file diamond.1.008571.70.4.save
 
     init_run     :      0.61s CPU      0.64s WALL (       1 calls)
     electrons    :     62.96s CPU     63.98s WALL (       7 calls)
     update_pot   :      0.64s CPU      0.65s WALL (       6 calls)
     forces       :      1.31s CPU      1.32s WALL (       7 calls)
     stress       :      2.98s CPU      2.99s WALL (       7 calls)

     Called by init_run:
     wfcinit      :      0.51s CPU      0.52s WALL (       1 calls)
     potinit      :      0.05s CPU      0.05s WALL (       1 calls)

     Called by electrons:
     c_bands      :     55.30s CPU     56.13s WALL (      39 calls)
     sum_band     :      7.41s CPU      7.57s WALL (      39 calls)
     v_of_rho     :      0.22s CPU      0.22s WALL (      43 calls)
     mix_rho      :      0.03s CPU      0.03s WALL (      39 calls)

     Called by c_bands:
     init_us_2    :      0.81s CPU      0.82s WALL (    3348 calls)
     cegterg      :     51.59s CPU     52.39s WALL (    1404 calls)

     Called by sum_band:

     Called by *egterg:
     h_psi        :     37.85s CPU     38.61s WALL (    4721 calls)
     g_psi        :      0.29s CPU      0.29s WALL (    3281 calls)
     cdiaghg      :      7.28s CPU      7.29s WALL (    4361 calls)

     Called by h_psi:
     h_psi:pot    :     37.68s CPU     38.42s WALL (    4721 calls)
     h_psi:calbec :      2.09s CPU      2.10s WALL (    4721 calls)
     vloc_psi     :     33.84s CPU     34.55s WALL (    4721 calls)
     add_vuspsi   :      1.74s CPU      1.76s WALL (    4721 calls)

     General routines
     calbec       :      2.80s CPU      2.81s WALL (    5981 calls)
     fft          :      0.17s CPU      0.18s WALL (     653 calls)
     fftw         :     37.11s CPU     37.60s WALL (  290290 calls)
     davcio       :      0.00s CPU      0.01s WALL (      36 calls)
 
     Parallel routines
     fft_scatter  :     10.55s CPU     10.15s WALL (  290943 calls)
 
     PWSCF        :  1m 9.07s CPU     1m10.32s WALL

 
   This run was terminated on:  16:23: 4  22Apr2018            

=------------------------------------------------------------------------------=
   JOB DONE.
=------------------------------------------------------------------------------=
