
     Program PWSCF v.6.1 (svn rev. 13369) starts on 22Apr2018 at 16:13:19 

     This program is part of the open-source Quantum ESPRESSO suite
     for quantum simulation of materials; please cite
         "P. Giannozzi et al., J. Phys.:Condens. Matter 21 395502 (2009);
          URL http://www.quantum-espresso.org", 
     in publications or presentations arising from this work. More details at
     http://www.quantum-espresso.org/quote

     Parallel version (MPI), running on     8 processors
     R & G space division:  proc/nbgrp/npool/nimage =       8
     Waiting for input...
     Reading input from standard input
Warning: card       &CELL ignored
Warning: card       CELL_DYNAMICS = 'BFGS' ignored
Warning: card       PRESS = 0.0D0 ignored
Warning: card       PRESS_CONV_THR = 0.01D0 ignored
Warning: card       / ignored

     Current dimensions of program PWSCF are:
     Max number of different atomic species (ntypx) = 10
     Max number of k-points (npk) =  40000
     Max angular momentum in pseudopotentials (lmaxx) =  3

     Subspace diagonalization in iterative solution of the eigenvalue problem:
     a serial algorithm will be used

 
     Parallelization info
     --------------------
     sticks:   dense  smooth     PW     G-vecs:    dense   smooth      PW
     Min         180     180     52                 5156     5156     816
     Max         182     182     53                 5157     5157     819
     Sum        1445    1445    421                41251    41251    6547
 


     bravais-lattice index     =            0
     lattice parameter (alat)  =       8.0448  a.u.
     unit-cell volume          =     520.6402 (a.u.)^3
     number of atoms/cell      =            8
     number of atomic types    =            2
     number of electrons       =        64.00
     number of Kohn-Sham states=           32
     kinetic-energy cutoff     =      70.0000  Ry
     charge density cutoff     =     280.0000  Ry
     convergence threshold     =      1.0E-08
     mixing beta               =       0.7000
     number of iterations used =            8  plain     mixing
     Exchange-correlation      = PBE ( 1  4  3  4 0 0)
     nstep                     =           50


     celldm(1)=   8.044750  celldm(2)=   0.000000  celldm(3)=   0.000000
     celldm(4)=   0.000000  celldm(5)=   0.000000  celldm(6)=   0.000000

     crystal axes: (cart. coord. in units of alat)
               a(1) = (   1.002857   0.000000   0.000000 )  
               a(2) = (   0.000000   0.997143   0.000000 )  
               a(3) = (   0.000000   0.000000   1.000008 )  

     reciprocal axes: (cart. coord. in units 2 pi/alat)
               b(1) = (  0.997151  0.000000  0.000000 )  
               b(2) = (  0.000000  1.002865  0.000000 )  
               b(3) = (  0.000000  0.000000  0.999992 )  


     PseudoPot. # 1 for Mg read from file:
     ../pseudo/Mg.pbe.UPF
     MD5 check sum: 4c04d8c6e0476e83eaecaf72fa8acc4d
     Pseudo is Norm-conserving, Zval = 10.0
     Generated using ONCVPSP code by D. R. Hamann
     Using radial grid of 1510 points,  4 beta functions with: 
                l(1) =   0
                l(2) =   0
                l(3) =   1
                l(4) =   1

     PseudoPot. # 2 for O  read from file:
     ../pseudo/O.pbe.UPF
     MD5 check sum: 3e3f909f7470e8921608ab6b1f57bbae
     Pseudo is Norm-conserving + core correction, Zval =  6.0
     Generated using ONCVPSP code by D. R. Hamann
     Using radial grid of  936 points,  5 beta functions with: 
                l(1) =   0
                l(2) =   0
                l(3) =   1
                l(4) =   1
                l(5) =   2

     atomic species   valence    mass     pseudopotential
        Mg            10.00    24.30500     Mg( 1.00)
        O              6.00    15.99940     O ( 1.00)

      2 Sym. Ops. (no inversion) found



   Cartesian axes

     site n.     atom                  positions (alat units)
         1           Mg  tau(   1) = (   0.0000000   0.0000000   0.0000000  )
         2           Mg  tau(   2) = (   0.0000000   0.5000000   0.5000000  )
         3           Mg  tau(   3) = (   0.5000000   0.0000000   0.5000000  )
         4           Mg  tau(   4) = (   0.5000000   0.5000000   0.0000000  )
         5           O   tau(   5) = (   0.5000000   0.0000000   0.0000000  )
         6           O   tau(   6) = (   0.0000000   0.5000000   0.0000000  )
         7           O   tau(   7) = (   0.0000000   0.0000000   0.5000000  )
         8           O   tau(   8) = (   0.5000000   0.5000000   0.5000000  )

     number of k points=    30
                       cart. coord. in units 2pi/alat
        k(    1) = (   0.0000000   0.0000000   0.0000000), wk =   0.0312500
        k(    2) = (   0.0000000   0.0000000   0.2499980), wk =   0.0625000
        k(    3) = (   0.0000000   0.0000000  -0.4999959), wk =   0.0312500
        k(    4) = (   0.0000000   0.2507163   0.0000000), wk =   0.0625000
        k(    5) = (   0.0000000   0.2507163   0.2499980), wk =   0.1250000
        k(    6) = (   0.0000000   0.2507163  -0.4999959), wk =   0.0625000
        k(    7) = (   0.0000000  -0.5014326   0.0000000), wk =   0.0312500
        k(    8) = (   0.0000000  -0.5014326   0.2499980), wk =   0.0625000
        k(    9) = (   0.0000000  -0.5014326  -0.4999959), wk =   0.0312500
        k(   10) = (   0.2492878   0.0000000   0.0000000), wk =   0.0625000
        k(   11) = (   0.2492878   0.0000000   0.2499980), wk =   0.1250000
        k(   12) = (   0.2492878   0.0000000  -0.4999959), wk =   0.0625000
        k(   13) = (   0.2492878   0.2507163   0.0000000), wk =   0.0625000
        k(   14) = (   0.2492878   0.2507163   0.2499980), wk =   0.1250000
        k(   15) = (   0.2492878   0.2507163  -0.4999959), wk =   0.0625000
        k(   16) = (   0.2492878  -0.5014326   0.0000000), wk =   0.0625000
        k(   17) = (   0.2492878  -0.5014326   0.2499980), wk =   0.1250000
        k(   18) = (   0.2492878  -0.5014326  -0.4999959), wk =   0.0625000
        k(   19) = (  -0.4985756   0.0000000   0.0000000), wk =   0.0312500
        k(   20) = (  -0.4985756   0.0000000   0.2499980), wk =   0.0625000
        k(   21) = (  -0.4985756   0.0000000  -0.4999959), wk =   0.0312500
        k(   22) = (  -0.4985756   0.2507163   0.0000000), wk =   0.0625000
        k(   23) = (  -0.4985756   0.2507163   0.2499980), wk =   0.1250000
        k(   24) = (  -0.4985756   0.2507163  -0.4999959), wk =   0.0625000
        k(   25) = (  -0.4985756  -0.5014326   0.0000000), wk =   0.0312500
        k(   26) = (  -0.4985756  -0.5014326   0.2499980), wk =   0.0625000
        k(   27) = (  -0.4985756  -0.5014326  -0.4999959), wk =   0.0312500
        k(   28) = (  -0.2492878   0.2507163   0.0000000), wk =   0.0625000
        k(   29) = (  -0.2492878   0.2507163  -0.2499980), wk =   0.1250000
        k(   30) = (  -0.2492878   0.2507163   0.4999959), wk =   0.0625000

     Dense  grid:    41251 G-vectors     FFT dimensions: (  45,  45,  45)

     Estimated max dynamical RAM per process >      15.33MB

     Estimated total allocated dynamical RAM >     122.66MB

     Check: negative/imaginary core charge=   -0.000007    0.000000

     Initial potential from superposition of free atoms

     starting charge   63.99678, renormalised to   64.00000
     Starting wfc are   36 randomized atomic wfcs

     total cpu time spent up to now is        0.7 secs

     per-process dynamical memory:    51.0 Mb

     Self-consistent Calculation

     iteration #  1     ecut=    70.00 Ry     beta=0.70
     Davidson diagonalization with overlap
     ethr =  1.00E-02,  avg # of iterations =  2.0

     total cpu time spent up to now is        1.9 secs

     total energy              =    -607.71998633 Ry
     Harris-Foulkes estimate   =    -608.84377365 Ry
     estimated scf accuracy    <       1.56155063 Ry

     iteration #  2     ecut=    70.00 Ry     beta=0.70
     Davidson diagonalization with overlap
     ethr =  2.44E-03,  avg # of iterations =  2.9

     total cpu time spent up to now is        3.3 secs

     total energy              =    -608.10574490 Ry
     Harris-Foulkes estimate   =    -608.80332536 Ry
     estimated scf accuracy    <       1.44818294 Ry

     iteration #  3     ecut=    70.00 Ry     beta=0.70
     Davidson diagonalization with overlap
     ethr =  2.26E-03,  avg # of iterations =  2.0

     total cpu time spent up to now is        4.6 secs

     total energy              =    -608.39120344 Ry
     Harris-Foulkes estimate   =    -608.39186056 Ry
     estimated scf accuracy    <       0.00674860 Ry

     iteration #  4     ecut=    70.00 Ry     beta=0.70
     Davidson diagonalization with overlap
     ethr =  1.05E-05,  avg # of iterations =  2.0

     total cpu time spent up to now is        5.8 secs

     total energy              =    -608.39267798 Ry
     Harris-Foulkes estimate   =    -608.39272203 Ry
     estimated scf accuracy    <       0.00011002 Ry

     iteration #  5     ecut=    70.00 Ry     beta=0.70
     Davidson diagonalization with overlap
     ethr =  1.72E-07,  avg # of iterations =  1.5

     total cpu time spent up to now is        6.9 secs

     total energy              =    -608.39268542 Ry
     Harris-Foulkes estimate   =    -608.39268389 Ry
     estimated scf accuracy    <       0.00001029 Ry

     iteration #  6     ecut=    70.00 Ry     beta=0.70
     Davidson diagonalization with overlap
     ethr =  1.61E-08,  avg # of iterations =  2.0

     total cpu time spent up to now is        8.3 secs

     total energy              =    -608.39268697 Ry
     Harris-Foulkes estimate   =    -608.39268737 Ry
     estimated scf accuracy    <       0.00000093 Ry

     iteration #  7     ecut=    70.00 Ry     beta=0.70
     Davidson diagonalization with overlap
     ethr =  1.45E-09,  avg # of iterations =  2.0

     total cpu time spent up to now is        9.5 secs

     total energy              =    -608.39268699 Ry
     Harris-Foulkes estimate   =    -608.39268705 Ry
     estimated scf accuracy    <       0.00000019 Ry

     iteration #  8     ecut=    70.00 Ry     beta=0.70
     Davidson diagonalization with overlap
     ethr =  2.91E-10,  avg # of iterations =  2.0

     total cpu time spent up to now is       10.6 secs

     total energy              =    -608.39268698 Ry
     Harris-Foulkes estimate   =    -608.39268700 Ry
     estimated scf accuracy    <       0.00000004 Ry

     iteration #  9     ecut=    70.00 Ry     beta=0.70
     Davidson diagonalization with overlap
     ethr =  6.25E-11,  avg # of iterations =  2.0

     total cpu time spent up to now is       12.1 secs

     End of self-consistent calculation

          k = 0.0000 0.0000 0.0000 (  5153 PWs)   bands (ev):

   -64.8341 -64.8247 -64.8246 -64.8238 -31.6320 -31.6306 -31.6291 -31.5948
   -31.5941 -31.5937 -31.5924 -31.5919 -31.5913 -31.5670 -31.5635 -31.5620
    -9.3649  -7.9214  -7.9140  -7.9065   3.7487   3.7578   3.7674   6.3596
     6.3623   6.3773   6.3824   6.3978   6.4002   7.6655   7.6724   7.6784

          k = 0.0000 0.0000 0.2500 (  5169 PWs)   bands (ev):

   -64.8327 -64.8259 -64.8247 -64.8240 -31.6261 -31.6226 -31.6203 -31.6005
   -31.5964 -31.5942 -31.5932 -31.5904 -31.5868 -31.5778 -31.5726 -31.5695
    -9.1565  -8.1288  -7.8908  -7.8802   4.0396   4.0571   4.0950   5.8530
     5.8621   6.1564   6.1842   6.5269   6.5593   6.6588   7.4412   7.4589

          k = 0.0000 0.0000-0.5000 (  5118 PWs)   bands (ev):

   -64.8295 -64.8290 -64.8246 -64.8241 -31.6114 -31.6112 -31.6076 -31.6074
   -31.6015 -31.6015 -31.5904 -31.5904 -31.5816 -31.5813 -31.5788 -31.5786
    -8.6464  -8.6460  -7.8568  -7.8567   4.8399   4.8404   4.8546   4.8550
     5.1226   5.1229   5.9731   5.9734   6.9550   6.9552   6.9814   6.9816

          k = 0.0000 0.2507 0.0000 (  5161 PWs)   bands (ev):

   -64.8327 -64.8258 -64.8247 -64.8241 -31.6259 -31.6239 -31.6188 -31.5997
   -31.5973 -31.5919 -31.5914 -31.5904 -31.5893 -31.5763 -31.5727 -31.5712
    -9.1549  -8.1217  -7.8910  -7.8857   4.0415   4.0500   4.1001   5.8689
     5.8735   6.1524   6.1662   6.5245   6.5411   6.6528   7.4463   7.4550

          k = 0.0000 0.2507 0.2500 (  5157 PWs)   bands (ev):

   -64.8315 -64.8258 -64.8255 -64.8245 -31.6210 -31.6205 -31.6188 -31.6061
   -31.5957 -31.5951 -31.5920 -31.5863 -31.5862 -31.5848 -31.5766 -31.5671
    -8.9649  -8.0640  -8.0586  -7.8941   4.1594   4.1623   4.3219   5.0713
     5.8385   6.0523   6.0662   6.4715   6.4762   6.5928   7.1796   7.5042

          k = 0.0000 0.2507-0.5000 (  5146 PWs)   bands (ev):

   -64.8288 -64.8283 -64.8253 -64.8247 -31.6159 -31.6157 -31.6096 -31.6096
   -31.6079 -31.6077 -31.5861 -31.5859 -31.5826 -31.5825 -31.5737 -31.5736
    -8.5091  -8.5088  -7.9461  -7.9460   4.4143   4.4145   4.7441   4.7443
     5.0911   5.0915   6.5534   6.5537   6.5852   6.5855   7.0888   7.0889

          k = 0.0000-0.5014 0.0000 (  5110 PWs)   bands (ev):

   -64.8295 -64.8290 -64.8247 -64.8241 -31.6114 -31.6105 -31.6091 -31.6082
   -31.5997 -31.5987 -31.5893 -31.5892 -31.5820 -31.5815 -31.5807 -31.5801
    -8.6489  -8.6334  -7.8588  -7.8586   4.8357   4.8432   4.8600   4.8675
     5.1153   5.1251   5.9586   5.9589   6.9490   6.9622   6.9640   6.9771

          k = 0.0000-0.5014 0.2500 (  5146 PWs)   bands (ev):

   -64.8288 -64.8283 -64.8254 -64.8248 -31.6169 -31.6164 -31.6093 -31.6087
   -31.6079 -31.6072 -31.5867 -31.5861 -31.5818 -31.5815 -31.5743 -31.5741
    -8.5125  -8.4988  -7.9492  -7.9466   4.4092   4.4188   4.7367   4.7476
     5.0853   5.1089   6.5408   6.5497   6.5691   6.5862   7.0898   7.0944

          k = 0.0000-0.5014-0.5000 (  5196 PWs)   bands (ev):

   -64.8271 -64.8270 -64.8270 -64.8260 -31.6185 -31.6183 -31.6180 -31.6179
   -31.5988 -31.5986 -31.5982 -31.5979 -31.5749 -31.5748 -31.5745 -31.5744
    -8.2080  -8.2078  -8.1994  -8.1992   4.2802   4.2804   4.2844   4.2845
     5.7574   5.7578   5.7786   5.7790   7.0638   7.0640   7.0709   7.0711

          k = 0.2493 0.0000 0.0000 (  5165 PWs)   bands (ev):

   -64.8327 -64.8260 -64.8246 -64.8240 -31.6237 -31.6229 -31.6222 -31.5982
   -31.5964 -31.5952 -31.5947 -31.5882 -31.5863 -31.5809 -31.5712 -31.5696
    -9.1581  -8.1359  -7.8853  -7.8800   4.0466   4.0556   4.0895   5.8423
     5.8468   6.1747   6.1886   6.5447   6.5606   6.6640   7.4450   7.4540

          k = 0.2493 0.0000 0.2500 (  5157 PWs)   bands (ev):

   -64.8315 -64.8259 -64.8255 -64.8244 -31.6220 -31.6208 -31.6177 -31.6076
   -31.5932 -31.5920 -31.5916 -31.5887 -31.5877 -31.5861 -31.5734 -31.5689
    -8.9678  -8.0695  -8.0643  -7.8869   4.1606   4.1628   4.3349   5.0710
     5.8553   6.0451   6.0583   6.4932   6.4976   6.5741   7.1668   7.5065

          k = 0.2493 0.0000-0.5000 (  5146 PWs)   bands (ev):

   -64.8288 -64.8283 -64.8253 -64.8247 -31.6178 -31.6176 -31.6100 -31.6099
   -31.6046 -31.6043 -31.5840 -31.5839 -31.5826 -31.5824 -31.5765 -31.5764
    -8.5109  -8.5106  -7.9483  -7.9481   4.4223   4.4225   4.7577   4.7579
     5.1009   5.1013   6.5405   6.5408   6.5676   6.5679   7.0989   7.0990

          k = 0.2493 0.2507 0.0000 (  5157 PWs)   bands (ev):

   -64.8315 -64.8259 -64.8255 -64.8244 -31.6220 -31.6191 -31.6187 -31.6069
   -31.5940 -31.5935 -31.5927 -31.5878 -31.5874 -31.5850 -31.5750 -31.5679
    -8.9664  -8.0693  -8.0588  -7.8905   4.1588   4.1641   4.3283   5.0712
     5.8468   6.0418   6.0688   6.4797   6.4891   6.5838   7.1733   7.5053

          k = 0.2493 0.2507 0.2500 (  5151 PWs)   bands (ev):

   -64.8305 -64.8259 -64.8258 -64.8250 -31.6251 -31.6247 -31.6242 -31.6057
   -31.5935 -31.5933 -31.5929 -31.5848 -31.5834 -31.5823 -31.5722 -31.5695
    -8.7965  -8.0347  -8.0310  -8.0272   3.9991   4.0002   4.0016   5.0889
     5.8414   5.8455   5.8499   6.6971   6.7055   6.7135   7.3543   7.3560

          k = 0.2493 0.2507-0.5000 (  5130 PWs)   bands (ev):

   -64.8283 -64.8279 -64.8258 -64.8252 -31.6275 -31.6274 -31.6206 -31.6205
   -31.5927 -31.5925 -31.5800 -31.5799 -31.5786 -31.5784 -31.5759 -31.5757
    -8.3995  -8.3992  -7.9974  -7.9973   3.8214   3.8214   4.1977   4.1979
     5.8301   5.8301   6.7399   6.7402   6.8686   6.8689   7.0160   7.0161

          k = 0.2493-0.5014 0.0000 (  5154 PWs)   bands (ev):

   -64.8288 -64.8283 -64.8254 -64.8248 -31.6177 -31.6172 -31.6095 -31.6090
   -31.6065 -31.6058 -31.5853 -31.5847 -31.5825 -31.5822 -31.5760 -31.5759
    -8.5134  -8.4997  -7.9503  -7.9475   4.4134   4.4230   4.7435   4.7544
     5.0899   5.1135   6.5350   6.5438   6.5594   6.5767   7.0947   7.0991

          k = 0.2493-0.5014 0.2500 (  5132 PWs)   bands (ev):

   -64.8283 -64.8278 -64.8259 -64.8252 -31.6279 -31.6277 -31.6204 -31.6202
   -31.5934 -31.5932 -31.5792 -31.5791 -31.5786 -31.5782 -31.5763 -31.5761
    -8.4025  -8.3908  -7.9984  -7.9983   3.8206   3.8207   4.1877   4.1991
     5.8304   5.8306   6.7377   6.7379   6.8704   6.8752   7.0058   7.0166

          k = 0.2493-0.5014-0.5000 (  5128 PWs)   bands (ev):

   -64.8271 -64.8270 -64.8270 -64.8260 -31.6310 -31.6307 -31.6307 -31.6307
   -31.5837 -31.5835 -31.5833 -31.5832 -31.5739 -31.5738 -31.5736 -31.5735
    -8.1702  -8.1700  -8.1640  -8.1639   3.6338   3.6338   3.6395   3.6396
     6.5147   6.5149   6.5270   6.5272   7.0658   7.0660   7.0708   7.0710

          k =-0.4986 0.0000 0.0000 (  5130 PWs)   bands (ev):

   -64.8296 -64.8291 -64.8246 -64.8240 -31.6098 -31.6090 -31.6082 -31.6074
   -31.6034 -31.6025 -31.5936 -31.5935 -31.5801 -31.5795 -31.5787 -31.5782
    -8.6589  -8.6434  -7.8548  -7.8547   4.8280   4.8352   4.8521   4.8593
     5.1207   5.1298   5.9871   5.9874   6.9594   6.9727   6.9741   6.9873

          k =-0.4986 0.0000 0.2500 (  5148 PWs)   bands (ev):

   -64.8288 -64.8284 -64.8253 -64.8247 -31.6174 -31.6170 -31.6108 -31.6102
   -31.6051 -31.6043 -31.5851 -31.5847 -31.5826 -31.5820 -31.5757 -31.5755
    -8.5208  -8.5072  -7.9478  -7.9450   4.4176   4.4272   4.7547   4.7651
     5.0839   5.1072   6.5447   6.5534   6.5669   6.5837   7.0937   7.0979

          k =-0.4986 0.0000-0.5000 (  5200 PWs)   bands (ev):

   -64.8271 -64.8271 -64.8270 -64.8260 -31.6193 -31.6192 -31.6189 -31.6188
   -31.5950 -31.5948 -31.5944 -31.5941 -31.5777 -31.5775 -31.5772 -31.5772
    -8.2120  -8.2118  -8.2033  -8.2031   4.3019   4.3021   4.3059   4.3060
     5.7560   5.7564   5.7769   5.7772   7.0551   7.0553   7.0623   7.0625

          k =-0.4986 0.2507 0.0000 (  5148 PWs)   bands (ev):

   -64.8288 -64.8284 -64.8253 -64.8247 -31.6165 -31.6161 -31.6107 -31.6101
   -31.6070 -31.6062 -31.5843 -31.5842 -31.5839 -31.5838 -31.5741 -31.5739
    -8.5199  -8.5063  -7.9466  -7.9440   4.4138   4.4234   4.7479   4.7584
     5.0787   5.1020   6.5519   6.5603   6.5748   6.5918   7.0885   7.0928

          k =-0.4986 0.2507 0.2500 (  5134 PWs)   bands (ev):

   -64.8283 -64.8279 -64.8258 -64.8252 -31.6275 -31.6274 -31.6210 -31.6208
   -31.5917 -31.5915 -31.5815 -31.5814 -31.5782 -31.5781 -31.5760 -31.5756
    -8.4078  -8.3962  -7.9965  -7.9964   3.8220   3.8220   4.1968   4.2079
     5.8297   5.8299   6.7422   6.7424   6.8623   6.8667   7.0153   7.0259

          k =-0.4986 0.2507-0.5000 (  5144 PWs)   bands (ev):

   -64.8271 -64.8270 -64.8270 -64.8260 -31.6315 -31.6312 -31.6312 -31.6311
   -31.5817 -31.5815 -31.5814 -31.5812 -31.5762 -31.5760 -31.5758 -31.5758
    -8.1722  -8.1721  -8.1660  -8.1659   3.6409   3.6410   3.6466   3.6467
     6.5215   6.5217   6.5335   6.5337   7.0573   7.0575   7.0624   7.0626

          k =-0.4986-0.5014 0.0000 (  5192 PWs)   bands (ev):

   -64.8271 -64.8271 -64.8270 -64.8260 -31.6189 -31.6185 -31.6183 -31.6181
   -31.5974 -31.5967 -31.5967 -31.5960 -31.5760 -31.5757 -31.5755 -31.5753
    -8.2142  -8.2056  -8.2054  -8.1969   4.2892   4.2931   4.2934   4.2973
     5.7460   5.7669   5.7673   5.7881   7.0560   7.0632   7.0633   7.0703

          k =-0.4986-0.5014 0.2500 (  5140 PWs)   bands (ev):

   -64.8271 -64.8270 -64.8270 -64.8260 -31.6313 -31.6311 -31.6310 -31.6310
   -31.5830 -31.5827 -31.5827 -31.5824 -31.5750 -31.5748 -31.5746 -31.5745
    -8.1742  -8.1680  -8.1679  -8.1619   3.6345   3.6401   3.6403   3.6460
     6.5119   6.5240   6.5243   6.5363   7.0591   7.0642   7.0642   7.0692

          k =-0.4986-0.5014-0.5000 (  5152 PWs)   bands (ev):

   -64.8271 -64.8270 -64.8270 -64.8260 -31.6398 -31.6395 -31.6395 -31.6395
   -31.5766 -31.5764 -31.5763 -31.5762 -31.5733 -31.5731 -31.5731 -31.5730
    -8.1301  -8.1300  -8.1299  -8.1298   3.2173   3.2174   3.2174   3.2174
     7.0599   7.0600   7.0601   7.0602   7.0697   7.0698   7.0700   7.0700

          k =-0.2493 0.2507 0.0000 (  5157 PWs)   bands (ev):

   -64.8315 -64.8259 -64.8255 -64.8244 -31.6220 -31.6191 -31.6187 -31.6069
   -31.5940 -31.5935 -31.5927 -31.5878 -31.5874 -31.5850 -31.5750 -31.5680
    -8.9664  -8.0693  -8.0588  -7.8905   4.1588   4.1641   4.3283   5.0712
     5.8468   6.0418   6.0688   6.4797   6.4891   6.5838   7.1733   7.5053

          k =-0.2493 0.2507-0.2500 (  5151 PWs)   bands (ev):

   -64.8305 -64.8259 -64.8258 -64.8250 -31.6251 -31.6247 -31.6242 -31.6057
   -31.5935 -31.5933 -31.5929 -31.5848 -31.5834 -31.5823 -31.5722 -31.5695
    -8.7965  -8.0347  -8.0310  -8.0272   3.9991   4.0002   4.0016   5.0889
     5.8414   5.8455   5.8499   6.6971   6.7055   6.7135   7.3543   7.3560

          k =-0.2493 0.2507 0.5000 (  5130 PWs)   bands (ev):

   -64.8283 -64.8279 -64.8258 -64.8252 -31.6275 -31.6274 -31.6206 -31.6205
   -31.5927 -31.5925 -31.5800 -31.5799 -31.5786 -31.5784 -31.5759 -31.5757
    -8.3995  -8.3992  -7.9974  -7.9973   3.8213   3.8214   4.1978   4.1979
     5.8301   5.8301   6.7399   6.7402   6.8687   6.8688   7.0160   7.0161

     highest occupied level (ev):     7.6784

!    total energy              =    -608.39268699 Ry
     Harris-Foulkes estimate   =    -608.39268699 Ry
     estimated scf accuracy    <          2.5E-09 Ry

     The total energy is the sum of the following terms:

     one-electron contribution =    -303.57719897 Ry
     hartree contribution      =     168.07796298 Ry
     xc contribution           =     -97.84668448 Ry
     ewald contribution        =    -375.04676651 Ry

     convergence has been achieved in   9 iterations

     Forces acting on atoms (cartesian axes, Ry/au):

     atom    1 type  1   force =    -0.00150757    0.00161523    0.00000000
     atom    2 type  1   force =    -0.00150913   -0.00158752    0.00000000
     atom    3 type  1   force =     0.00148015    0.00161620    0.00000000
     atom    4 type  1   force =     0.00147431   -0.00158296    0.00000000
     atom    5 type  2   force =     0.00175639    0.00183162    0.00000000
     atom    6 type  2   force =    -0.00172697   -0.00185703    0.00000000
     atom    7 type  2   force =    -0.00172913    0.00183058    0.00000000
     atom    8 type  2   force =     0.00176196   -0.00186612    0.00000000

     Total force =     0.006705     Total SCF correction =     0.000043


     Computing stress (Cartesian axis) and pressure

          total   stress  (Ry/bohr**3)                   (kbar)     P=  -68.12
  -0.00049794   0.00000000   0.00000000        -73.25      0.00      0.00
   0.00000000  -0.00042726   0.00000000          0.00    -62.85      0.00
   0.00000000   0.00000000  -0.00046406          0.00      0.00    -68.27


     BFGS Geometry Optimization

     number of scf cycles    =   1
     number of bfgs steps    =   0

     energy   new            =    -608.3926869892 Ry

     new trust radius        =       0.0025664924 bohr
     new conv_thr            =       0.0000000100 Ry


ATOMIC_POSITIONS (alat)
Mg      -0.000187398   0.000200781   0.000000000
Mg      -0.000187592   0.499802663   0.500000000
Mg       0.500183989   0.000200901   0.500000000
Mg       0.500183264   0.499803231   0.000000000
O        0.500218328   0.000227679   0.000000000
O       -0.000214670   0.499769163   0.000000000
O       -0.000214939   0.000227550   0.500000000
O        0.500219019   0.499768033   0.500000000



     Writing output data file diamond.1.002857.70.4.save
     NEW-OLD atomic charge density approx. for the potential

     Check: negative/imaginary core charge=   -0.000007    0.000000

     total cpu time spent up to now is       12.8 secs

     per-process dynamical memory:    51.7 Mb

     Self-consistent Calculation

     iteration #  1     ecut=    70.00 Ry     beta=0.70
     Davidson diagonalization with overlap
     ethr =  1.00E-06,  avg # of iterations =  3.0

     Threshold (ethr) on eigenvalues was too large:
     Diagonalizing with lowered threshold

     Davidson diagonalization with overlap
     ethr =  1.29E-08,  avg # of iterations =  1.1

     total cpu time spent up to now is       15.7 secs

     total energy              =    -608.39272228 Ry
     Harris-Foulkes estimate   =    -608.39272838 Ry
     estimated scf accuracy    <       0.00000832 Ry

     iteration #  2     ecut=    70.00 Ry     beta=0.70
     Davidson diagonalization with overlap
     ethr =  1.30E-08,  avg # of iterations =  2.3

     total cpu time spent up to now is       16.9 secs

     total energy              =    -608.39272480 Ry
     Harris-Foulkes estimate   =    -608.39272567 Ry
     estimated scf accuracy    <       0.00000144 Ry

     iteration #  3     ecut=    70.00 Ry     beta=0.70
     Davidson diagonalization with overlap
     ethr =  2.24E-09,  avg # of iterations =  2.0

     total cpu time spent up to now is       18.1 secs

     End of self-consistent calculation

          k = 0.0000 0.0000 0.0000 (  5153 PWs)   bands (ev):

   -64.8345 -64.8251 -64.8249 -64.8242 -31.6323 -31.6309 -31.6294 -31.5951
   -31.5944 -31.5940 -31.5927 -31.5922 -31.5916 -31.5672 -31.5637 -31.5623
    -9.3648  -7.9213  -7.9138  -7.9064   3.7488   3.7580   3.7675   6.3597
     6.3624   6.3775   6.3825   6.3979   6.4003   7.6656   7.6725   7.6786

          k = 0.0000 0.0000 0.2500 (  5169 PWs)   bands (ev):

   -64.8330 -64.8262 -64.8250 -64.8244 -31.6264 -31.6229 -31.6205 -31.6008
   -31.5966 -31.5945 -31.5935 -31.5907 -31.5871 -31.5781 -31.5729 -31.5698
    -9.1563  -8.1287  -7.8907  -7.8801   4.0397   4.0572   4.0952   5.8531
     5.8623   6.1566   6.1844   6.5269   6.5594   6.6589   7.4413   7.4590

          k = 0.0000 0.0000-0.5000 (  5118 PWs)   bands (ev):

   -64.8298 -64.8294 -64.8250 -64.8244 -31.6117 -31.6114 -31.6079 -31.6076
   -31.6018 -31.6018 -31.5907 -31.5907 -31.5819 -31.5816 -31.5791 -31.5789
    -8.6462  -8.6459  -7.8566  -7.8565   4.8400   4.8405   4.8547   4.8552
     5.1227   5.1230   5.9733   5.9736   6.9551   6.9553   6.9815   6.9817

          k = 0.0000 0.2507 0.0000 (  5161 PWs)   bands (ev):

   -64.8330 -64.8261 -64.8250 -64.8244 -31.6262 -31.6242 -31.6191 -31.6000
   -31.5976 -31.5922 -31.5917 -31.5907 -31.5896 -31.5766 -31.5730 -31.5715
    -9.1547  -8.1215  -7.8909  -7.8856   4.0416   4.0502   4.1001   5.8689
     5.8736   6.1525   6.1663   6.5246   6.5412   6.6529   7.4464   7.4551

          k = 0.0000 0.2507 0.2500 (  5157 PWs)   bands (ev):

   -64.8318 -64.8262 -64.8258 -64.8248 -31.6212 -31.6208 -31.6191 -31.6064
   -31.5960 -31.5954 -31.5923 -31.5866 -31.5865 -31.5850 -31.5769 -31.5674
    -8.9647  -8.0638  -8.0585  -7.8939   4.1596   4.1624   4.3220   5.0714
     5.8386   6.0525   6.0663   6.4717   6.4763   6.5929   7.1797   7.5044

          k = 0.0000 0.2507-0.5000 (  5146 PWs)   bands (ev):

   -64.8291 -64.8287 -64.8257 -64.8251 -31.6161 -31.6160 -31.6098 -31.6098
   -31.6083 -31.6080 -31.5864 -31.5862 -31.5829 -31.5828 -31.5740 -31.5739
    -8.5089  -8.5086  -7.9460  -7.9459   4.4144   4.4146   4.7443   4.7445
     5.0912   5.0916   6.5539   6.5541   6.5850   6.5853   7.0889   7.0890

          k = 0.0000-0.5014 0.0000 (  5110 PWs)   bands (ev):

   -64.8298 -64.8293 -64.8250 -64.8245 -31.6115 -31.6109 -31.6093 -31.6086
   -31.5999 -31.5992 -31.5895 -31.5895 -31.5822 -31.5818 -31.5809 -31.5805
    -8.6463  -8.6356  -7.8586  -7.8585   4.8395   4.8471   4.8563   4.8639
     5.1169   5.1236   5.9588   5.9591   6.9514   6.9617   6.9647   6.9749

          k = 0.0000-0.5014 0.2500 (  5146 PWs)   bands (ev):

   -64.8291 -64.8286 -64.8257 -64.8251 -31.6171 -31.6167 -31.6094 -31.6090
   -31.6082 -31.6076 -31.5869 -31.5864 -31.5821 -31.5819 -31.5746 -31.5744
    -8.5102  -8.5007  -7.9486  -7.9468   4.4108   4.4174   4.7385   4.7459
     5.0890   5.1052   6.5427   6.5487   6.5715   6.5833   7.0906   7.0938

          k = 0.0000-0.5014-0.5000 (  5196 PWs)   bands (ev):

   -64.8274 -64.8274 -64.8274 -64.8264 -31.6187 -31.6185 -31.6183 -31.6183
   -31.5990 -31.5988 -31.5986 -31.5983 -31.5752 -31.5750 -31.5748 -31.5747
    -8.2065  -8.2063  -8.2006  -8.2004   4.2810   4.2812   4.2838   4.2839
     5.7608   5.7612   5.7754   5.7757   7.0651   7.0653   7.0699   7.0701

          k = 0.2493 0.0000 0.0000 (  5165 PWs)   bands (ev):

   -64.8331 -64.8263 -64.8249 -64.8243 -31.6239 -31.6232 -31.6225 -31.5985
   -31.5967 -31.5955 -31.5950 -31.5884 -31.5866 -31.5812 -31.5715 -31.5699
    -9.1580  -8.1358  -7.8851  -7.8798   4.0467   4.0557   4.0896   5.8424
     5.8469   6.1748   6.1888   6.5448   6.5607   6.6641   7.4451   7.4541

          k = 0.2493 0.0000 0.2500 (  5157 PWs)   bands (ev):

   -64.8318 -64.8262 -64.8258 -64.8247 -31.6223 -31.6211 -31.6180 -31.6079
   -31.5935 -31.5923 -31.5919 -31.5890 -31.5880 -31.5864 -31.5737 -31.5692
    -8.9676  -8.0694  -8.0641  -7.8868   4.1607   4.1629   4.3350   5.0711
     5.8555   6.0451   6.0585   6.4933   6.4978   6.5741   7.1669   7.5066

          k = 0.2493 0.0000-0.5000 (  5146 PWs)   bands (ev):

   -64.8291 -64.8287 -64.8257 -64.8251 -31.6180 -31.6179 -31.6103 -31.6102
   -31.6049 -31.6046 -31.5843 -31.5842 -31.5829 -31.5827 -31.5768 -31.5767
    -8.5107  -8.5104  -7.9481  -7.9480   4.4224   4.4226   4.7578   4.7580
     5.1010   5.1014   6.5410   6.5413   6.5673   6.5676   7.0990   7.0991

          k = 0.2493 0.2507 0.0000 (  5157 PWs)   bands (ev):

   -64.8318 -64.8262 -64.8258 -64.8248 -31.6223 -31.6194 -31.6189 -31.6072
   -31.5943 -31.5938 -31.5930 -31.5880 -31.5877 -31.5853 -31.5753 -31.5682
    -8.9662  -8.0692  -8.0586  -7.8903   4.1589   4.1642   4.3285   5.0713
     5.8470   6.0419   6.0689   6.4799   6.4893   6.5837   7.1734   7.5054

          k = 0.2493 0.2507 0.2500 (  5151 PWs)   bands (ev):

   -64.8308 -64.8262 -64.8262 -64.8254 -31.6254 -31.6249 -31.6245 -31.6060
   -31.5938 -31.5936 -31.5932 -31.5851 -31.5837 -31.5825 -31.5725 -31.5698
    -8.7963  -8.0346  -8.0308  -8.0270   3.9992   4.0003   4.0017   5.0891
     5.8415   5.8457   5.8500   6.6972   6.7056   6.7136   7.3544   7.3561

          k = 0.2493 0.2507-0.5000 (  5130 PWs)   bands (ev):

   -64.8286 -64.8282 -64.8262 -64.8256 -31.6278 -31.6277 -31.6209 -31.6208
   -31.5930 -31.5928 -31.5803 -31.5802 -31.5789 -31.5787 -31.5762 -31.5760
    -8.3993  -8.3991  -7.9973  -7.9972   3.8215   3.8215   4.1978   4.1980
     5.8302   5.8302   6.7401   6.7404   6.8687   6.8689   7.0160   7.0162

          k = 0.2493-0.5014 0.0000 (  5154 PWs)   bands (ev):

   -64.8291 -64.8286 -64.8257 -64.8251 -31.6179 -31.6175 -31.6097 -31.6094
   -31.6067 -31.6062 -31.5856 -31.5851 -31.5828 -31.5826 -31.5763 -31.5762
    -8.5111  -8.5016  -7.9497  -7.9478   4.4150   4.4216   4.7453   4.7527
     5.0937   5.1099   6.5365   6.5425   6.5622   6.5741   7.0955   7.0986

          k = 0.2493-0.5014 0.2500 (  5132 PWs)   bands (ev):

   -64.8286 -64.8282 -64.8262 -64.8256 -31.6282 -31.6280 -31.6206 -31.6205
   -31.5937 -31.5935 -31.5795 -31.5794 -31.5789 -31.5786 -31.5766 -31.5764
    -8.4005  -8.3925  -7.9982  -7.9981   3.8207   3.8208   4.1896   4.1973
     5.8305   5.8307   6.7378   6.7380   6.8713   6.8746   7.0076   7.0151

          k = 0.2493-0.5014-0.5000 (  5128 PWs)   bands (ev):

   -64.8274 -64.8274 -64.8274 -64.8264 -31.6313 -31.6310 -31.6310 -31.6310
   -31.5840 -31.5837 -31.5837 -31.5835 -31.5742 -31.5740 -31.5739 -31.5738
    -8.1691  -8.1689  -8.1648  -8.1647   3.6348   3.6349   3.6387   3.6388
     6.5167   6.5169   6.5252   6.5254   7.0668   7.0670   7.0702   7.0703

          k =-0.4986 0.0000 0.0000 (  5130 PWs)   bands (ev):

   -64.8299 -64.8294 -64.8249 -64.8244 -31.6100 -31.6094 -31.6084 -31.6077
   -31.6036 -31.6030 -31.5939 -31.5938 -31.5803 -31.5799 -31.5789 -31.5785
    -8.6564  -8.6455  -7.8547  -7.8545   4.8317   4.8388   4.8487   4.8559
     5.1221   5.1285   5.9872   5.9876   6.9617   6.9720   6.9750   6.9852

          k =-0.4986 0.0000 0.2500 (  5148 PWs)   bands (ev):

   -64.8292 -64.8287 -64.8256 -64.8251 -31.6177 -31.6173 -31.6110 -31.6106
   -31.6053 -31.6047 -31.5853 -31.5851 -31.5828 -31.5824 -31.5760 -31.5758
    -8.5187  -8.5090  -7.9472  -7.9453   4.4191   4.4260   4.7564   4.7636
     5.0873   5.1038   6.5465   6.5526   6.5690   6.5810   7.0944   7.0974

          k =-0.4986 0.0000-0.5000 (  5200 PWs)   bands (ev):

   -64.8274 -64.8274 -64.8274 -64.8264 -31.6196 -31.6194 -31.6192 -31.6191
   -31.5952 -31.5950 -31.5948 -31.5945 -31.5779 -31.5778 -31.5775 -31.5775
    -8.2105  -8.2103  -8.2044  -8.2042   4.3027   4.3028   4.3054   4.3055
     5.7591   5.7595   5.7739   5.7742   7.0563   7.0565   7.0614   7.0615

          k =-0.4986 0.2507 0.0000 (  5148 PWs)   bands (ev):

   -64.8292 -64.8287 -64.8256 -64.8251 -31.6167 -31.6164 -31.6109 -31.6105
   -31.6072 -31.6066 -31.5846 -31.5845 -31.5842 -31.5841 -31.5744 -31.5742
    -8.5178  -8.5081  -7.9461  -7.9442   4.4153   4.4221   4.7496   4.7569
     5.0822   5.0987   6.5532   6.5592   6.5774   6.5894   7.0893   7.0923

          k =-0.4986 0.2507 0.2500 (  5134 PWs)   bands (ev):

   -64.8286 -64.8282 -64.8262 -64.8255 -31.6278 -31.6277 -31.6213 -31.6211
   -31.5920 -31.5918 -31.5817 -31.5817 -31.5785 -31.5784 -31.5763 -31.5759
    -8.4060  -8.3978  -7.9963  -7.9962   3.8221   3.8221   4.1986   4.2063
     5.8299   5.8300   6.7423   6.7426   6.8630   6.8662   7.0170   7.0245

          k =-0.4986 0.2507-0.5000 (  5144 PWs)   bands (ev):

   -64.8274 -64.8274 -64.8274 -64.8264 -31.6317 -31.6315 -31.6315 -31.6314
   -31.5820 -31.5818 -31.5818 -31.5815 -31.5765 -31.5763 -31.5761 -31.5761
    -8.1711  -8.1710  -8.1668  -8.1666   3.6419   3.6420   3.6458   3.6459
     6.5233   6.5235   6.5318   6.5320   7.0582   7.0584   7.0618   7.0620

          k =-0.4986-0.5014 0.0000 (  5192 PWs)   bands (ev):

   -64.8274 -64.8274 -64.8273 -64.8264 -31.6191 -31.6188 -31.6186 -31.6184
   -31.5975 -31.5970 -31.5970 -31.5965 -31.5762 -31.5760 -31.5758 -31.5756
    -8.2114  -8.2054  -8.2053  -8.1994   4.2906   4.2933   4.2934   4.2961
     5.7525   5.7670   5.7674   5.7819   7.0584   7.0633   7.0634   7.0682

          k =-0.4986-0.5014 0.2500 (  5140 PWs)   bands (ev):

   -64.8274 -64.8274 -64.8274 -64.8264 -31.6316 -31.6314 -31.6313 -31.6313
   -31.5833 -31.5830 -31.5830 -31.5828 -31.5752 -31.5750 -31.5749 -31.5748
    -8.1722  -8.1679  -8.1678  -8.1636   3.6364   3.6403   3.6403   3.6443
     6.5158   6.5242   6.5244   6.5328   7.0608   7.0643   7.0644   7.0678

          k =-0.4986-0.5014-0.5000 (  5152 PWs)   bands (ev):

   -64.8274 -64.8274 -64.8274 -64.8263 -31.6400 -31.6398 -31.6398 -31.6398
   -31.5769 -31.5767 -31.5766 -31.5765 -31.5736 -31.5734 -31.5734 -31.5733
    -8.1299  -8.1298  -8.1297  -8.1297   3.2173   3.2175   3.2175   3.2175
     7.0600   7.0602   7.0603   7.0604   7.0699   7.0699   7.0700   7.0702

          k =-0.2493 0.2507 0.0000 (  5157 PWs)   bands (ev):

   -64.8318 -64.8262 -64.8258 -64.8248 -31.6223 -31.6194 -31.6189 -31.6072
   -31.5943 -31.5938 -31.5930 -31.5880 -31.5877 -31.5853 -31.5753 -31.5682
    -8.9662  -8.0692  -8.0586  -7.8903   4.1589   4.1642   4.3285   5.0713
     5.8470   6.0419   6.0689   6.4799   6.4893   6.5837   7.1734   7.5054

          k =-0.2493 0.2507-0.2500 (  5151 PWs)   bands (ev):

   -64.8308 -64.8262 -64.8262 -64.8254 -31.6254 -31.6249 -31.6245 -31.6060
   -31.5938 -31.5936 -31.5932 -31.5851 -31.5837 -31.5825 -31.5725 -31.5698
    -8.7963  -8.0346  -8.0308  -8.0270   3.9992   4.0003   4.0017   5.0891
     5.8415   5.8457   5.8500   6.6972   6.7056   6.7136   7.3544   7.3561

          k =-0.2493 0.2507 0.5000 (  5130 PWs)   bands (ev):

   -64.8286 -64.8282 -64.8262 -64.8256 -31.6278 -31.6276 -31.6209 -31.6208
   -31.5930 -31.5928 -31.5803 -31.5802 -31.5789 -31.5787 -31.5762 -31.5760
    -8.3993  -8.3991  -7.9973  -7.9972   3.8214   3.8215   4.1979   4.1980
     5.8302   5.8302   6.7401   6.7404   6.8688   6.8689   7.0160   7.0162

     highest occupied level (ev):     7.6786

!    total energy              =    -608.39272511 Ry
     Harris-Foulkes estimate   =    -608.39272511 Ry
     estimated scf accuracy    <          9.3E-09 Ry

     The total energy is the sum of the following terms:

     one-electron contribution =    -303.57049920 Ry
     hartree contribution      =     168.07459767 Ry
     xc contribution           =     -97.84659487 Ry
     ewald contribution        =    -375.05022872 Ry

     convergence has been achieved in   3 iterations

     Forces acting on atoms (cartesian axes, Ry/au):

     atom    1 type  1   force =    -0.00093321    0.00097327    0.00000000
     atom    2 type  1   force =    -0.00096286   -0.00097730    0.00000000
     atom    3 type  1   force =     0.00093653    0.00100506    0.00000000
     atom    4 type  1   force =     0.00093454   -0.00097638    0.00000000
     atom    5 type  2   force =     0.00123263    0.00126281    0.00000000
     atom    6 type  2   force =    -0.00122196   -0.00127366    0.00000000
     atom    7 type  2   force =    -0.00122236    0.00126342    0.00000000
     atom    8 type  2   force =     0.00123668   -0.00127723    0.00000000

     Total force =     0.004460     Total SCF correction =     0.000360


     Computing stress (Cartesian axis) and pressure

          total   stress  (Ry/bohr**3)                   (kbar)     P=  -68.11
  -0.00049792   0.00000000   0.00000000        -73.25      0.00      0.00
   0.00000000  -0.00042729   0.00000000          0.00    -62.86      0.00
   0.00000000   0.00000000  -0.00046374          0.00      0.00    -68.22


     number of scf cycles    =   2
     number of bfgs steps    =   1

     energy   old            =    -608.3926869892 Ry
     energy   new            =    -608.3927251131 Ry

     CASE: energy  _new < energy  _old

     new trust radius        =       0.0028231417 bohr
     new conv_thr            =       0.0000000004 Ry


ATOMIC_POSITIONS (alat)
Mg      -0.000371739   0.000393070   0.000000000
Mg      -0.000377751   0.499609607   0.500000000
Mg       0.500368959   0.000399429   0.500000000
Mg       0.500367838   0.499610358   0.000000000
O        0.500461620   0.000476953   0.000000000
O       -0.000455844   0.499517738   0.000000000
O       -0.000456194   0.000476945   0.500000000
O        0.500463111   0.499515900   0.500000000



     Writing output data file diamond.1.002857.70.4.save
     NEW-OLD atomic charge density approx. for the potential

     Check: negative/imaginary core charge=   -0.000007    0.000000

     total cpu time spent up to now is       18.9 secs

     per-process dynamical memory:    51.7 Mb

     Self-consistent Calculation

     iteration #  1     ecut=    70.00 Ry     beta=0.70
     Davidson diagonalization with overlap
     ethr =  1.00E-06,  avg # of iterations =  3.0

     Threshold (ethr) on eigenvalues was too large:
     Diagonalizing with lowered threshold

     Davidson diagonalization with overlap
     ethr =  1.53E-08,  avg # of iterations =  1.1

     total cpu time spent up to now is       21.7 secs

     total energy              =    -608.39274716 Ry
     Harris-Foulkes estimate   =    -608.39275441 Ry
     estimated scf accuracy    <       0.00000987 Ry

     iteration #  2     ecut=    70.00 Ry     beta=0.70
     Davidson diagonalization with overlap
     ethr =  1.54E-08,  avg # of iterations =  2.2

     total cpu time spent up to now is       23.0 secs

     total energy              =    -608.39275016 Ry
     Harris-Foulkes estimate   =    -608.39275118 Ry
     estimated scf accuracy    <       0.00000170 Ry

     iteration #  3     ecut=    70.00 Ry     beta=0.70
     Davidson diagonalization with overlap
     ethr =  2.65E-09,  avg # of iterations =  2.0

     total cpu time spent up to now is       24.2 secs

     total energy              =    -608.39275053 Ry
     Harris-Foulkes estimate   =    -608.39275052 Ry
     estimated scf accuracy    <       0.00000001 Ry

     iteration #  4     ecut=    70.00 Ry     beta=0.70
     Davidson diagonalization with overlap
     ethr =  1.60E-11,  avg # of iterations =  2.5

     total cpu time spent up to now is       25.6 secs

     total energy              =    -608.39275053 Ry
     Harris-Foulkes estimate   =    -608.39275053 Ry
     estimated scf accuracy    <          8.3E-10 Ry

     iteration #  5     ecut=    70.00 Ry     beta=0.70
     Davidson diagonalization with overlap
     ethr =  1.29E-12,  avg # of iterations =  2.1

     total cpu time spent up to now is       26.8 secs

     End of self-consistent calculation

          k = 0.0000 0.0000 0.0000 (  5153 PWs)   bands (ev):

   -64.8345 -64.8251 -64.8249 -64.8242 -31.6323 -31.6309 -31.6294 -31.5951
   -31.5944 -31.5940 -31.5927 -31.5922 -31.5916 -31.5672 -31.5638 -31.5623
    -9.3647  -7.9213  -7.9138  -7.9064   3.7488   3.7580   3.7675   6.3597
     6.3623   6.3775   6.3825   6.3979   6.4003   7.6656   7.6724   7.6786

          k = 0.0000 0.0000 0.2500 (  5169 PWs)   bands (ev):

   -64.8331 -64.8262 -64.8250 -64.8244 -31.6264 -31.6229 -31.6205 -31.6008
   -31.5966 -31.5945 -31.5935 -31.5907 -31.5871 -31.5781 -31.5729 -31.5698
    -9.1563  -8.1287  -7.8907  -7.8801   4.0397   4.0572   4.0952   5.8531
     5.8622   6.1566   6.1844   6.5268   6.5593   6.6589   7.4413   7.4590

          k = 0.0000 0.0000-0.5000 (  5118 PWs)   bands (ev):

   -64.8298 -64.8294 -64.8250 -64.8244 -31.6117 -31.6114 -31.6079 -31.6076
   -31.6019 -31.6018 -31.5907 -31.5907 -31.5819 -31.5816 -31.5792 -31.5789
    -8.6462  -8.6459  -7.8567  -7.8566   4.8400   4.8405   4.8547   4.8552
     5.1226   5.1229   5.9733   5.9737   6.9550   6.9552   6.9814   6.9816

          k = 0.0000 0.2507 0.0000 (  5161 PWs)   bands (ev):

   -64.8330 -64.8261 -64.8250 -64.8244 -31.6262 -31.6242 -31.6191 -31.6000
   -31.5976 -31.5922 -31.5917 -31.5907 -31.5896 -31.5766 -31.5730 -31.5715
    -9.1547  -8.1216  -7.8909  -7.8856   4.0416   4.0502   4.1001   5.8689
     5.8736   6.1525   6.1663   6.5246   6.5412   6.6529   7.4464   7.4551

          k = 0.0000 0.2507 0.2500 (  5157 PWs)   bands (ev):

   -64.8318 -64.8262 -64.8258 -64.8248 -31.6212 -31.6208 -31.6191 -31.6064
   -31.5960 -31.5954 -31.5923 -31.5866 -31.5866 -31.5851 -31.5769 -31.5674
    -8.9647  -8.0638  -8.0585  -7.8940   4.1596   4.1624   4.3220   5.0714
     5.8386   6.0525   6.0663   6.4717   6.4763   6.5928   7.1796   7.5044

          k = 0.0000 0.2507-0.5000 (  5146 PWs)   bands (ev):

   -64.8291 -64.8287 -64.8257 -64.8251 -31.6161 -31.6160 -31.6098 -31.6098
   -31.6083 -31.6081 -31.5864 -31.5862 -31.5829 -31.5829 -31.5740 -31.5739
    -8.5089  -8.5086  -7.9460  -7.9459   4.4144   4.4146   4.7443   4.7445
     5.0911   5.0916   6.5541   6.5543   6.5847   6.5850   7.0889   7.0890

          k = 0.0000-0.5014 0.0000 (  5110 PWs)   bands (ev):

   -64.8298 -64.8293 -64.8250 -64.8245 -31.6114 -31.6110 -31.6092 -31.6087
   -31.5998 -31.5993 -31.5895 -31.5895 -31.5822 -31.5819 -31.5808 -31.5805
    -8.6438  -8.6382  -7.8586  -7.8585   4.8435   4.8511   4.8523   4.8599
     5.1186   5.1219   5.9588   5.9591   6.9539   6.9592   6.9671   6.9723

          k = 0.0000-0.5014 0.2500 (  5146 PWs)   bands (ev):

   -64.8291 -64.8286 -64.8257 -64.8251 -31.6170 -31.6168 -31.6093 -31.6091
   -31.6082 -31.6078 -31.5868 -31.5865 -31.5820 -31.5819 -31.5746 -31.5744
    -8.5079  -8.5030  -7.9482  -7.9473   4.4123   4.4159   4.7404   4.7440
     5.0928   5.1013   6.5443   6.5474   6.5742   6.5803   7.0913   7.0930

          k = 0.0000-0.5014-0.5000 (  5196 PWs)   bands (ev):

   -64.8274 -64.8274 -64.8274 -64.8264 -31.6187 -31.6185 -31.6183 -31.6183
   -31.5990 -31.5988 -31.5986 -31.5984 -31.5752 -31.5750 -31.5748 -31.5748
    -8.2051  -8.2049  -8.2020  -8.2018   4.2818   4.2820   4.2830   4.2831
     5.7643   5.7646   5.7718   5.7722   7.0663   7.0665   7.0687   7.0689

          k = 0.2493 0.0000 0.0000 (  5165 PWs)   bands (ev):

   -64.8331 -64.8263 -64.8249 -64.8243 -31.6239 -31.6232 -31.6225 -31.5985
   -31.5967 -31.5955 -31.5950 -31.5885 -31.5866 -31.5812 -31.5715 -31.5699
    -9.1579  -8.1358  -7.8851  -7.8798   4.0468   4.0557   4.0896   5.8424
     5.8468   6.1748   6.1888   6.5448   6.5607   6.6641   7.4451   7.4540

          k = 0.2493 0.0000 0.2500 (  5157 PWs)   bands (ev):

   -64.8318 -64.8262 -64.8258 -64.8247 -31.6223 -31.6211 -31.6180 -31.6079
   -31.5935 -31.5923 -31.5919 -31.5890 -31.5880 -31.5864 -31.5737 -31.5692
    -8.9676  -8.0694  -8.0641  -7.8868   4.1607   4.1629   4.3350   5.0711
     5.8554   6.0451   6.0585   6.4933   6.4978   6.5740   7.1668   7.5066

          k = 0.2493 0.0000-0.5000 (  5146 PWs)   bands (ev):

   -64.8291 -64.8287 -64.8257 -64.8251 -31.6180 -31.6179 -31.6102 -31.6102
   -31.6049 -31.6046 -31.5842 -31.5842 -31.5830 -31.5827 -31.5768 -31.5767
    -8.5107  -8.5104  -7.9481  -7.9480   4.4224   4.4226   4.7578   4.7580
     5.1009   5.1014   6.5413   6.5415   6.5670   6.5673   7.0989   7.0990

          k = 0.2493 0.2507 0.0000 (  5157 PWs)   bands (ev):

   -64.8318 -64.8262 -64.8258 -64.8248 -31.6223 -31.6194 -31.6189 -31.6072
   -31.5943 -31.5938 -31.5930 -31.5880 -31.5877 -31.5853 -31.5753 -31.5682
    -8.9661  -8.0692  -8.0587  -7.8903   4.1589   4.1642   4.3286   5.0712
     5.8470   6.0419   6.0689   6.4799   6.4893   6.5836   7.1733   7.5054

          k = 0.2493 0.2507 0.2500 (  5151 PWs)   bands (ev):

   -64.8308 -64.8262 -64.8262 -64.8254 -31.6254 -31.6249 -31.6245 -31.6059
   -31.5938 -31.5936 -31.5932 -31.5851 -31.5837 -31.5826 -31.5725 -31.5698
    -8.7963  -8.0346  -8.0308  -8.0271   3.9992   4.0003   4.0017   5.0891
     5.8414   5.8456   5.8499   6.6972   6.7055   6.7136   7.3544   7.3561

          k = 0.2493 0.2507-0.5000 (  5130 PWs)   bands (ev):

   -64.8286 -64.8282 -64.8262 -64.8256 -31.6278 -31.6277 -31.6209 -31.6208
   -31.5930 -31.5928 -31.5803 -31.5802 -31.5789 -31.5787 -31.5762 -31.5760
    -8.3993  -8.3990  -7.9973  -7.9972   3.8214   3.8215   4.1978   4.1980
     5.8302   5.8302   6.7402   6.7404   6.8687   6.8689   7.0160   7.0161

          k = 0.2493-0.5014 0.0000 (  5154 PWs)   bands (ev):

   -64.8291 -64.8287 -64.8257 -64.8251 -31.6178 -31.6176 -31.6097 -31.6094
   -31.6066 -31.6062 -31.5855 -31.5852 -31.5827 -31.5826 -31.5763 -31.5762
    -8.5088  -8.5039  -7.9493  -7.9483   4.4165   4.4201   4.7472   4.7508
     5.0976   5.1061   6.5380   6.5411   6.5651   6.5712   7.0961   7.0978

          k = 0.2493-0.5014 0.2500 (  5132 PWs)   bands (ev):

   -64.8286 -64.8282 -64.8262 -64.8256 -31.6282 -31.6280 -31.6206 -31.6205
   -31.5937 -31.5935 -31.5794 -31.5794 -31.5789 -31.5786 -31.5766 -31.5764
    -8.3986  -8.3944  -7.9982  -7.9981   3.8207   3.8208   4.1916   4.1953
     5.8306   5.8306   6.7378   6.7380   6.8720   6.8738   7.0094   7.0132

          k = 0.2493-0.5014-0.5000 (  5128 PWs)   bands (ev):

   -64.8274 -64.8274 -64.8274 -64.8264 -31.6313 -31.6310 -31.6310 -31.6310
   -31.5840 -31.5837 -31.5837 -31.5835 -31.5742 -31.5740 -31.5739 -31.5739
    -8.1680  -8.1679  -8.1659  -8.1657   3.6357   3.6358   3.6376   3.6377
     6.5187   6.5189   6.5231   6.5233   7.0676   7.0678   7.0693   7.0695

          k =-0.4986 0.0000 0.0000 (  5130 PWs)   bands (ev):

   -64.8299 -64.8294 -64.8249 -64.8244 -31.6099 -31.6095 -31.6083 -31.6078
   -31.6035 -31.6031 -31.5939 -31.5938 -31.5803 -31.5799 -31.5789 -31.5786
    -8.6540  -8.6480  -7.8546  -7.8546   4.8355   4.8426   4.8449   4.8520
     5.1236   5.1269   5.9873   5.9876   6.9640   6.9696   6.9773   6.9828

          k =-0.4986 0.0000 0.2500 (  5148 PWs)   bands (ev):

   -64.8292 -64.8287 -64.8257 -64.8251 -31.6176 -31.6174 -31.6109 -31.6106
   -31.6052 -31.6048 -31.5853 -31.5851 -31.5828 -31.5825 -31.5760 -31.5758
    -8.5165  -8.5112  -7.9468  -7.9457   4.4206   4.4245   4.7582   4.7619
     5.0910   5.1001   6.5481   6.5514   6.5715   6.5780   7.0950   7.0967

          k =-0.4986 0.0000-0.5000 (  5200 PWs)   bands (ev):

   -64.8274 -64.8274 -64.8274 -64.8264 -31.6196 -31.6194 -31.6192 -31.6192
   -31.5952 -31.5950 -31.5948 -31.5946 -31.5779 -31.5778 -31.5776 -31.5776
    -8.2092  -8.2090  -8.2058  -8.2056   4.3034   4.3036   4.3046   4.3048
     5.7624   5.7628   5.7705   5.7709   7.0575   7.0577   7.0601   7.0603

          k =-0.4986 0.2507 0.0000 (  5148 PWs)   bands (ev):

   -64.8292 -64.8287 -64.8257 -64.8251 -31.6167 -31.6164 -31.6108 -31.6106
   -31.6071 -31.6067 -31.5845 -31.5844 -31.5843 -31.5842 -31.5744 -31.5743
    -8.5156  -8.5103  -7.9457  -7.9447   4.4167   4.4206   4.7514   4.7551
     5.0859   5.0951   6.5546   6.5578   6.5801   6.5867   7.0899   7.0916

          k =-0.4986 0.2507 0.2500 (  5134 PWs)   bands (ev):

   -64.8286 -64.8282 -64.8262 -64.8255 -31.6278 -31.6277 -31.6212 -31.6211
   -31.5920 -31.5918 -31.5817 -31.5817 -31.5785 -31.5784 -31.5762 -31.5760
    -8.4041  -8.3996  -7.9963  -7.9963   3.8221   3.8221   4.2004   4.2044
     5.8299   5.8300   6.7423   6.7425   6.8636   6.8655   7.0187   7.0227

          k =-0.4986 0.2507-0.5000 (  5144 PWs)   bands (ev):

   -64.8274 -64.8274 -64.8274 -64.8264 -31.6317 -31.6315 -31.6315 -31.6314
   -31.5820 -31.5818 -31.5818 -31.5816 -31.5764 -31.5763 -31.5761 -31.5761
    -8.1702  -8.1700  -8.1678  -8.1676   3.6428   3.6429   3.6449   3.6449
     6.5252   6.5254   6.5299   6.5301   7.0591   7.0592   7.0609   7.0611

          k =-0.4986-0.5014 0.0000 (  5192 PWs)   bands (ev):

   -64.8274 -64.8274 -64.8274 -64.8264 -31.6190 -31.6188 -31.6186 -31.6185
   -31.5974 -31.5970 -31.5970 -31.5966 -31.5762 -31.5760 -31.5758 -31.5757
    -8.2086  -8.2055  -8.2053  -8.2022   4.2921   4.2933   4.2934   4.2945
     5.7593   5.7669   5.7675   5.7750   7.0608   7.0632   7.0634   7.0658

          k =-0.4986-0.5014 0.2500 (  5140 PWs)   bands (ev):

   -64.8274 -64.8274 -64.8274 -64.8264 -31.6316 -31.6313 -31.6313 -31.6313
   -31.5833 -31.5830 -31.5830 -31.5828 -31.5752 -31.5750 -31.5749 -31.5748
    -8.1702  -8.1679  -8.1678  -8.1656   3.6383   3.6402   3.6404   3.6423
     6.5198   6.5241   6.5245   6.5288   7.0625   7.0642   7.0644   7.0661

          k =-0.4986-0.5014-0.5000 (  5152 PWs)   bands (ev):

   -64.8274 -64.8274 -64.8274 -64.8264 -31.6400 -31.6398 -31.6398 -31.6398
   -31.5769 -31.5767 -31.5766 -31.5766 -31.5736 -31.5734 -31.5734 -31.5733
    -8.1299  -8.1298  -8.1298  -8.1297   3.2173   3.2174   3.2175   3.2175
     7.0600   7.0601   7.0602   7.0604   7.0698   7.0700   7.0701   7.0701

          k =-0.2493 0.2507 0.0000 (  5157 PWs)   bands (ev):

   -64.8318 -64.8262 -64.8258 -64.8248 -31.6223 -31.6194 -31.6189 -31.6072
   -31.5943 -31.5938 -31.5930 -31.5880 -31.5877 -31.5853 -31.5753 -31.5683
    -8.9661  -8.0692  -8.0587  -7.8903   4.1589   4.1642   4.3286   5.0712
     5.8470   6.0419   6.0689   6.4799   6.4893   6.5836   7.1733   7.5054

          k =-0.2493 0.2507-0.2500 (  5151 PWs)   bands (ev):

   -64.8308 -64.8262 -64.8262 -64.8254 -31.6254 -31.6249 -31.6245 -31.6059
   -31.5938 -31.5936 -31.5932 -31.5851 -31.5837 -31.5826 -31.5725 -31.5698
    -8.7963  -8.0346  -8.0308  -8.0271   3.9992   4.0003   4.0017   5.0891
     5.8414   5.8456   5.8499   6.6972   6.7055   6.7136   7.3544   7.3561

          k =-0.2493 0.2507 0.5000 (  5130 PWs)   bands (ev):

   -64.8286 -64.8282 -64.8262 -64.8256 -31.6278 -31.6277 -31.6209 -31.6208
   -31.5930 -31.5928 -31.5803 -31.5802 -31.5789 -31.5787 -31.5762 -31.5760
    -8.3993  -8.3990  -7.9973  -7.9972   3.8214   3.8215   4.1978   4.1980
     5.8302   5.8302   6.7402   6.7404   6.8687   6.8688   7.0160   7.0161

     highest occupied level (ev):     7.6786

!    total energy              =    -608.39275053 Ry
     Harris-Foulkes estimate   =    -608.39275053 Ry
     estimated scf accuracy    <          1.5E-10 Ry

     The total energy is the sum of the following terms:

     one-electron contribution =    -303.56587677 Ry
     hartree contribution      =     168.07229236 Ry
     xc contribution           =     -97.84656543 Ry
     ewald contribution        =    -375.05260068 Ry

     convergence has been achieved in   5 iterations

     Forces acting on atoms (cartesian axes, Ry/au):

     atom    1 type  1   force =    -0.00067067    0.00066478    0.00000000
     atom    2 type  1   force =    -0.00072242   -0.00069501    0.00000000
     atom    3 type  1   force =     0.00069857    0.00071874    0.00000000
     atom    4 type  1   force =     0.00069762   -0.00069438    0.00000000
     atom    5 type  2   force =     0.00059357    0.00058200    0.00000000
     atom    6 type  2   force =    -0.00059437   -0.00057844    0.00000000
     atom    7 type  2   force =    -0.00059493    0.00058096    0.00000000
     atom    8 type  2   force =     0.00059264   -0.00057863    0.00000000

     Total force =     0.002574     Total SCF correction =     0.000145


     Computing stress (Cartesian axis) and pressure

          total   stress  (Ry/bohr**3)                   (kbar)     P=  -68.12
  -0.00049811   0.00000000   0.00000000        -73.27      0.00      0.00
   0.00000000  -0.00042749   0.00000000          0.00    -62.89      0.00
   0.00000000   0.00000000  -0.00046368          0.00      0.00    -68.21


     number of scf cycles    =   3
     number of bfgs steps    =   2

     energy   old            =    -608.3927251131 Ry
     energy   new            =    -608.3927505297 Ry

     CASE: energy  _new < energy  _old

     new trust radius        =       0.0034507280 bohr
     new conv_thr            =       0.0000000003 Ry


ATOMIC_POSITIONS (alat)
Mg      -0.000660208   0.000683984   0.000000000
Mg      -0.000684121   0.499309613   0.500000000
Mg       0.500665767   0.000709100   0.500000000
Mg       0.500664172   0.499310636   0.000000000
O        0.500759639   0.000774787   0.000000000
O       -0.000752993   0.499219795   0.000000000
O       -0.000753544   0.000774550   0.500000000
O        0.500761288   0.499217536   0.500000000



     Writing output data file diamond.1.002857.70.4.save
     NEW-OLD atomic charge density approx. for the potential

     Check: negative/imaginary core charge=   -0.000007    0.000000

     total cpu time spent up to now is       27.5 secs

     per-process dynamical memory:    51.7 Mb

     Self-consistent Calculation

     iteration #  1     ecut=    70.00 Ry     beta=0.70
     Davidson diagonalization with overlap
     ethr =  1.00E-06,  avg # of iterations =  3.0

     Threshold (ethr) on eigenvalues was too large:
     Diagonalizing with lowered threshold

     Davidson diagonalization with overlap
     ethr =  2.44E-08,  avg # of iterations =  1.1

     total cpu time spent up to now is       30.4 secs

     total energy              =    -608.39275609 Ry
     Harris-Foulkes estimate   =    -608.39276753 Ry
     estimated scf accuracy    <       0.00001563 Ry

     iteration #  2     ecut=    70.00 Ry     beta=0.70
     Davidson diagonalization with overlap
     ethr =  2.44E-08,  avg # of iterations =  2.2

     total cpu time spent up to now is       31.6 secs

     total energy              =    -608.39276084 Ry
     Harris-Foulkes estimate   =    -608.39276246 Ry
     estimated scf accuracy    <       0.00000271 Ry

     iteration #  3     ecut=    70.00 Ry     beta=0.70
     Davidson diagonalization with overlap
     ethr =  4.23E-09,  avg # of iterations =  2.0

     total cpu time spent up to now is       32.8 secs

     total energy              =    -608.39276142 Ry
     Harris-Foulkes estimate   =    -608.39276141 Ry
     estimated scf accuracy    <       0.00000002 Ry

     iteration #  4     ecut=    70.00 Ry     beta=0.70
     Davidson diagonalization with overlap
     ethr =  2.80E-11,  avg # of iterations =  2.4

     total cpu time spent up to now is       34.2 secs

     total energy              =    -608.39276143 Ry
     Harris-Foulkes estimate   =    -608.39276143 Ry
     estimated scf accuracy    <          1.1E-09 Ry

     iteration #  5     ecut=    70.00 Ry     beta=0.70
     Davidson diagonalization with overlap
     ethr =  1.68E-12,  avg # of iterations =  2.0

     total cpu time spent up to now is       35.5 secs

     End of self-consistent calculation

          k = 0.0000 0.0000 0.0000 (  5153 PWs)   bands (ev):

   -64.8345 -64.8251 -64.8250 -64.8242 -31.6323 -31.6309 -31.6294 -31.5951
   -31.5944 -31.5940 -31.5927 -31.5922 -31.5916 -31.5673 -31.5638 -31.5623
    -9.3647  -7.9213  -7.9138  -7.9064   3.7488   3.7580   3.7675   6.3597
     6.3623   6.3775   6.3825   6.3979   6.4003   7.6657   7.6724   7.6786

          k = 0.0000 0.0000 0.2500 (  5169 PWs)   bands (ev):

   -64.8331 -64.8262 -64.8250 -64.8244 -31.6264 -31.6229 -31.6206 -31.6008
   -31.5967 -31.5945 -31.5935 -31.5908 -31.5871 -31.5781 -31.5729 -31.5699
    -9.1563  -8.1287  -7.8907  -7.8801   4.0397   4.0572   4.0952   5.8531
     5.8623   6.1567   6.1845   6.5268   6.5593   6.6589   7.4413   7.4590

          k = 0.0000 0.0000-0.5000 (  5118 PWs)   bands (ev):

   -64.8299 -64.8294 -64.8250 -64.8244 -31.6117 -31.6114 -31.6079 -31.6076
   -31.6019 -31.6018 -31.5907 -31.5907 -31.5819 -31.5816 -31.5792 -31.5789
    -8.6462  -8.6458  -7.8566  -7.8566   4.8400   4.8405   4.8547   4.8552
     5.1226   5.1229   5.9734   5.9737   6.9550   6.9552   6.9814   6.9816

          k = 0.0000 0.2507 0.0000 (  5161 PWs)   bands (ev):

   -64.8331 -64.8262 -64.8251 -64.8244 -31.6262 -31.6242 -31.6191 -31.6000
   -31.5976 -31.5922 -31.5917 -31.5907 -31.5896 -31.5766 -31.5730 -31.5715
    -9.1546  -8.1216  -7.8909  -7.8856   4.0416   4.0503   4.1001   5.8689
     5.8736   6.1525   6.1663   6.5246   6.5412   6.6529   7.4464   7.4551

          k = 0.0000 0.2507 0.2500 (  5157 PWs)   bands (ev):

   -64.8318 -64.8262 -64.8258 -64.8248 -31.6212 -31.6208 -31.6191 -31.6064
   -31.5960 -31.5954 -31.5923 -31.5866 -31.5866 -31.5851 -31.5769 -31.5674
    -8.9647  -8.0638  -8.0585  -7.8939   4.1596   4.1624   4.3220   5.0714
     5.8386   6.0525   6.0663   6.4717   6.4763   6.5928   7.1796   7.5044

          k = 0.0000 0.2507-0.5000 (  5146 PWs)   bands (ev):

   -64.8291 -64.8287 -64.8257 -64.8251 -31.6161 -31.6160 -31.6098 -31.6098
   -31.6083 -31.6081 -31.5864 -31.5862 -31.5829 -31.5829 -31.5741 -31.5739
    -8.5089  -8.5086  -7.9460  -7.9459   4.4144   4.4146   4.7443   4.7445
     5.0911   5.0916   6.5542   6.5544   6.5847   6.5849   7.0889   7.0890

          k = 0.0000-0.5014 0.0000 (  5110 PWs)   bands (ev):

   -64.8298 -64.8293 -64.8250 -64.8245 -31.6113 -31.6111 -31.6091 -31.6089
   -31.5996 -31.5995 -31.5896 -31.5895 -31.5822 -31.5819 -31.5808 -31.5806
    -8.6415  -8.6405  -7.8586  -7.8585   4.8472   4.8486   4.8548   4.8562
     5.1198   5.1206   5.9588   5.9591   6.9561   6.9571   6.9692   6.9702

          k = 0.0000-0.5014 0.2500 (  5146 PWs)   bands (ev):

   -64.8291 -64.8287 -64.8257 -64.8252 -31.6170 -31.6168 -31.6092 -31.6091
   -31.6081 -31.6079 -31.5868 -31.5866 -31.5820 -31.5820 -31.5746 -31.5745
    -8.5059  -8.5050  -7.9478  -7.9476   4.4139   4.4143   4.7418   4.7427
     5.0964   5.0977   6.5456   6.5463   6.5766   6.5777   7.0921   7.0923

          k = 0.0000-0.5014-0.5000 (  5196 PWs)   bands (ev):

   -64.8274 -64.8274 -64.8274 -64.8264 -31.6187 -31.6185 -31.6183 -31.6183
   -31.5989 -31.5987 -31.5987 -31.5984 -31.5751 -31.5750 -31.5748 -31.5748
    -8.2038  -8.2036  -8.2032  -8.2031   4.2822   4.2823   4.2827   4.2829
     5.7674   5.7678   5.7687   5.7691   7.0672   7.0674   7.0678   7.0680

          k = 0.2493 0.0000 0.0000 (  5165 PWs)   bands (ev):

   -64.8331 -64.8263 -64.8250 -64.8244 -31.6240 -31.6232 -31.6225 -31.5985
   -31.5967 -31.5955 -31.5950 -31.5885 -31.5866 -31.5812 -31.5715 -31.5699
    -9.1579  -8.1358  -7.8851  -7.8798   4.0468   4.0557   4.0896   5.8424
     5.8468   6.1748   6.1888   6.5448   6.5607   6.6641   7.4451   7.4540

          k = 0.2493 0.0000 0.2500 (  5157 PWs)   bands (ev):

   -64.8319 -64.8262 -64.8258 -64.8247 -31.6223 -31.6211 -31.6180 -31.6079
   -31.5935 -31.5923 -31.5919 -31.5890 -31.5880 -31.5865 -31.5738 -31.5692
    -8.9676  -8.0694  -8.0641  -7.8868   4.1607   4.1630   4.3350   5.0711
     5.8555   6.0451   6.0585   6.4933   6.4979   6.5740   7.1668   7.5066

          k = 0.2493 0.0000-0.5000 (  5146 PWs)   bands (ev):

   -64.8291 -64.8287 -64.8257 -64.8251 -31.6180 -31.6179 -31.6102 -31.6102
   -31.6049 -31.6047 -31.5843 -31.5842 -31.5830 -31.5827 -31.5769 -31.5767
    -8.5107  -8.5104  -7.9481  -7.9480   4.4224   4.4226   4.7578   4.7581
     5.1009   5.1014   6.5414   6.5416   6.5669   6.5672   7.0989   7.0990

          k = 0.2493 0.2507 0.0000 (  5157 PWs)   bands (ev):

   -64.8319 -64.8262 -64.8258 -64.8248 -31.6223 -31.6194 -31.6189 -31.6072
   -31.5943 -31.5938 -31.5930 -31.5880 -31.5877 -31.5853 -31.5753 -31.5683
    -8.9661  -8.0692  -8.0586  -7.8903   4.1589   4.1642   4.3286   5.0712
     5.8470   6.0419   6.0690   6.4800   6.4893   6.5835   7.1733   7.5054

          k = 0.2493 0.2507 0.2500 (  5151 PWs)   bands (ev):

   -64.8308 -64.8262 -64.8262 -64.8254 -31.6254 -31.6249 -31.6245 -31.6060
   -31.5938 -31.5936 -31.5932 -31.5851 -31.5837 -31.5826 -31.5725 -31.5699
    -8.7963  -8.0346  -8.0308  -8.0270   3.9992   4.0004   4.0017   5.0891
     5.8414   5.8457   5.8500   6.6972   6.7055   6.7136   7.3544   7.3561

          k = 0.2493 0.2507-0.5000 (  5130 PWs)   bands (ev):

   -64.8286 -64.8282 -64.8262 -64.8256 -31.6278 -31.6277 -31.6209 -31.6208
   -31.5930 -31.5928 -31.5803 -31.5802 -31.5789 -31.5787 -31.5762 -31.5761
    -8.3993  -8.3990  -7.9973  -7.9972   3.8214   3.8215   4.1978   4.1980
     5.8302   5.8302   6.7402   6.7404   6.8687   6.8689   7.0160   7.0161

          k = 0.2493-0.5014 0.0000 (  5154 PWs)   bands (ev):

   -64.8291 -64.8287 -64.8257 -64.8252 -31.6178 -31.6176 -31.6096 -31.6095
   -31.6066 -31.6063 -31.5855 -31.5852 -31.5827 -31.5827 -31.5763 -31.5762
    -8.5068  -8.5059  -7.9489  -7.9487   4.4181   4.4185   4.7485   4.7495
     5.1012   5.1025   6.5392   6.5399   6.5676   6.5687   7.0969   7.0971

          k = 0.2493-0.5014 0.2500 (  5132 PWs)   bands (ev):

   -64.8286 -64.8282 -64.8262 -64.8256 -31.6282 -31.6280 -31.6206 -31.6205
   -31.5937 -31.5935 -31.5794 -31.5794 -31.5789 -31.5787 -31.5766 -31.5765
    -8.3968  -8.3961  -7.9982  -7.9981   3.8207   3.8208   4.1930   4.1940
     5.8306   5.8306   6.7378   6.7380   6.8728   6.8730   7.0109   7.0117

          k = 0.2493-0.5014-0.5000 (  5128 PWs)   bands (ev):

   -64.8274 -64.8274 -64.8274 -64.8264 -31.6313 -31.6310 -31.6310 -31.6310
   -31.5839 -31.5837 -31.5837 -31.5836 -31.5742 -31.5740 -31.5739 -31.5739
    -8.1671  -8.1670  -8.1667  -8.1666   3.6364   3.6365   3.6370   3.6371
     6.5205   6.5207   6.5213   6.5215   7.0683   7.0684   7.0687   7.0689

          k =-0.4986 0.0000 0.0000 (  5130 PWs)   bands (ev):

   -64.8299 -64.8295 -64.8249 -64.8244 -31.6098 -31.6096 -31.6082 -31.6079
   -31.6034 -31.6033 -31.5939 -31.5938 -31.5802 -31.5800 -31.5789 -31.5786
    -8.6512  -8.6507  -7.8546  -7.8545   4.8399   4.8405   4.8470   4.8476
     5.1250   5.1255   5.9873   5.9876   6.9665   6.9671   6.9798   6.9804

          k =-0.4986 0.0000 0.2500 (  5148 PWs)   bands (ev):

   -64.8292 -64.8287 -64.8257 -64.8251 -31.6176 -31.6174 -31.6108 -31.6108
   -31.6052 -31.6049 -31.5852 -31.5852 -31.5827 -31.5825 -31.5760 -31.5758
    -8.5141  -8.5136  -7.9463  -7.9462   4.4225   4.4226   4.7597   4.7604
     5.0952   5.0958   6.5497   6.5500   6.5744   6.5750   7.0959   7.0959

          k =-0.4986 0.0000-0.5000 (  5200 PWs)   bands (ev):

   -64.8274 -64.8274 -64.8274 -64.8264 -31.6195 -31.6194 -31.6192 -31.6192
   -31.5951 -31.5949 -31.5949 -31.5946 -31.5779 -31.5777 -31.5776 -31.5776
    -8.2076  -8.2074  -8.2073  -8.2071   4.3038   4.3039   4.3042   4.3044
     5.7661   5.7664   5.7668   5.7671   7.0586   7.0588   7.0590   7.0592

          k =-0.4986 0.2507 0.0000 (  5148 PWs)   bands (ev):

   -64.8292 -64.8287 -64.8257 -64.8251 -31.6166 -31.6165 -31.6107 -31.6107
   -31.6070 -31.6068 -31.5845 -31.5844 -31.5843 -31.5843 -31.5744 -31.5743
    -8.5131  -8.5127  -7.9452  -7.9451   4.4186   4.4188   4.7529   4.7536
     5.0902   5.0908   6.5560   6.5564   6.5831   6.5837   7.0907   7.0908

          k =-0.4986 0.2507 0.2500 (  5134 PWs)   bands (ev):

   -64.8287 -64.8282 -64.8262 -64.8256 -31.6278 -31.6277 -31.6212 -31.6211
   -31.5920 -31.5918 -31.5818 -31.5817 -31.5786 -31.5784 -31.5762 -31.5760
    -8.4020  -8.4016  -7.9963  -7.9962   3.8221   3.8221   4.2021   4.2027
     5.8299   5.8300   6.7423   6.7426   6.8645   6.8646   7.0205   7.0209

          k =-0.4986 0.2507-0.5000 (  5144 PWs)   bands (ev):

   -64.8274 -64.8274 -64.8274 -64.8264 -31.6318 -31.6315 -31.6315 -31.6315
   -31.5820 -31.5818 -31.5818 -31.5816 -31.5765 -31.5763 -31.5761 -31.5761
    -8.1691  -8.1689  -8.1688  -8.1687   3.6437   3.6438   3.6440   3.6441
     6.5274   6.5275   6.5278   6.5280   7.0599   7.0600   7.0602   7.0603

          k =-0.4986-0.5014 0.0000 (  5192 PWs)   bands (ev):

   -64.8274 -64.8274 -64.8274 -64.8264 -31.6190 -31.6188 -31.6186 -31.6186
   -31.5972 -31.5971 -31.5971 -31.5968 -31.5761 -31.5759 -31.5758 -31.5758
    -8.2058  -8.2055  -8.2052  -8.2049   4.2928   4.2933   4.2934   4.2938
     5.7663   5.7668   5.7676   5.7681   7.0628   7.0632   7.0634   7.0638

          k =-0.4986-0.5014 0.2500 (  5140 PWs)   bands (ev):

   -64.8274 -64.8274 -64.8274 -64.8264 -31.6316 -31.6313 -31.6313 -31.6313
   -31.5832 -31.5830 -31.5830 -31.5829 -31.5752 -31.5750 -31.5749 -31.5749
    -8.1682  -8.1679  -8.1677  -8.1675   3.6399   3.6402   3.6404   3.6407
     6.5237   6.5241   6.5245   6.5249   7.0639   7.0642   7.0644   7.0647

          k =-0.4986-0.5014-0.5000 (  5152 PWs)   bands (ev):

   -64.8274 -64.8274 -64.8274 -64.8264 -31.6401 -31.6398 -31.6398 -31.6398
   -31.5769 -31.5767 -31.5766 -31.5766 -31.5737 -31.5734 -31.5734 -31.5733
    -8.1299  -8.1297  -8.1297  -8.1297   3.2173   3.2175   3.2175   3.2175
     7.0601   7.0601   7.0603   7.0604   7.0699   7.0700   7.0701   7.0702

          k =-0.2493 0.2507 0.0000 (  5157 PWs)   bands (ev):

   -64.8319 -64.8262 -64.8258 -64.8248 -31.6223 -31.6194 -31.6189 -31.6072
   -31.5943 -31.5938 -31.5930 -31.5880 -31.5877 -31.5853 -31.5753 -31.5683
    -8.9661  -8.0692  -8.0586  -7.8903   4.1589   4.1642   4.3286   5.0712
     5.8470   6.0419   6.0690   6.4800   6.4893   6.5835   7.1733   7.5054

          k =-0.2493 0.2507-0.2500 (  5151 PWs)   bands (ev):

   -64.8308 -64.8262 -64.8262 -64.8254 -31.6254 -31.6249 -31.6245 -31.6060
   -31.5938 -31.5936 -31.5932 -31.5851 -31.5837 -31.5826 -31.5725 -31.5699
    -8.7963  -8.0346  -8.0308  -8.0270   3.9992   4.0004   4.0017   5.0891
     5.8414   5.8457   5.8500   6.6972   6.7055   6.7136   7.3544   7.3561

          k =-0.2493 0.2507 0.5000 (  5130 PWs)   bands (ev):

   -64.8286 -64.8282 -64.8262 -64.8256 -31.6278 -31.6277 -31.6209 -31.6208
   -31.5930 -31.5928 -31.5803 -31.5802 -31.5789 -31.5787 -31.5762 -31.5761
    -8.3993  -8.3990  -7.9973  -7.9972   3.8214   3.8215   4.1978   4.1980
     5.8302   5.8302   6.7402   6.7404   6.8687   6.8689   7.0160   7.0161

     highest occupied level (ev):     7.6786

!    total energy              =    -608.39276143 Ry
     Harris-Foulkes estimate   =    -608.39276143 Ry
     estimated scf accuracy    <          1.7E-10 Ry

     The total energy is the sum of the following terms:

     one-electron contribution =    -303.56352732 Ry
     hartree contribution      =     168.07110363 Ry
     xc contribution           =     -97.84653674 Ry
     ewald contribution        =    -375.05380099 Ry

     convergence has been achieved in   5 iterations

     Forces acting on atoms (cartesian axes, Ry/au):

     atom    1 type  1   force =    -0.00000310   -0.00005277    0.00000000
     atom    2 type  1   force =    -0.00007615   -0.00000616    0.00000000
     atom    3 type  1   force =     0.00006175    0.00002012    0.00000000
     atom    4 type  1   force =     0.00006274   -0.00000662    0.00000000
     atom    5 type  2   force =    -0.00014650   -0.00018593    0.00000000
     atom    6 type  2   force =     0.00012862    0.00020393    0.00000000
     atom    7 type  2   force =     0.00012869   -0.00018685    0.00000000
     atom    8 type  2   force =    -0.00015605    0.00021430    0.00000000

     Total force =     0.000503     Total SCF correction =     0.000157
     SCF correction compared to forces is large: reduce conv_thr to get better values


     Computing stress (Cartesian axis) and pressure

          total   stress  (Ry/bohr**3)                   (kbar)     P=  -68.14
  -0.00049826   0.00000000   0.00000000        -73.30      0.00      0.00
   0.00000000  -0.00042763   0.00000000          0.00    -62.91      0.00
   0.00000000   0.00000000  -0.00046370          0.00      0.00    -68.21


     number of scf cycles    =   4
     number of bfgs steps    =   3

     energy   old            =    -608.3927505297 Ry
     energy   new            =    -608.3927614257 Ry

     CASE: energy  _new < energy  _old

     new trust radius        =       0.0004839683 bohr
     new conv_thr            =       0.0000000001 Ry


ATOMIC_POSITIONS (alat)
Mg      -0.000640132   0.000657389   0.000000000
Mg      -0.000671035   0.499330185   0.500000000
Mg       0.500651730   0.000689419   0.500000000
Mg       0.500650281   0.499331135   0.000000000
O        0.500721637   0.000732301   0.000000000
O       -0.000717076   0.499264330   0.000000000
O       -0.000717604   0.000731975   0.500000000
O        0.500722200   0.499263266   0.500000000



     Writing output data file diamond.1.002857.70.4.save
     NEW-OLD atomic charge density approx. for the potential

     Check: negative/imaginary core charge=   -0.000007    0.000000

     total cpu time spent up to now is       36.2 secs

     per-process dynamical memory:    51.7 Mb

     Self-consistent Calculation

     iteration #  1     ecut=    70.00 Ry     beta=0.70
     Davidson diagonalization with overlap
     ethr =  1.00E-06,  avg # of iterations =  2.0

     Threshold (ethr) on eigenvalues was too large:
     Diagonalizing with lowered threshold

     Davidson diagonalization with overlap
     ethr =  2.87E-10,  avg # of iterations =  2.3

     total cpu time spent up to now is       38.9 secs

     total energy              =    -608.39276161 Ry
     Harris-Foulkes estimate   =    -608.39276179 Ry
     estimated scf accuracy    <       0.00000024 Ry

     iteration #  2     ecut=    70.00 Ry     beta=0.70
     Davidson diagonalization with overlap
     ethr =  3.82E-10,  avg # of iterations =  2.2

     total cpu time spent up to now is       40.1 secs

     total energy              =    -608.39276169 Ry
     Harris-Foulkes estimate   =    -608.39276171 Ry
     estimated scf accuracy    <       0.00000004 Ry

     iteration #  3     ecut=    70.00 Ry     beta=0.70
     Davidson diagonalization with overlap
     ethr =  6.58E-11,  avg # of iterations =  2.0

     total cpu time spent up to now is       41.3 secs

     total energy              =    -608.39276169 Ry
     Harris-Foulkes estimate   =    -608.39276169 Ry
     estimated scf accuracy    <          2.2E-10 Ry

     iteration #  4     ecut=    70.00 Ry     beta=0.70
     Davidson diagonalization with overlap
     ethr =  3.38E-13,  avg # of iterations =  2.7

     total cpu time spent up to now is       42.8 secs

     End of self-consistent calculation

          k = 0.0000 0.0000 0.0000 (  5153 PWs)   bands (ev):

   -64.8345 -64.8251 -64.8250 -64.8242 -31.6323 -31.6309 -31.6294 -31.5951
   -31.5944 -31.5940 -31.5927 -31.5922 -31.5916 -31.5673 -31.5638 -31.5623
    -9.3647  -7.9213  -7.9138  -7.9064   3.7488   3.7580   3.7675   6.3597
     6.3623   6.3775   6.3825   6.3979   6.4003   7.6657   7.6724   7.6786

          k = 0.0000 0.0000 0.2500 (  5169 PWs)   bands (ev):

   -64.8331 -64.8262 -64.8250 -64.8244 -31.6264 -31.6229 -31.6206 -31.6008
   -31.5967 -31.5945 -31.5935 -31.5908 -31.5871 -31.5781 -31.5729 -31.5698
    -9.1563  -8.1287  -7.8907  -7.8801   4.0397   4.0572   4.0952   5.8531
     5.8623   6.1567   6.1845   6.5268   6.5593   6.6589   7.4413   7.4590

          k = 0.0000 0.0000-0.5000 (  5118 PWs)   bands (ev):

   -64.8299 -64.8294 -64.8250 -64.8244 -31.6117 -31.6114 -31.6079 -31.6076
   -31.6019 -31.6018 -31.5907 -31.5907 -31.5819 -31.5816 -31.5792 -31.5789
    -8.6462  -8.6458  -7.8566  -7.8566   4.8400   4.8405   4.8547   4.8552
     5.1226   5.1229   5.9734   5.9737   6.9550   6.9552   6.9814   6.9816

          k = 0.0000 0.2507 0.0000 (  5161 PWs)   bands (ev):

   -64.8331 -64.8262 -64.8251 -64.8244 -31.6262 -31.6242 -31.6191 -31.6000
   -31.5976 -31.5922 -31.5917 -31.5907 -31.5896 -31.5766 -31.5730 -31.5715
    -9.1546  -8.1216  -7.8909  -7.8856   4.0416   4.0503   4.1001   5.8689
     5.8736   6.1525   6.1663   6.5246   6.5412   6.6529   7.4464   7.4551

          k = 0.0000 0.2507 0.2500 (  5157 PWs)   bands (ev):

   -64.8318 -64.8262 -64.8258 -64.8248 -31.6212 -31.6208 -31.6191 -31.6064
   -31.5960 -31.5954 -31.5923 -31.5866 -31.5866 -31.5851 -31.5769 -31.5674
    -8.9647  -8.0638  -8.0585  -7.8940   4.1596   4.1624   4.3220   5.0714
     5.8386   6.0525   6.0663   6.4717   6.4763   6.5928   7.1796   7.5044

          k = 0.0000 0.2507-0.5000 (  5146 PWs)   bands (ev):

   -64.8291 -64.8287 -64.8257 -64.8251 -31.6161 -31.6160 -31.6098 -31.6098
   -31.6083 -31.6081 -31.5864 -31.5862 -31.5829 -31.5829 -31.5741 -31.5739
    -8.5089  -8.5086  -7.9460  -7.9459   4.4144   4.4146   4.7443   4.7445
     5.0911   5.0916   6.5542   6.5544   6.5847   6.5849   7.0889   7.0890

          k = 0.0000-0.5014 0.0000 (  5110 PWs)   bands (ev):

   -64.8298 -64.8293 -64.8250 -64.8245 -31.6113 -31.6111 -31.6091 -31.6089
   -31.5996 -31.5995 -31.5896 -31.5895 -31.5822 -31.5819 -31.5808 -31.5806
    -8.6411  -8.6409  -7.8586  -7.8585   4.8479   4.8480   4.8554   4.8555
     5.1201   5.1204   5.9588   5.9591   6.9565   6.9567   6.9696   6.9698

          k = 0.0000-0.5014 0.2500 (  5146 PWs)   bands (ev):

   -64.8291 -64.8287 -64.8257 -64.8251 -31.6170 -31.6168 -31.6092 -31.6091
   -31.6081 -31.6079 -31.5868 -31.5866 -31.5820 -31.5820 -31.5746 -31.5745
    -8.5055  -8.5054  -7.9478  -7.9477   4.4141   4.4142   4.7421   4.7424
     5.0970   5.0971   6.5458   6.5461   6.5771   6.5772   7.0922   7.0922

          k = 0.0000-0.5014-0.5000 (  5196 PWs)   bands (ev):

   -64.8274 -64.8274 -64.8274 -64.8264 -31.6187 -31.6185 -31.6183 -31.6183
   -31.5989 -31.5987 -31.5987 -31.5984 -31.5751 -31.5750 -31.5748 -31.5748
    -8.2036  -8.2035  -8.2034  -8.2033   4.2823   4.2824   4.2825   4.2827
     5.7679   5.7680   5.7685   5.7685   7.0674   7.0676   7.0676   7.0678

          k = 0.2493 0.0000 0.0000 (  5165 PWs)   bands (ev):

   -64.8331 -64.8263 -64.8250 -64.8244 -31.6240 -31.6232 -31.6225 -31.5985
   -31.5967 -31.5955 -31.5950 -31.5885 -31.5866 -31.5812 -31.5715 -31.5699
    -9.1579  -8.1358  -7.8851  -7.8798   4.0468   4.0557   4.0896   5.8424
     5.8468   6.1748   6.1888   6.5448   6.5607   6.6641   7.4451   7.4540

          k = 0.2493 0.0000 0.2500 (  5157 PWs)   bands (ev):

   -64.8319 -64.8262 -64.8258 -64.8247 -31.6223 -31.6211 -31.6180 -31.6079
   -31.5935 -31.5923 -31.5919 -31.5890 -31.5880 -31.5865 -31.5737 -31.5692
    -8.9676  -8.0694  -8.0641  -7.8868   4.1607   4.1630   4.3350   5.0711
     5.8555   6.0451   6.0585   6.4933   6.4979   6.5740   7.1668   7.5066

          k = 0.2493 0.0000-0.5000 (  5146 PWs)   bands (ev):

   -64.8291 -64.8287 -64.8257 -64.8251 -31.6180 -31.6179 -31.6102 -31.6102
   -31.6049 -31.6047 -31.5843 -31.5842 -31.5830 -31.5827 -31.5769 -31.5767
    -8.5107  -8.5104  -7.9481  -7.9480   4.4224   4.4226   4.7578   4.7581
     5.1009   5.1014   6.5414   6.5417   6.5669   6.5672   7.0989   7.0990

          k = 0.2493 0.2507 0.0000 (  5157 PWs)   bands (ev):

   -64.8319 -64.8262 -64.8258 -64.8248 -31.6223 -31.6194 -31.6189 -31.6072
   -31.5943 -31.5938 -31.5930 -31.5880 -31.5877 -31.5853 -31.5753 -31.5683
    -8.9661  -8.0692  -8.0587  -7.8903   4.1589   4.1642   4.3286   5.0712
     5.8470   6.0419   6.0689   6.4800   6.4893   6.5835   7.1733   7.5054

          k = 0.2493 0.2507 0.2500 (  5151 PWs)   bands (ev):

   -64.8308 -64.8262 -64.8262 -64.8254 -31.6254 -31.6249 -31.6245 -31.6060
   -31.5938 -31.5936 -31.5932 -31.5851 -31.5837 -31.5826 -31.5725 -31.5699
    -8.7963  -8.0346  -8.0308  -8.0270   3.9992   4.0004   4.0017   5.0891
     5.8414   5.8457   5.8500   6.6972   6.7055   6.7136   7.3544   7.3561

          k = 0.2493 0.2507-0.5000 (  5130 PWs)   bands (ev):

   -64.8286 -64.8282 -64.8262 -64.8256 -31.6278 -31.6277 -31.6209 -31.6208
   -31.5930 -31.5928 -31.5803 -31.5802 -31.5789 -31.5787 -31.5762 -31.5761
    -8.3993  -8.3990  -7.9973  -7.9972   3.8214   3.8215   4.1978   4.1980
     5.8302   5.8302   6.7402   6.7404   6.8687   6.8689   7.0160   7.0161

          k = 0.2493-0.5014 0.0000 (  5154 PWs)   bands (ev):

   -64.8291 -64.8287 -64.8257 -64.8251 -31.6178 -31.6176 -31.6096 -31.6095
   -31.6066 -31.6063 -31.5855 -31.5852 -31.5827 -31.5827 -31.5763 -31.5762
    -8.5064  -8.5063  -7.9488  -7.9487   4.4182   4.4183   4.7488   4.7492
     5.1018   5.1019   6.5394   6.5397   6.5680   6.5682   7.0969   7.0970

          k = 0.2493-0.5014 0.2500 (  5132 PWs)   bands (ev):

   -64.8286 -64.8282 -64.8262 -64.8256 -31.6282 -31.6280 -31.6206 -31.6205
   -31.5937 -31.5935 -31.5794 -31.5794 -31.5789 -31.5787 -31.5766 -31.5765
    -8.3965  -8.3964  -7.9982  -7.9981   3.8207   3.8208   4.1933   4.1936
     5.8306   5.8306   6.7378   6.7380   6.8728   6.8730   7.0112   7.0114

          k = 0.2493-0.5014-0.5000 (  5128 PWs)   bands (ev):

   -64.8274 -64.8274 -64.8274 -64.8264 -31.6313 -31.6310 -31.6310 -31.6310
   -31.5839 -31.5837 -31.5837 -31.5836 -31.5742 -31.5740 -31.5739 -31.5739
    -8.1670  -8.1669  -8.1668  -8.1667   3.6366   3.6367   3.6368   3.6369
     6.5208   6.5209   6.5212   6.5212   7.0684   7.0685   7.0686   7.0688

          k =-0.4986 0.0000 0.0000 (  5130 PWs)   bands (ev):

   -64.8299 -64.8295 -64.8249 -64.8244 -31.6098 -31.6096 -31.6082 -31.6079
   -31.6034 -31.6033 -31.5939 -31.5938 -31.5802 -31.5800 -31.5789 -31.5786
    -8.6511  -8.6509  -7.8546  -7.8545   4.8400   4.8404   4.8471   4.8476
     5.1251   5.1254   5.9873   5.9876   6.9667   6.9669   6.9800   6.9801

          k =-0.4986 0.0000 0.2500 (  5148 PWs)   bands (ev):

   -64.8292 -64.8287 -64.8257 -64.8251 -31.6176 -31.6174 -31.6108 -31.6107
   -31.6052 -31.6049 -31.5852 -31.5852 -31.5827 -31.5825 -31.5760 -31.5758
    -8.5140  -8.5137  -7.9463  -7.9462   4.4224   4.4227   4.7599   4.7602
     5.0953   5.0957   6.5497   6.5500   6.5746   6.5748   7.0958   7.0960

          k =-0.4986 0.0000-0.5000 (  5200 PWs)   bands (ev):

   -64.8274 -64.8274 -64.8274 -64.8264 -31.6195 -31.6194 -31.6192 -31.6192
   -31.5951 -31.5949 -31.5949 -31.5946 -31.5779 -31.5777 -31.5776 -31.5776
    -8.2076  -8.2074  -8.2073  -8.2072   4.3040   4.3040   4.3041   4.3043
     5.7662   5.7665   5.7668   5.7670   7.0588   7.0589   7.0589   7.0591

          k =-0.4986 0.2507 0.0000 (  5148 PWs)   bands (ev):

   -64.8292 -64.8287 -64.8257 -64.8251 -31.6166 -31.6165 -31.6107 -31.6107
   -31.6070 -31.6068 -31.5845 -31.5844 -31.5843 -31.5843 -31.5744 -31.5743
    -8.5130  -8.5128  -7.9452  -7.9451   4.4186   4.4188   4.7531   4.7534
     5.0903   5.0907   6.5561   6.5564   6.5833   6.5835   7.0907   7.0908

          k =-0.4986 0.2507 0.2500 (  5134 PWs)   bands (ev):

   -64.8287 -64.8282 -64.8262 -64.8256 -31.6278 -31.6277 -31.6212 -31.6211
   -31.5920 -31.5918 -31.5818 -31.5817 -31.5786 -31.5784 -31.5762 -31.5760
    -8.4019  -8.4017  -7.9963  -7.9962   3.8221   3.8221   4.2023   4.2025
[...]
     5.8414   5.8457   5.8500   6.6972   6.7055   6.7136   7.3544   7.3561

          k =-0.2493 0.2507 0.5000 (  5130 PWs)   bands (ev):

   -64.8286 -64.8282 -64.8262 -64.8256 -31.6278 -31.6277 -31.6209 -31.6208
   -31.5930 -31.5928 -31.5803 -31.5802 -31.5789 -31.5787 -31.5762 -31.5761
    -8.3993  -8.3990  -7.9973  -7.9972   3.8214   3.8215   4.1978   4.1980
     5.8302   5.8302   6.7402   6.7404   6.8687   6.8689   7.0160   7.0161

     highest occupied level (ev):     7.6786

!    total energy              =    -608.39276169 Ry
     Harris-Foulkes estimate   =    -608.39276169 Ry
     estimated scf accuracy    <          2.9E-11 Ry

     The total energy is the sum of the following terms:

     one-electron contribution =    -303.56354524 Ry
     hartree contribution      =     168.07111459 Ry
     xc contribution           =     -97.84653823 Ry
     ewald contribution        =    -375.05379282 Ry

     convergence has been achieved in   4 iterations

     Forces acting on atoms (cartesian axes, Ry/au):

     atom    1 type  1   force =    -0.00004065    0.00000472    0.00000000
     atom    2 type  1   force =    -0.00010166   -0.00005199    0.00000000
     atom    3 type  1   force =     0.00008870    0.00006419    0.00000000
     atom    4 type  1   force =     0.00008948   -0.00005224    0.00000000
     atom    5 type  2   force =    -0.00004851   -0.00007250    0.00000000
     atom    6 type  2   force =     0.00003573    0.00008484    0.00000000
     atom    7 type  2   force =     0.00003548   -0.00007323    0.00000000
     atom    8 type  2   force =    -0.00005857    0.00009620    0.00000000

     Total force =     0.000270     Total SCF correction =     0.000048
     SCF correction compared to forces is large: reduce conv_thr to get better values


     Computing stress (Cartesian axis) and pressure

          total   stress  (Ry/bohr**3)                   (kbar)     P=  -68.14
  -0.00049825   0.00000000   0.00000000        -73.29      0.00      0.00
   0.00000000  -0.00042762   0.00000000          0.00    -62.91      0.00
   0.00000000   0.00000000  -0.00046370          0.00      0.00    -68.21


     number of scf cycles    =   5
     number of bfgs steps    =   4

     energy   old            =    -608.3927614257 Ry
     energy   new            =    -608.3927616944 Ry

     CASE: energy  _new < energy  _old

     new trust radius        =       0.0002261958 bohr
     new conv_thr            =            1.0E-10 Ry


ATOMIC_POSITIONS (alat)
Mg      -0.000643335   0.000653553   0.000000000
Mg      -0.000685492   0.499325202   0.500000000
Mg       0.500663885   0.000696574   0.500000000
Mg       0.500662591   0.499326096   0.000000000
O        0.500707597   0.000713554   0.000000000
O       -0.000705501   0.499285457   0.000000000
O       -0.000706066   0.000713095   0.500000000
O        0.500706320   0.499286470   0.500000000



     Writing output data file diamond.1.002857.70.4.save
     NEW-OLD atomic charge density approx. for the potential

     Check: negative/imaginary core charge=   -0.000007    0.000000

     total cpu time spent up to now is       43.5 secs

     per-process dynamical memory:    51.7 Mb

     Self-consistent Calculation

     iteration #  1     ecut=    70.00 Ry     beta=0.70
     Davidson diagonalization with overlap
     ethr =  1.00E-06,  avg # of iterations =  1.5

     Threshold (ethr) on eigenvalues was too large:
     Diagonalizing with lowered threshold

     Davidson diagonalization with overlap
     ethr =  2.54E-11,  avg # of iterations =  3.5

     total cpu time spent up to now is       46.4 secs

     total energy              =    -608.39276176 Ry
     Harris-Foulkes estimate   =    -608.39276179 Ry
     estimated scf accuracy    <       0.00000003 Ry

     iteration #  2     ecut=    70.00 Ry     beta=0.70
     Davidson diagonalization with overlap
     ethr =  4.72E-11,  avg # of iterations =  2.2

     total cpu time spent up to now is       47.6 secs

     total energy              =    -608.39276177 Ry
     Harris-Foulkes estimate   =    -608.39276178 Ry
     estimated scf accuracy    <          5.1E-09 Ry

     iteration #  3     ecut=    70.00 Ry     beta=0.70
     Davidson diagonalization with overlap
     ethr =  8.00E-12,  avg # of iterations =  2.0

     total cpu time spent up to now is       48.8 secs

     End of self-consistent calculation

          k = 0.0000 0.0000 0.0000 (  5153 PWs)   bands (ev):

   -64.8345 -64.8251 -64.8250 -64.8242 -31.6323 -31.6309 -31.6294 -31.5951
   -31.5944 -31.5940 -31.5927 -31.5922 -31.5916 -31.5673 -31.5638 -31.5623
    -9.3647  -7.9213  -7.9138  -7.9064   3.7488   3.7580   3.7675   6.3597
     6.3623   6.3775   6.3825   6.3979   6.4003   7.6657   7.6724   7.6786

          k = 0.0000 0.0000 0.2500 (  5169 PWs)   bands (ev):

   -64.8331 -64.8262 -64.8250 -64.8244 -31.6264 -31.6229 -31.6206 -31.6008
   -31.5967 -31.5945 -31.5935 -31.5908 -31.5871 -31.5781 -31.5729 -31.5698
    -9.1563  -8.1287  -7.8907  -7.8801   4.0397   4.0572   4.0952   5.8531
     5.8622   6.1567   6.1845   6.5268   6.5593   6.6589   7.4413   7.4590

          k = 0.0000 0.0000-0.5000 (  5118 PWs)   bands (ev):

   -64.8299 -64.8294 -64.8250 -64.8244 -31.6117 -31.6114 -31.6079 -31.6076
   -31.6019 -31.6018 -31.5907 -31.5907 -31.5819 -31.5816 -31.5792 -31.5789
    -8.6462  -8.6458  -7.8566  -7.8566   4.8400   4.8405   4.8547   4.8552
     5.1226   5.1229   5.9733   5.9737   6.9550   6.9552   6.9814   6.9816

          k = 0.0000 0.2507 0.0000 (  5161 PWs)   bands (ev):

   -64.8331 -64.8262 -64.8251 -64.8244 -31.6262 -31.6242 -31.6191 -31.6000
   -31.5976 -31.5922 -31.5917 -31.5907 -31.5896 -31.5766 -31.5730 -31.5715
    -9.1546  -8.1216  -7.8909  -7.8856   4.0416   4.0503   4.1001   5.8689
     5.8736   6.1525   6.1663   6.5246   6.5412   6.6529   7.4464   7.4551

          k = 0.0000 0.2507 0.2500 (  5157 PWs)   bands (ev):

   -64.8318 -64.8262 -64.8258 -64.8248 -31.6212 -31.6208 -31.6191 -31.6064
   -31.5960 -31.5954 -31.5923 -31.5866 -31.5866 -31.5851 -31.5769 -31.5674
    -8.9647  -8.0638  -8.0585  -7.8940   4.1596   4.1624   4.3220   5.0714
     5.8386   6.0525   6.0663   6.4717   6.4763   6.5928   7.1796   7.5044

          k = 0.0000 0.2507-0.5000 (  5146 PWs)   bands (ev):

   -64.8291 -64.8287 -64.8257 -64.8251 -31.6161 -31.6160 -31.6098 -31.6098
   -31.6083 -31.6081 -31.5864 -31.5862 -31.5829 -31.5829 -31.5741 -31.5739
    -8.5089  -8.5086  -7.9460  -7.9459   4.4144   4.4146   4.7443   4.7445
     5.0911   5.0916   6.5542   6.5544   6.5847   6.5849   7.0889   7.0890

          k = 0.0000-0.5014 0.0000 (  5110 PWs)   bands (ev):

   -64.8298 -64.8293 -64.8250 -64.8245 -31.6113 -31.6111 -31.6091 -31.6089
   -31.5996 -31.5995 -31.5896 -31.5895 -31.5822 -31.5819 -31.5808 -31.5806
    -8.6411  -8.6409  -7.8586  -7.8585   4.8477   4.8481   4.8553   4.8557
     5.1201   5.1204   5.9588   5.9591   6.9565   6.9566   6.9696   6.9698

          k = 0.0000-0.5014 0.2500 (  5146 PWs)   bands (ev):

   -64.8291 -64.8287 -64.8257 -64.8251 -31.6170 -31.6168 -31.6092 -31.6091
   -31.6081 -31.6079 -31.5868 -31.5866 -31.5820 -31.5820 -31.5746 -31.5745
    -8.5055  -8.5053  -7.9478  -7.9477   4.4140   4.4142   4.7422   4.7424
     5.0969   5.0972   6.5458   6.5461   6.5770   6.5773   7.0922   7.0923

          k = 0.0000-0.5014-0.5000 (  5196 PWs)   bands (ev):

   -64.8274 -64.8274 -64.8274 -64.8264 -31.6187 -31.6185 -31.6183 -31.6183
   -31.5989 -31.5987 -31.5987 -31.5984 -31.5751 -31.5750 -31.5748 -31.5748
    -8.2036  -8.2035  -8.2034  -8.2033   4.2824   4.2825   4.2825   4.2827
     5.7679   5.7681   5.7684   5.7686   7.0674   7.0676   7.0676   7.0678

          k = 0.2493 0.0000 0.0000 (  5165 PWs)   bands (ev):

   -64.8331 -64.8263 -64.8249 -64.8244 -31.6240 -31.6232 -31.6225 -31.5985
   -31.5967 -31.5955 -31.5950 -31.5885 -31.5866 -31.5812 -31.5715 -31.5699
    -9.1579  -8.1358  -7.8851  -7.8798   4.0468   4.0557   4.0896   5.8424
     5.8468   6.1748   6.1888   6.5448   6.5607   6.6641   7.4451   7.4540

          k = 0.2493 0.0000 0.2500 (  5157 PWs)   bands (ev):

   -64.8319 -64.8262 -64.8258 -64.8247 -31.6223 -31.6211 -31.6180 -31.6079
   -31.5935 -31.5923 -31.5919 -31.5890 -31.5880 -31.5865 -31.5737 -31.5692
    -8.9676  -8.0694  -8.0641  -7.8868   4.1607   4.1630   4.3350   5.0711
     5.8555   6.0451   6.0585   6.4933   6.4979   6.5740   7.1668   7.5066

          k = 0.2493 0.0000-0.5000 (  5146 PWs)   bands (ev):

   -64.8291 -64.8287 -64.8257 -64.8251 -31.6180 -31.6179 -31.6102 -31.6102
   -31.6049 -31.6047 -31.5843 -31.5842 -31.5830 -31.5827 -31.5769 -31.5767
    -8.5107  -8.5104  -7.9481  -7.9480   4.4224   4.4226   4.7578   4.7581
     5.1009   5.1014   6.5414   6.5417   6.5669   6.5672   7.0989   7.0990

          k = 0.2493 0.2507 0.0000 (  5157 PWs)   bands (ev):

   -64.8319 -64.8262 -64.8258 -64.8248 -31.6223 -31.6194 -31.6189 -31.6072
   -31.5943 -31.5938 -31.5930 -31.5880 -31.5877 -31.5853 -31.5753 -31.5683
    -8.9661  -8.0692  -8.0587  -7.8903   4.1589   4.1642   4.3286   5.0712
     5.8470   6.0419   6.0689   6.4800   6.4893   6.5835   7.1733   7.5054

          k = 0.2493 0.2507 0.2500 (  5151 PWs)   bands (ev):

   -64.8308 -64.8262 -64.8262 -64.8254 -31.6254 -31.6249 -31.6245 -31.6060
   -31.5938 -31.5936 -31.5932 -31.5851 -31.5837 -31.5826 -31.5725 -31.5699
    -8.7963  -8.0346  -8.0308  -8.0270   3.9992   4.0004   4.0017   5.0891
     5.8414   5.8457   5.8500   6.6972   6.7055   6.7136   7.3544   7.3561

          k = 0.2493 0.2507-0.5000 (  5130 PWs)   bands (ev):

   -64.8286 -64.8282 -64.8262 -64.8256 -31.6278 -31.6277 -31.6209 -31.6208
   -31.5930 -31.5928 -31.5803 -31.5802 -31.5789 -31.5787 -31.5762 -31.5761
    -8.3993  -8.3990  -7.9973  -7.9972   3.8214   3.8215   4.1978   4.1980
     5.8302   5.8302   6.7402   6.7404   6.8687   6.8689   7.0160   7.0161

          k = 0.2493-0.5014 0.0000 (  5154 PWs)   bands (ev):

   -64.8291 -64.8287 -64.8257 -64.8251 -31.6178 -31.6176 -31.6096 -31.6095
   -31.6066 -31.6063 -31.5855 -31.5852 -31.5827 -31.5827 -31.5763 -31.5762
    -8.5064  -8.5062  -7.9488  -7.9487   4.4182   4.4184   4.7489   4.7491
     5.1017   5.1020   6.5394   6.5397   6.5680   6.5682   7.0969   7.0970

          k = 0.2493-0.5014 0.2500 (  5132 PWs)   bands (ev):

   -64.8286 -64.8282 -64.8262 -64.8256 -31.6282 -31.6280 -31.6206 -31.6205
   -31.5937 -31.5935 -31.5794 -31.5794 -31.5789 -31.5787 -31.5766 -31.5765
    -8.3965  -8.3964  -7.9982  -7.9981   3.8207   3.8208   4.1934   4.1935
     5.8306   5.8306   6.7378   6.7380   6.8728   6.8730   7.0113   7.0114

          k = 0.2493-0.5014-0.5000 (  5128 PWs)   bands (ev):

   -64.8274 -64.8274 -64.8274 -64.8264 -31.6313 -31.6310 -31.6310 -31.6310
   -31.5839 -31.5837 -31.5837 -31.5836 -31.5742 -31.5740 -31.5739 -31.5739
    -8.1670  -8.1669  -8.1668  -8.1667   3.6366   3.6368   3.6368   3.6368
     6.5208   6.5209   6.5211   6.5212   7.0684   7.0686   7.0686   7.0687

          k =-0.4986 0.0000 0.0000 (  5130 PWs)   bands (ev):

   -64.8299 -64.8295 -64.8249 -64.8244 -31.6098 -31.6096 -31.6082 -31.6079
   -31.6034 -31.6033 -31.5939 -31.5938 -31.5802 -31.5800 -31.5789 -31.5786
    -8.6512  -8.6508  -7.8546  -7.8546   4.8399   4.8405   4.8470   4.8477
     5.1251   5.1254   5.9873   5.9876   6.9667   6.9670   6.9799   6.9802

          k =-0.4986 0.0000 0.2500 (  5148 PWs)   bands (ev):

   -64.8292 -64.8287 -64.8257 -64.8251 -31.6176 -31.6174 -31.6108 -31.6108
   -31.6051 -31.6049 -31.5852 -31.5852 -31.5827 -31.5825 -31.5760 -31.5758
    -8.5140  -8.5137  -7.9463  -7.9462   4.4224   4.4227   4.7599   4.7602
     5.0952   5.0958   6.5497   6.5500   6.5745   6.5749   7.0958   7.0960

          k =-0.4986 0.0000-0.5000 (  5200 PWs)   bands (ev):

   -64.8274 -64.8274 -64.8274 -64.8264 -31.6195 -31.6194 -31.6192 -31.6192
   -31.5951 -31.5949 -31.5949 -31.5946 -31.5779 -31.5777 -31.5776 -31.5776
    -8.2076  -8.2074  -8.2073  -8.2072   4.3040   4.3041   4.3041   4.3043
     5.7661   5.7664   5.7668   5.7671   7.0587   7.0589   7.0589   7.0591

          k =-0.4986 0.2507 0.0000 (  5148 PWs)   bands (ev):

   -64.8292 -64.8287 -64.8257 -64.8251 -31.6166 -31.6165 -31.6107 -31.6107
   -31.6070 -31.6068 -31.5845 -31.5844 -31.5843 -31.5843 -31.5744 -31.5743
    -8.5131  -8.5128  -7.9452  -7.9451   4.4185   4.4189   4.7531   4.7534
     5.0902   5.0908   6.5561   6.5564   6.5832   6.5836   7.0907   7.0908

          k =-0.4986 0.2507 0.2500 (  5134 PWs)   bands (ev):

   -64.8286 -64.8282 -64.8262 -64.8256 -31.6278 -31.6277 -31.6212 -31.6211
   -31.5920 -31.5918 -31.5818 -31.5817 -31.5786 -31.5784 -31.5762 -31.5760
    -8.4020  -8.4017  -7.9963  -7.9962   3.8221   3.8221   4.2023   4.2025
     5.8300   5.8300   6.7423   6.7426   6.8645   6.8647   7.0206   7.0208

          k =-0.4986 0.2507-0.5000 (  5144 PWs)   bands (ev):

   -64.8274 -64.8274 -64.8274 -64.8264 -31.6318 -31.6315 -31.6315 -31.6315
   -31.5820 -31.5818 -31.5818 -31.5816 -31.5765 -31.5763 -31.5761 -31.5761
    -8.1691  -8.1689  -8.1688  -8.1687   3.6438   3.6439   3.6439   3.6440
     6.5274   6.5275   6.5278   6.5279   7.0599   7.0601   7.0601   7.0603

          k =-0.4986-0.5014 0.0000 (  5192 PWs)   bands (ev):

   -64.8274 -64.8274 -64.8274 -64.8264 -31.6190 -31.6188 -31.6186 -31.6186
   -31.5972 -31.5971 -31.5971 -31.5968 -31.5761 -31.5760 -31.5758 -31.5758
    -8.2056  -8.2054  -8.2053  -8.2052   4.2932   4.2933   4.2933   4.2935
     5.7667   5.7670   5.7674   5.7677   7.0631   7.0633   7.0633   7.0635

          k =-0.4986-0.5014 0.2500 (  5140 PWs)   bands (ev):

   -64.8274 -64.8274 -64.8274 -64.8264 -31.6316 -31.6313 -31.6313 -31.6313
   -31.5832 -31.5830 -31.5830 -31.5829 -31.5752 -31.5750 -31.5749 -31.5749
    -8.1680  -8.1679  -8.1678  -8.1677   3.6402   3.6403   3.6403   3.6404
     6.5240   6.5241   6.5244   6.5246   7.0641   7.0643   7.0643   7.0645

          k =-0.4986-0.5014-0.5000 (  5152 PWs)   bands (ev):

   -64.8274 -64.8274 -64.8274 -64.8264 -31.6401 -31.6398 -31.6398 -31.6398
   -31.5769 -31.5767 -31.5766 -31.5766 -31.5737 -31.5734 -31.5734 -31.5733
    -8.1299  -8.1298  -8.1297  -8.1297   3.2173   3.2174   3.2175   3.2175
     7.0601   7.0601   7.0602   7.0604   7.0699   7.0700   7.0701   7.0702

          k =-0.2493 0.2507 0.0000 (  5157 PWs)   bands (ev):

   -64.8319 -64.8262 -64.8258 -64.8248 -31.6223 -31.6194 -31.6189 -31.6072
   -31.5943 -31.5938 -31.5930 -31.5880 -31.5877 -31.5853 -31.5753 -31.5683
    -8.9661  -8.0692  -8.0587  -7.8903   4.1589   4.1642   4.3286   5.0712
     5.8470   6.0419   6.0689   6.4800   6.4893   6.5835   7.1733   7.5054

          k =-0.2493 0.2507-0.2500 (  5151 PWs)   bands (ev):

   -64.8308 -64.8262 -64.8262 -64.8254 -31.6254 -31.6249 -31.6245 -31.6060
   -31.5938 -31.5936 -31.5932 -31.5851 -31.5837 -31.5826 -31.5725 -31.5699
    -8.7963  -8.0346  -8.0308  -8.0270   3.9992   4.0004   4.0017   5.0891
     5.8414   5.8457   5.8500   6.6972   6.7055   6.7136   7.3544   7.3561

          k =-0.2493 0.2507 0.5000 (  5130 PWs)   bands (ev):

   -64.8286 -64.8282 -64.8262 -64.8256 -31.6278 -31.6277 -31.6209 -31.6208
   -31.5930 -31.5928 -31.5803 -31.5802 -31.5789 -31.5787 -31.5762 -31.5761
    -8.3993  -8.3990  -7.9973  -7.9972   3.8214   3.8215   4.1978   4.1980
     5.8302   5.8302   6.7402   6.7404   6.8687   6.8689   7.0160   7.0161

     highest occupied level (ev):     7.6786

!    total energy              =    -608.39276177 Ry
     Harris-Foulkes estimate   =    -608.39276177 Ry
     estimated scf accuracy    <          5.2E-11 Ry

     The total energy is the sum of the following terms:

     one-electron contribution =    -303.56355160 Ry
     hartree contribution      =     168.07111954 Ry
     xc contribution           =     -97.84653920 Ry
     ewald contribution        =    -375.05379052 Ry

     convergence has been achieved in   3 iterations

     Forces acting on atoms (cartesian axes, Ry/au):

     atom    1 type  1   force =    -0.00002912    0.00001596    0.00000000
     atom    2 type  1   force =    -0.00007604   -0.00005065    0.00000000
     atom    3 type  1   force =     0.00006626    0.00005993    0.00000000
     atom    4 type  1   force =     0.00006687   -0.00005067    0.00000000
     atom    5 type  2   force =    -0.00001100   -0.00002213    0.00000000
     atom    6 type  2   force =     0.00000257    0.00002895    0.00000000
     atom    7 type  2   force =     0.00000174   -0.00002162    0.00000000
     atom    8 type  2   force =    -0.00002128    0.00004023    0.00000000

     Total force =     0.000169     Total SCF correction =     0.000020
     SCF correction compared to forces is large: reduce conv_thr to get better values


     Computing stress (Cartesian axis) and pressure

          total   stress  (Ry/bohr**3)                   (kbar)     P=  -68.14
  -0.00049825   0.00000000   0.00000000        -73.29      0.00      0.00
   0.00000000  -0.00042762   0.00000000          0.00    -62.90      0.00
   0.00000000   0.00000000  -0.00046369          0.00      0.00    -68.21


     bfgs converged in   6 scf cycles and   5 bfgs steps
     (criteria: energy <  1.0E-05 Ry, force <  1.0E-04 Ry/Bohr)

     End of BFGS Geometry Optimization

     Final energy   =    -608.3927617742 Ry
Begin final coordinates

ATOMIC_POSITIONS (alat)
Mg      -0.000643335   0.000653553   0.000000000
Mg      -0.000685492   0.499325202   0.500000000
Mg       0.500663885   0.000696574   0.500000000
Mg       0.500662591   0.499326096   0.000000000
O        0.500707597   0.000713554   0.000000000
O       -0.000705501   0.499285457   0.000000000
O       -0.000706066   0.000713095   0.500000000
O        0.500706320   0.499286470   0.500000000
End final coordinates



     Writing output data file diamond.1.002857.70.4.save
 
     init_run     :      0.54s CPU      0.56s WALL (       1 calls)
     electrons    :     43.33s CPU     44.54s WALL (       6 calls)
     update_pot   :      0.54s CPU      0.55s WALL (       5 calls)
     forces       :      0.98s CPU      0.99s WALL (       6 calls)
     stress       :      2.24s CPU      2.25s WALL (       6 calls)

     Called by init_run:
     wfcinit      :      0.43s CPU      0.44s WALL (       1 calls)
     potinit      :      0.05s CPU      0.05s WALL (       1 calls)

     Called by electrons:
     c_bands      :     37.71s CPU     38.77s WALL (      34 calls)
     sum_band     :      5.41s CPU      5.54s WALL (      34 calls)
     v_of_rho     :      0.18s CPU      0.18s WALL (      35 calls)
     mix_rho      :      0.02s CPU      0.02s WALL (      34 calls)

     Called by c_bands:
     init_us_2    :      0.56s CPU      0.60s WALL (    2430 calls)
     cegterg      :     35.14s CPU     36.11s WALL (    1020 calls)

     Called by sum_band:

     Called by *egterg:
     h_psi        :     26.10s CPU     26.67s WALL (    3232 calls)
     g_psi        :      0.19s CPU      0.19s WALL (    2182 calls)
     cdiaghg      :      4.71s CPU      4.71s WALL (    2902 calls)

     Called by h_psi:
     h_psi:pot    :     26.00s CPU     26.53s WALL (    3232 calls)
     h_psi:calbec :      1.45s CPU      1.45s WALL (    3232 calls)
     vloc_psi     :     23.35s CPU     23.86s WALL (    3232 calls)
     add_vuspsi   :      1.19s CPU      1.20s WALL (    3232 calls)

     General routines
     calbec       :      1.98s CPU      1.98s WALL (    4132 calls)
     fft          :      0.13s CPU      0.13s WALL (     544 calls)
     fftw         :     26.49s CPU     26.14s WALL (  202742 calls)
     davcio       :      0.00s CPU      0.00s WALL (      30 calls)
 
     Parallel routines
     fft_scatter  :      6.90s CPU      6.82s WALL (  203286 calls)
 
     PWSCF        :    48.10s CPU        49.49s WALL

 
   This run was terminated on:  16:14: 9  22Apr2018            

=------------------------------------------------------------------------------=
   JOB DONE.
=------------------------------------------------------------------------------=
