
     Program PWSCF v.6.1 (svn rev. 13369) starts on 22Apr2018 at 16:19:30 

     This program is part of the open-source Quantum ESPRESSO suite
     for quantum simulation of materials; please cite
         "P. Giannozzi et al., J. Phys.:Condens. Matter 21 395502 (2009);
          URL http://www.quantum-espresso.org", 
     in publications or presentations arising from this work. More details at
     http://www.quantum-espresso.org/quote

     Parallel version (MPI), running on     8 processors
     R & G space division:  proc/nbgrp/npool/nimage =       8
     Waiting for input...
     Reading input from standard input
Warning: card       &CELL ignored
Warning: card       CELL_DYNAMICS = 'BFGS' ignored
Warning: card       PRESS = 0.0D0 ignored
Warning: card       PRESS_CONV_THR = 0.01D0 ignored
Warning: card       / ignored

     Current dimensions of program PWSCF are:
     Max number of different atomic species (ntypx) = 10
     Max number of k-points (npk) =  40000
     Max angular momentum in pseudopotentials (lmaxx) =  3

     Subspace diagonalization in iterative solution of the eigenvalue problem:
     a serial algorithm will be used

 
     Parallelization info
     --------------------
     sticks:   dense  smooth     PW     G-vecs:    dense   smooth      PW
     Min         180     180     52                 5152     5152     816
     Max         181     181     53                 5155     5155     819
     Sum        1445    1445    421                41227    41227    6539
 


     bravais-lattice index     =            0
     lattice parameter (alat)  =       8.0448  a.u.
     unit-cell volume          =     520.6402 (a.u.)^3
     number of atoms/cell      =            8
     number of atomic types    =            2
     number of electrons       =        64.00
     number of Kohn-Sham states=           32
     kinetic-energy cutoff     =      70.0000  Ry
     charge density cutoff     =     280.0000  Ry
     convergence threshold     =      1.0E-08
     mixing beta               =       0.7000
     number of iterations used =            8  plain     mixing
     Exchange-correlation      = PBE ( 1  4  3  4 0 0)
     nstep                     =           50


     celldm(1)=   8.044750  celldm(2)=   0.000000  celldm(3)=   0.000000
     celldm(4)=   0.000000  celldm(5)=   0.000000  celldm(6)=   0.000000

     crystal axes: (cart. coord. in units of alat)
               a(1) = (   1.007143   0.000000   0.000000 )  
               a(2) = (   0.000000   0.992857   0.000000 )  
               a(3) = (   0.000000   0.000000   1.000051 )  

     reciprocal axes: (cart. coord. in units 2 pi/alat)
               b(1) = (  0.992908  0.000000  0.000000 )  
               b(2) = (  0.000000  1.007194  0.000000 )  
               b(3) = (  0.000000  0.000000  0.999949 )  


     PseudoPot. # 1 for Mg read from file:
     ../pseudo/Mg.pbe.UPF
     MD5 check sum: 4c04d8c6e0476e83eaecaf72fa8acc4d
     Pseudo is Norm-conserving, Zval = 10.0
     Generated using ONCVPSP code by D. R. Hamann
     Using radial grid of 1510 points,  4 beta functions with: 
                l(1) =   0
                l(2) =   0
                l(3) =   1
                l(4) =   1

     PseudoPot. # 2 for O  read from file:
     ../pseudo/O.pbe.UPF
     MD5 check sum: 3e3f909f7470e8921608ab6b1f57bbae
     Pseudo is Norm-conserving + core correction, Zval =  6.0
     Generated using ONCVPSP code by D. R. Hamann
     Using radial grid of  936 points,  5 beta functions with: 
                l(1) =   0
                l(2) =   0
                l(3) =   1
                l(4) =   1
                l(5) =   2

     atomic species   valence    mass     pseudopotential
        Mg            10.00    24.30500     Mg( 1.00)
        O              6.00    15.99940     O ( 1.00)

     No symmetry found



   Cartesian axes

     site n.     atom                  positions (alat units)
         1           Mg  tau(   1) = (   0.0000000   0.0000000   0.0000000  )
         2           Mg  tau(   2) = (   0.0000000   0.5000000   0.5000000  )
         3           Mg  tau(   3) = (   0.5000000   0.0000000   0.5000000  )
         4           Mg  tau(   4) = (   0.5000000   0.5000000   0.0000000  )
         5           O   tau(   5) = (   0.5000000   0.0000000   0.0000000  )
         6           O   tau(   6) = (   0.0000000   0.5000000   0.0000000  )
         7           O   tau(   7) = (   0.0000000   0.0000000   0.5000000  )
         8           O   tau(   8) = (   0.5000000   0.5000000   0.5000000  )

     number of k points=    36
                       cart. coord. in units 2pi/alat
        k(    1) = (   0.0000000   0.0000000   0.0000000), wk =   0.0312500
        k(    2) = (   0.0000000   0.0000000   0.2499872), wk =   0.0625000
        k(    3) = (   0.0000000   0.0000000  -0.4999745), wk =   0.0312500
        k(    4) = (   0.0000000   0.2517986   0.0000000), wk =   0.0625000
        k(    5) = (   0.0000000   0.2517986   0.2499872), wk =   0.0625000
        k(    6) = (   0.0000000   0.2517986  -0.4999745), wk =   0.0625000
        k(    7) = (   0.0000000  -0.5035972   0.0000000), wk =   0.0312500
        k(    8) = (   0.0000000  -0.5035972   0.2499872), wk =   0.0625000
        k(    9) = (   0.0000000  -0.5035972  -0.4999745), wk =   0.0312500
        k(   10) = (   0.2482269   0.0000000   0.0000000), wk =   0.0625000
        k(   11) = (   0.2482269   0.0000000   0.2499872), wk =   0.0625000
        k(   12) = (   0.2482269   0.0000000  -0.4999745), wk =   0.0625000
        k(   13) = (   0.2482269   0.2517986   0.0000000), wk =   0.0625000
        k(   14) = (   0.2482269   0.2517986   0.2499872), wk =   0.0625000
        k(   15) = (   0.2482269   0.2517986  -0.4999745), wk =   0.0625000
        k(   16) = (   0.2482269  -0.5035972   0.0000000), wk =   0.0625000
        k(   17) = (   0.2482269  -0.5035972   0.2499872), wk =   0.0625000
        k(   18) = (   0.2482269  -0.5035972  -0.4999745), wk =   0.0625000
        k(   19) = (  -0.4964538   0.0000000   0.0000000), wk =   0.0312500
        k(   20) = (  -0.4964538   0.0000000   0.2499872), wk =   0.0625000
        k(   21) = (  -0.4964538   0.0000000  -0.4999745), wk =   0.0312500
        k(   22) = (  -0.4964538   0.2517986   0.0000000), wk =   0.0625000
        k(   23) = (  -0.4964538   0.2517986   0.2499872), wk =   0.0625000
        k(   24) = (  -0.4964538   0.2517986  -0.4999745), wk =   0.0625000
        k(   25) = (  -0.4964538  -0.5035972   0.0000000), wk =   0.0312500
        k(   26) = (  -0.4964538  -0.5035972   0.2499872), wk =   0.0625000
        k(   27) = (  -0.4964538  -0.5035972  -0.4999745), wk =   0.0312500
        k(   28) = (   0.0000000  -0.2517986   0.2499872), wk =   0.0625000
        k(   29) = (  -0.2482269   0.0000000   0.2499872), wk =   0.0625000
        k(   30) = (  -0.2482269   0.2517986   0.0000000), wk =   0.0625000
        k(   31) = (  -0.2482269  -0.2517986   0.2499872), wk =   0.0625000
        k(   32) = (  -0.2482269   0.2517986  -0.2499872), wk =   0.0625000
        k(   33) = (   0.2482269  -0.2517986  -0.2499872), wk =   0.0625000
        k(   34) = (  -0.2482269   0.2517986   0.4999745), wk =   0.0625000
        k(   35) = (  -0.2482269   0.5035972   0.2499872), wk =   0.0625000
        k(   36) = (   0.4964538  -0.2517986   0.2499872), wk =   0.0625000

     Dense  grid:    41227 G-vectors     FFT dimensions: (  45,  45,  45)

     Estimated max dynamical RAM per process >      17.22MB

     Estimated total allocated dynamical RAM >     137.72MB

     Check: negative/imaginary core charge=   -0.000007    0.000000

     Initial potential from superposition of free atoms

     starting charge   63.99678, renormalised to   64.00000
     Starting wfc are   36 randomized atomic wfcs

     total cpu time spent up to now is        0.8 secs

     per-process dynamical memory:    51.6 Mb

     Self-consistent Calculation

     iteration #  1     ecut=    70.00 Ry     beta=0.70
     Davidson diagonalization with overlap
     ethr =  1.00E-02,  avg # of iterations =  2.0

     total cpu time spent up to now is        2.3 secs

     total energy              =    -607.71940562 Ry
     Harris-Foulkes estimate   =    -608.84368667 Ry
     estimated scf accuracy    <       1.56224248 Ry

     iteration #  2     ecut=    70.00 Ry     beta=0.70
     Davidson diagonalization with overlap
     ethr =  2.44E-03,  avg # of iterations =  2.9

     total cpu time spent up to now is        3.9 secs

     total energy              =    -608.10504766 Ry
     Harris-Foulkes estimate   =    -608.80249138 Ry
     estimated scf accuracy    <       1.44768124 Ry

     iteration #  3     ecut=    70.00 Ry     beta=0.70
     Davidson diagonalization with overlap
     ethr =  2.26E-03,  avg # of iterations =  2.0

     total cpu time spent up to now is        5.4 secs

     total energy              =    -608.39050974 Ry
     Harris-Foulkes estimate   =    -608.39117784 Ry
     estimated scf accuracy    <       0.00677016 Ry

     iteration #  4     ecut=    70.00 Ry     beta=0.70
     Davidson diagonalization with overlap
     ethr =  1.06E-05,  avg # of iterations =  2.0

     total cpu time spent up to now is        6.9 secs

     total energy              =    -608.39198924 Ry
     Harris-Foulkes estimate   =    -608.39203376 Ry
     estimated scf accuracy    <       0.00011062 Ry

     iteration #  5     ecut=    70.00 Ry     beta=0.70
     Davidson diagonalization with overlap
     ethr =  1.73E-07,  avg # of iterations =  1.9

     total cpu time spent up to now is        8.2 secs

     total energy              =    -608.39199700 Ry
     Harris-Foulkes estimate   =    -608.39199541 Ry
     estimated scf accuracy    <       0.00001023 Ry

     iteration #  6     ecut=    70.00 Ry     beta=0.70
     Davidson diagonalization with overlap
     ethr =  1.60E-08,  avg # of iterations =  2.0

     total cpu time spent up to now is        9.8 secs

     total energy              =    -608.39199840 Ry
     Harris-Foulkes estimate   =    -608.39199878 Ry
     estimated scf accuracy    <       0.00000080 Ry

     iteration #  7     ecut=    70.00 Ry     beta=0.70
     Davidson diagonalization with overlap
     ethr =  1.25E-09,  avg # of iterations =  2.0

     total cpu time spent up to now is       11.3 secs

     total energy              =    -608.39199844 Ry
     Harris-Foulkes estimate   =    -608.39199850 Ry
     estimated scf accuracy    <       0.00000017 Ry

     iteration #  8     ecut=    70.00 Ry     beta=0.70
     Davidson diagonalization with overlap
     ethr =  2.63E-10,  avg # of iterations =  2.0

     total cpu time spent up to now is       12.7 secs

     total energy              =    -608.39199843 Ry
     Harris-Foulkes estimate   =    -608.39199846 Ry
     estimated scf accuracy    <       0.00000004 Ry

     iteration #  9     ecut=    70.00 Ry     beta=0.70
     Davidson diagonalization with overlap
     ethr =  6.75E-11,  avg # of iterations =  2.0

     total cpu time spent up to now is       14.4 secs

     End of self-consistent calculation

          k = 0.0000 0.0000 0.0000 (  5149 PWs)   bands (ev):

   -64.8331 -64.8238 -64.8235 -64.8228 -31.6333 -31.6297 -31.6251 -31.5965
   -31.5949 -31.5930 -31.5904 -31.5893 -31.5877 -31.5692 -31.5627 -31.5588
    -9.3661  -7.9336  -7.9150  -7.8963   3.7347   3.7565   3.7824   6.3286
     6.3359   6.3727   6.3855   6.4246   6.4301   7.6543   7.6723   7.6866

          k = 0.0000 0.0000 0.2500 (  5153 PWs)   bands (ev):

   -64.8317 -64.8249 -64.8237 -64.8230 -31.6273 -31.6194 -31.6188 -31.6019
   -31.5940 -31.5919 -31.5912 -31.5910 -31.5841 -31.5768 -31.5740 -31.5659
    -9.1576  -8.1299  -7.8998  -7.8732   4.0264   4.0707   4.0939   5.8460
     5.8687   6.1345   6.2038   6.5028   6.5846   6.6588   7.4276   7.4715

          k = 0.0000 0.0000-0.5000 (  5126 PWs)   bands (ev):

   -64.8285 -64.8280 -64.8236 -64.8230 -31.6142 -31.6139 -31.6047 -31.6044
   -31.5999 -31.5999 -31.5902 -31.5902 -31.5825 -31.5823 -31.5754 -31.5751
    -8.6475  -8.6472  -7.8578  -7.8577   4.8284   4.8289   4.8646   4.8651
     5.1227   5.1230   5.9717   5.9720   6.9354   6.9357   7.0013   7.0015

          k = 0.0000 0.2518 0.0000 (  5165 PWs)   bands (ev):

   -64.8317 -64.8247 -64.8237 -64.8231 -31.6271 -31.6229 -31.6163 -31.6005
   -31.5955 -31.5929 -31.5892 -31.5887 -31.5878 -31.5749 -31.5729 -31.5704
    -9.1536  -8.1118  -7.9002  -7.8870   4.0312   4.0515   4.1066   5.8863
     5.8965   6.1249   6.1592   6.4968   6.5384   6.6430   7.4405   7.4612

          k = 0.0000 0.2518 0.2500 (  5157 PWs)   bands (ev):

   -64.8305 -64.8248 -64.8244 -64.8235 -31.6223 -31.6197 -31.6162 -31.6040
   -31.5981 -31.5972 -31.5897 -31.5850 -31.5830 -31.5820 -31.5784 -31.5647
    -8.9639  -8.0647  -8.0513  -7.9004   4.1555   4.1627   4.3122   5.0710
     5.8256   6.0467   6.0819   6.4512   6.4636   6.6073   7.1884   7.5018

          k = 0.0000 0.2518-0.5000 (  5142 PWs)   bands (ev):

   -64.8278 -64.8273 -64.8243 -64.8237 -31.6137 -31.6135 -31.6104 -31.6102
   -31.6076 -31.6074 -31.5876 -31.5874 -31.5806 -31.5805 -31.5706 -31.5704
    -8.5088  -8.5086  -7.9454  -7.9453   4.4077   4.4079   4.7331   4.7333
     5.0838   5.0842   6.5598   6.5601   6.6008   6.6011   7.0812   7.0813

          k = 0.0000-0.5036 0.0000 (  5126 PWs)   bands (ev):

   -64.8285 -64.8278 -64.8237 -64.8232 -31.6144 -31.6126 -31.6093 -31.6071
   -31.5970 -31.5944 -31.5870 -31.5870 -31.5836 -31.5825 -31.5802 -31.5788
    -8.6541  -8.6151  -7.8629  -7.8623   4.8176   4.8346   4.8789   4.8961
     5.1032   5.1288   5.9359   5.9362   6.9194   6.9528   6.9577   6.9901

          k = 0.0000-0.5036 0.2500 (  5140 PWs)   bands (ev):

   -64.8278 -64.8272 -64.8244 -64.8238 -31.6157 -31.6146 -31.6106 -31.6087
   -31.6068 -31.6055 -31.5893 -31.5878 -31.5786 -31.5782 -31.5722 -31.5720
    -8.5174  -8.4830  -7.9530  -7.9468   4.3950   4.4185   4.7139   4.7420
     5.0691   5.1284   6.5273   6.5511   6.5604   6.6022   7.0827   7.0948

          k = 0.0000-0.5036-0.5000 (  5160 PWs)   bands (ev):

   -64.8262 -64.8260 -64.8259 -64.8250 -31.6170 -31.6169 -31.6162 -31.6161
   -31.6004 -31.6002 -31.5988 -31.5985 -31.5714 -31.5712 -31.5706 -31.5704
    -8.2123  -8.2122  -8.1909  -8.1908   4.2602   4.2603   4.2711   4.2712
     5.7433   5.7436   5.7966   5.7969   7.0646   7.0648   7.0818   7.0820

          k = 0.2482 0.0000 0.0000 (  5158 PWs)   bands (ev):

   -64.8317 -64.8251 -64.8235 -64.8229 -31.6247 -31.6229 -31.6190 -31.5982
   -31.5967 -31.5956 -31.5931 -31.5870 -31.5828 -31.5822 -31.5698 -31.5653
    -9.1618  -8.1474  -7.8859  -7.8726   4.0422   4.0657   4.0819   5.8184
     5.8309   6.1801   6.2152   6.5465   6.5870   6.6717   7.4376   7.4601

          k = 0.2482 0.0000 0.2500 (  5149 PWs)   bands (ev):

   -64.8305 -64.8249 -64.8245 -64.8233 -31.6237 -31.6201 -31.6140 -31.6084
   -31.5932 -31.5894 -31.5889 -31.5886 -31.5875 -31.5851 -31.5693 -31.5689
    -8.9712  -8.0785  -8.0655  -7.8825   4.1591   4.1643   4.3442   5.0701
     5.8674   6.0294   6.0621   6.5058   6.5151   6.5617   7.1574   7.5073

          k = 0.2482 0.0000-0.5000 (  5140 PWs)   bands (ev):

   -64.8278 -64.8273 -64.8243 -64.8237 -31.6185 -31.6183 -31.6095 -31.6094
   -31.6002 -31.5999 -31.5841 -31.5840 -31.5796 -31.5793 -31.5776 -31.5774
    -8.5134  -8.5131  -7.9507  -7.9506   4.4279   4.4281   4.7669   4.7672
     5.1089   5.1093   6.5265   6.5268   6.5578   6.5581   7.1062   7.1062

          k = 0.2482 0.2518 0.0000 (  5148 PWs)   bands (ev):

   -64.8305 -64.8249 -64.8244 -64.8234 -31.6239 -31.6180 -31.6161 -31.6067
   -31.5938 -31.5918 -31.5916 -31.5886 -31.5851 -31.5819 -31.5739 -31.5660
    -8.9676  -8.0780  -8.0516  -7.8913   4.1548   4.1675   4.3268   5.0710
     5.8459   6.0210   6.0887   6.4712   6.4946   6.5864   7.1735   7.5042

          k = 0.2482 0.2518 0.2500 (  5154 PWs)   bands (ev):

   -64.8295 -64.8249 -64.8247 -64.8240 -31.6259 -31.6238 -31.6227 -31.6050
   -31.5934 -31.5926 -31.5919 -31.5855 -31.5816 -31.5793 -31.5732 -31.5667
    -8.7977  -8.0411  -8.0319  -8.0223   3.9971   3.9994   4.0029   5.0883
     5.8342   5.8447   5.8558   6.6841   6.7059   6.7252   7.3522   7.3567

          k = 0.2482 0.2518-0.5000 (  5146 PWs)   bands (ev):

   -64.8273 -64.8268 -64.8248 -64.8242 -31.6271 -31.6271 -31.6203 -31.6201
   -31.5926 -31.5924 -31.5802 -31.5799 -31.5785 -31.5785 -31.5730 -31.5728
    -8.4006  -8.4003  -7.9982  -7.9981   3.8209   3.8211   4.1972   4.1975
     5.8289   5.8291   6.7388   6.7391   6.8678   6.8686   7.0159   7.0162

          k = 0.2482-0.5036 0.0000 (  5148 PWs)   bands (ev):

   -64.8278 -64.8272 -64.8244 -64.8238 -31.6184 -31.6172 -31.6084 -31.6073
   -31.6059 -31.6041 -31.5852 -31.5837 -31.5802 -31.5797 -31.5756 -31.5751
    -8.5197  -8.4853  -7.9559  -7.9487   4.4059   4.4296   4.7314   4.7593
     5.0793   5.1389   6.5150   6.5344   6.5373   6.5784   7.0952   7.1067

          k = 0.2482-0.5036 0.2500 (  5136 PWs)   bands (ev):

   -64.8273 -64.8267 -64.8249 -64.8243 -31.6274 -31.6272 -31.6196 -31.6193
   -31.5939 -31.5937 -31.5803 -31.5795 -31.5764 -31.5763 -31.5739 -31.5734
    -8.4082  -8.3789  -8.0007  -8.0003   3.8191   3.8194   4.1719   4.2007
     5.8297   5.8307   6.7334   6.7339   6.8717   6.8845   6.9900   7.0173

          k = 0.2482-0.5036-0.5000 (  5132 PWs)   bands (ev):

   -64.8261 -64.8260 -64.8260 -64.8250 -31.6302 -31.6299 -31.6299 -31.6298
   -31.5853 -31.5851 -31.5847 -31.5844 -31.5710 -31.5708 -31.5705 -31.5703
    -8.1741  -8.1740  -8.1588  -8.1587   3.6236   3.6238   3.6381   3.6383
     6.4993   6.4996   6.5306   6.5309   7.0678   7.0680   7.0799   7.0801

          k =-0.4965 0.0000 0.0000 (  5150 PWs)   bands (ev):

   -64.8287 -64.8281 -64.8235 -64.8229 -31.6102 -31.6083 -31.6070 -31.6049
   -31.6047 -31.6027 -31.5966 -31.5966 -31.5789 -31.5778 -31.5755 -31.5743
    -8.6788  -8.6403  -7.8529  -7.8523   4.7977   4.8165   4.8574   4.8761
     5.1177   5.1392   6.0074   6.0077   6.9459   6.9794   6.9826   7.0152

          k =-0.4965 0.0000 0.2500 (  5152 PWs)   bands (ev):

   -64.8279 -64.8273 -64.8242 -64.8237 -31.6177 -31.6167 -31.6120 -31.6107
   -31.6017 -31.5999 -31.5868 -31.5861 -31.5796 -31.5783 -31.5755 -31.5752
    -8.5382  -8.5043  -7.9498  -7.9426   4.4154   4.4398   4.7597   4.7847
     5.0668   5.1244   6.5348   6.5578   6.5593   6.5964   7.0931   7.1028

          k =-0.4965 0.0000-0.5000 (  5192 PWs)   bands (ev):

   -64.8262 -64.8260 -64.8259 -64.8250 -31.6196 -31.6194 -31.6187 -31.6186
   -31.5917 -31.5914 -31.5903 -31.5900 -31.5783 -31.5781 -31.5775 -31.5774
    -8.2224  -8.2222  -8.2007  -8.2005   4.3148   4.3149   4.3241   4.3243
     5.7395   5.7398   5.7912   5.7916   7.0422   7.0424   7.0606   7.0608

          k =-0.4965 0.2518 0.0000 (  5152 PWs)   bands (ev):

   -64.8279 -64.8274 -64.8242 -64.8237 -31.6157 -31.6148 -31.6115 -31.6102
   -31.6068 -31.6051 -31.5845 -31.5838 -31.5834 -31.5822 -31.5717 -31.5714
    -8.5359  -8.5021  -7.9464  -7.9402   4.4065   4.4306   4.7430   4.7684
     5.0519   5.1097   6.5574   6.5737   6.5780   6.6155   7.0800   7.0903

          k =-0.4965 0.2518 0.2500 (  5140 PWs)   bands (ev):

   -64.8274 -64.8269 -64.8247 -64.8242 -31.6269 -31.6268 -31.6209 -31.6204
   -31.5900 -31.5897 -31.5823 -31.5820 -31.5784 -31.5783 -31.5733 -31.5724
    -8.4214  -8.3925  -7.9960  -7.9956   3.8223   3.8225   4.1952   4.2222
     5.8279   5.8289   6.7446   6.7450   6.8524   6.8628   7.0142   7.0403

          k =-0.4965 0.2518-0.5000 (  5144 PWs)   bands (ev):

   -64.8261 -64.8260 -64.8260 -64.8250 -31.6311 -31.6309 -31.6308 -31.6306
   -31.5795 -31.5792 -31.5792 -31.5790 -31.5761 -31.5759 -31.5758 -31.5758
    -8.1793  -8.1791  -8.1637  -8.1636   3.6418   3.6420   3.6559   3.6561
     6.5176   6.5178   6.5471   6.5473   7.0461   7.0463   7.0591   7.0593

          k =-0.4965-0.5036 0.0000 (  5188 PWs)   bands (ev):

   -64.8262 -64.8260 -64.8259 -64.8250 -31.6187 -31.6178 -31.6176 -31.6171
   -31.5975 -31.5960 -31.5958 -31.5943 -31.5750 -31.5744 -31.5740 -31.5736
    -8.2281  -8.2064  -8.2056  -8.1850   4.2829   4.2923   4.2935   4.3032
     5.7137   5.7656   5.7675   5.8188   7.0441   7.0623   7.0625   7.0796

          k =-0.4965-0.5036 0.2500 (  5152 PWs)   bands (ev):

   -64.8262 -64.8260 -64.8259 -64.8250 -31.6311 -31.6308 -31.6307 -31.6306
   -31.5835 -31.5830 -31.5827 -31.5823 -31.5733 -31.5730 -31.5727 -31.5725
    -8.1846  -8.1688  -8.1682  -8.1537   3.6257   3.6393   3.6403   3.6542
     6.4927   6.5229   6.5241   6.5536   7.0503   7.0634   7.0635   7.0755

          k =-0.4965-0.5036-0.5000 (  5136 PWs)   bands (ev):

   -64.8261 -64.8260 -64.8260 -64.8250 -31.6387 -31.6385 -31.6385 -31.6384
   -31.5773 -31.5771 -31.5771 -31.5770 -31.5703 -31.5701 -31.5701 -31.5699
    -8.1311  -8.1310  -8.1305  -8.1304   3.2170   3.2171   3.2173   3.2174
     7.0517   7.0518   7.0523   7.0524   7.0759   7.0760   7.0764   7.0765

          k = 0.0000-0.2518 0.2500 (  5157 PWs)   bands (ev):

   -64.8305 -64.8248 -64.8244 -64.8235 -31.6223 -31.6197 -31.6162 -31.6040
   -31.5981 -31.5972 -31.5897 -31.5850 -31.5830 -31.5820 -31.5784 -31.5647
    -8.9639  -8.0647  -8.0513  -7.9004   4.1555   4.1627   4.3122   5.0710
     5.8256   6.0467   6.0819   6.4512   6.4636   6.6073   7.1884   7.5018

          k =-0.2482 0.0000 0.2500 (  5149 PWs)   bands (ev):

   -64.8305 -64.8249 -64.8245 -64.8233 -31.6237 -31.6201 -31.6140 -31.6084
   -31.5932 -31.5894 -31.5889 -31.5886 -31.5875 -31.5851 -31.5693 -31.5689
    -8.9712  -8.0785  -8.0655  -7.8825   4.1591   4.1643   4.3442   5.0701
     5.8674   6.0294   6.0621   6.5058   6.5151   6.5617   7.1574   7.5073

          k =-0.2482 0.2518 0.0000 (  5148 PWs)   bands (ev):

   -64.8305 -64.8249 -64.8244 -64.8234 -31.6239 -31.6180 -31.6161 -31.6066
   -31.5938 -31.5918 -31.5916 -31.5886 -31.5851 -31.5819 -31.5739 -31.5660
    -8.9676  -8.0780  -8.0516  -7.8913   4.1548   4.1675   4.3268   5.0710
     5.8459   6.0210   6.0887   6.4712   6.4946   6.5864   7.1735   7.5042

          k =-0.2482-0.2518 0.2500 (  5154 PWs)   bands (ev):

   -64.8295 -64.8249 -64.8247 -64.8240 -31.6259 -31.6238 -31.6227 -31.6050
   -31.5934 -31.5926 -31.5919 -31.5855 -31.5816 -31.5793 -31.5732 -31.5667
    -8.7977  -8.0411  -8.0319  -8.0223   3.9971   3.9994   4.0029   5.0883
     5.8342   5.8447   5.8558   6.6841   6.7059   6.7252   7.3522   7.3567

          k =-0.2482 0.2518-0.2500 (  5154 PWs)   bands (ev):

   -64.8295 -64.8249 -64.8247 -64.8240 -31.6260 -31.6238 -31.6227 -31.6049
   -31.5934 -31.5927 -31.5919 -31.5855 -31.5816 -31.5793 -31.5732 -31.5667
    -8.7977  -8.0411  -8.0319  -8.0223   3.9971   3.9994   4.0029   5.0883
     5.8342   5.8447   5.8558   6.6841   6.7059   6.7252   7.3522   7.3567

          k = 0.2482-0.2518-0.2500 (  5154 PWs)   bands (ev):

   -64.8295 -64.8249 -64.8247 -64.8240 -31.6260 -31.6238 -31.6227 -31.6049
   -31.5934 -31.5927 -31.5919 -31.5855 -31.5816 -31.5793 -31.5732 -31.5667
    -8.7977  -8.0411  -8.0319  -8.0223   3.9971   3.9994   4.0029   5.0883
     5.8342   5.8447   5.8558   6.6841   6.7059   6.7252   7.3522   7.3567

          k =-0.2482 0.2518 0.5000 (  5146 PWs)   bands (ev):

   -64.8273 -64.8268 -64.8248 -64.8242 -31.6273 -31.6270 -31.6202 -31.6202
   -31.5926 -31.5924 -31.5801 -31.5800 -31.5786 -31.5784 -31.5730 -31.5728
    -8.4006  -8.4003  -7.9982  -7.9981   3.8208   3.8212   4.1972   4.1974
     5.8289   5.8291   6.7389   6.7390   6.8679   6.8684   7.0159   7.0162

          k =-0.2482 0.5036 0.2500 (  5136 PWs)   bands (ev):

   -64.8273 -64.8267 -64.8249 -64.8243 -31.6274 -31.6272 -31.6196 -31.6193
   -31.5939 -31.5937 -31.5803 -31.5795 -31.5764 -31.5763 -31.5739 -31.5734
    -8.4082  -8.3789  -8.0007  -8.0003   3.8191   3.8194   4.1719   4.2007
     5.8297   5.8307   6.7334   6.7339   6.8717   6.8845   6.9900   7.0173

          k = 0.4965-0.2518 0.2500 (  5140 PWs)   bands (ev):

   -64.8274 -64.8269 -64.8247 -64.8242 -31.6269 -31.6268 -31.6209 -31.6204
   -31.5900 -31.5897 -31.5823 -31.5820 -31.5784 -31.5783 -31.5733 -31.5724
    -8.4214  -8.3925  -7.9960  -7.9956   3.8223   3.8225   4.1952   4.2222
     5.8279   5.8289   6.7446   6.7450   6.8524   6.8628   7.0142   7.0403

     highest occupied level (ev):     7.6866

!    total energy              =    -608.39199844 Ry
     Harris-Foulkes estimate   =    -608.39199844 Ry
     estimated scf accuracy    <          3.4E-09 Ry

     The total energy is the sum of the following terms:

     one-electron contribution =    -303.67880835 Ry
     hartree contribution      =     168.12999758 Ry
     xc contribution           =     -97.84817653 Ry
     ewald contribution        =    -374.99501114 Ry

     convergence has been achieved in   9 iterations

     Forces acting on atoms (cartesian axes, Ry/au):

     atom    1 type  1   force =    -0.00358070    0.00425658   -0.00002779
     atom    2 type  1   force =    -0.00358240   -0.00420963    0.00002714
     atom    3 type  1   force =     0.00352990    0.00425948    0.00002729
     atom    4 type  1   force =     0.00346153   -0.00414915   -0.00002791
     atom    5 type  2   force =     0.00421348    0.00478943   -0.00003197
     atom    6 type  2   force =    -0.00413630   -0.00485989   -0.00003208
     atom    7 type  2   force =    -0.00413561    0.00478893    0.00003248
     atom    8 type  2   force =     0.00423009   -0.00487575    0.00003284

     Total force =     0.016865     Total SCF correction =     0.000063


     Computing stress (Cartesian axis) and pressure

          total   stress  (Ry/bohr**3)                   (kbar)     P=  -67.37
  -0.00054140   0.00000002  -0.00000000        -79.64      0.00     -0.00
   0.00000002  -0.00036809   0.00000000          0.00    -54.15      0.00
  -0.00000000   0.00000000  -0.00046440         -0.00      0.00    -68.32


     BFGS Geometry Optimization

     number of scf cycles    =   1
     number of bfgs steps    =   0

     energy   new            =    -608.3919984393 Ry

     new trust radius        =       0.0064550524 bohr
     new conv_thr            =       0.0000000100 Ry


ATOMIC_POSITIONS (alat)
Mg      -0.000445098   0.000529113  -0.000003455
Mg      -0.000445309   0.499476723   0.500003374
Mg       0.500438783   0.000529473   0.500003392
Mg       0.500430284   0.499484241  -0.000003469
O        0.500523756   0.000595349  -0.000003974
O       -0.000514161   0.499395893  -0.000003988
O       -0.000514075   0.000595287   0.500004038
O        0.500525820   0.499393922   0.500004082



     Writing output data file diamond.1.007143.70.4.save
     NEW-OLD atomic charge density approx. for the potential

     Check: negative/imaginary core charge=   -0.000007    0.000000

     total cpu time spent up to now is       15.2 secs

     per-process dynamical memory:    56.2 Mb

     Self-consistent Calculation

     iteration #  1     ecut=    70.00 Ry     beta=0.70
     Davidson diagonalization with overlap
     ethr =  1.00E-06,  avg # of iterations =  3.0

     Threshold (ethr) on eigenvalues was too large:
     Diagonalizing with lowered threshold

     Davidson diagonalization with overlap
     ethr =  8.32E-08,  avg # of iterations =  1.1

     total cpu time spent up to now is       18.8 secs

     total energy              =    -608.39222097 Ry
     Harris-Foulkes estimate   =    -608.39225985 Ry
     estimated scf accuracy    <       0.00005294 Ry

     iteration #  2     ecut=    70.00 Ry     beta=0.70
     Davidson diagonalization with overlap
     ethr =  8.27E-08,  avg # of iterations =  2.2

     total cpu time spent up to now is       20.3 secs

     total energy              =    -608.39223709 Ry
     Harris-Foulkes estimate   =    -608.39224263 Ry
     estimated scf accuracy    <       0.00000921 Ry

     iteration #  3     ecut=    70.00 Ry     beta=0.70
     Davidson diagonalization with overlap
     ethr =  1.44E-08,  avg # of iterations =  2.0

     total cpu time spent up to now is       21.7 secs

     total energy              =    -608.39223907 Ry
     Harris-Foulkes estimate   =    -608.39223905 Ry
     estimated scf accuracy    <       0.00000006 Ry

     iteration #  4     ecut=    70.00 Ry     beta=0.70
     Davidson diagonalization with overlap
     ethr =  9.50E-11,  avg # of iterations =  2.8

     total cpu time spent up to now is       23.5 secs

     End of self-consistent calculation

          k = 0.0000 0.0000 0.0000 (  5149 PWs)   bands (ev):

   -64.8337 -64.8243 -64.8240 -64.8234 -31.6337 -31.6302 -31.6255 -31.5970
   -31.5953 -31.5935 -31.5909 -31.5897 -31.5881 -31.5697 -31.5631 -31.5592
    -9.3657  -7.9335  -7.9148  -7.8962   3.7348   3.7569   3.7824   6.3287
     6.3358   6.3729   6.3856   6.4245   6.4301   7.6546   7.6723   7.6868

          k = 0.0000 0.0000 0.2500 (  5153 PWs)   bands (ev):

   -64.8322 -64.8254 -64.8242 -64.8235 -31.6278 -31.6199 -31.6192 -31.6023
   -31.5944 -31.5924 -31.5917 -31.5914 -31.5845 -31.5773 -31.5744 -31.5663
    -9.1573  -8.1296  -7.8997  -7.8732   4.0265   4.0707   4.0943   5.8461
     5.8688   6.1350   6.2044   6.5022   6.5843   6.6587   7.4276   7.4715

          k = 0.0000 0.0000-0.5000 (  5126 PWs)   bands (ev):

   -64.8290 -64.8285 -64.8242 -64.8236 -31.6146 -31.6143 -31.6050 -31.6047
   -31.6005 -31.6005 -31.5906 -31.5906 -31.5830 -31.5828 -31.5759 -31.5756
    -8.6471  -8.6469  -7.8577  -7.8577   4.8287   4.8290   4.8649   4.8652
     5.1226   5.1229   5.9723   5.9726   6.9351   6.9353   7.0011   7.0012

          k = 0.0000 0.2518 0.0000 (  5165 PWs)   bands (ev):

   -64.8322 -64.8252 -64.8243 -64.8237 -31.6275 -31.6233 -31.6167 -31.6010
   -31.5960 -31.5933 -31.5897 -31.5892 -31.5882 -31.5754 -31.5734 -31.5709
    -9.1532  -8.1117  -7.9001  -7.8868   4.0313   4.0521   4.1066   5.8861
     5.8965   6.1251   6.1594   6.4970   6.5384   6.6431   7.4403   7.4611

          k = 0.0000 0.2518 0.2500 (  5157 PWs)   bands (ev):

   -64.8310 -64.8253 -64.8250 -64.8241 -31.6227 -31.6201 -31.6165 -31.6044
   -31.5985 -31.5976 -31.5901 -31.5856 -31.5834 -31.5825 -31.5788 -31.5652
    -8.9635  -8.0645  -8.0513  -7.9003   4.1559   4.1628   4.3124   5.0711
     5.8257   6.0471   6.0817   6.4514   6.4634   6.6070   7.1883   7.5019

          k = 0.0000 0.2518-0.5000 (  5142 PWs)   bands (ev):

   -64.8283 -64.8278 -64.8249 -64.8243 -31.6141 -31.6139 -31.6106 -31.6104
   -31.6082 -31.6081 -31.5881 -31.5878 -31.5811 -31.5810 -31.5710 -31.5708
    -8.5085  -8.5083  -7.9454  -7.9453   4.4079   4.4080   4.7334   4.7336
     5.0838   5.0841   6.5614   6.5616   6.5993   6.5995   7.0810   7.0811

          k = 0.0000-0.5036 0.0000 (  5126 PWs)   bands (ev):

   -64.8289 -64.8284 -64.8243 -64.8237 -31.6146 -31.6133 -31.6094 -31.6079
   -31.5971 -31.5953 -31.5874 -31.5873 -31.5840 -31.5831 -31.5805 -31.5795
    -8.6475  -8.6212  -7.8626  -7.8622   4.8276   4.8449   4.8690   4.8864
     5.1073   5.1245   5.9361   5.9364   6.9257   6.9514   6.9588   6.9838

          k = 0.0000-0.5036 0.2500 (  5140 PWs)   bands (ev):

   -64.8283 -64.8277 -64.8249 -64.8244 -31.6160 -31.6152 -31.6105 -31.6093
   -31.6072 -31.6063 -31.5895 -31.5885 -31.5790 -31.5787 -31.5726 -31.5725
    -8.5115  -8.4884  -7.9518  -7.9476   4.3990   4.4150   4.7189   4.7376
     5.0784   5.1185   6.5330   6.5485   6.5655   6.5941   7.0847   7.0930

          k = 0.0000-0.5036-0.5000 (  5160 PWs)   bands (ev):

   -64.8267 -64.8265 -64.8265 -64.8256 -31.6173 -31.6171 -31.6167 -31.6166
   -31.6007 -31.6004 -31.5995 -31.5992 -31.5717 -31.5715 -31.5711 -31.5710
    -8.2086  -8.2085  -8.1942  -8.1941   4.2622   4.2624   4.2693   4.2695
     5.7519   5.7521   5.7878   5.7881   7.0676   7.0678   7.0791   7.0793

          k = 0.2482 0.0000 0.0000 (  5158 PWs)   bands (ev):

   -64.8323 -64.8256 -64.8240 -64.8235 -31.6251 -31.6234 -31.6194 -31.5986
   -31.5971 -31.5960 -31.5935 -31.5875 -31.5832 -31.5827 -31.5703 -31.5658
    -9.1614  -8.1473  -7.8857  -7.8725   4.0427   4.0658   4.0820   5.8184
     5.8306   6.1804   6.2155   6.5464   6.5871   6.6719   7.4376   7.4600

          k = 0.2482 0.0000 0.2500 (  5149 PWs)   bands (ev):

   -64.8310 -64.8254 -64.8250 -64.8238 -31.6241 -31.6205 -31.6144 -31.6088
   -31.5937 -31.5898 -31.5893 -31.5891 -31.5880 -31.5856 -31.5698 -31.5693
    -8.9708  -8.0784  -8.0653  -7.8824   4.1592   4.1647   4.3443   5.0703
     5.8675   6.0293   6.0624   6.5057   6.5161   6.5607   7.1573   7.5074

          k = 0.2482 0.0000-0.5000 (  5140 PWs)   bands (ev):

   -64.8283 -64.8279 -64.8249 -64.8243 -31.6189 -31.6187 -31.6098 -31.6098
   -31.6007 -31.6004 -31.5845 -31.5844 -31.5801 -31.5798 -31.5781 -31.5779
    -8.5130  -8.5128  -7.9506  -7.9506   4.4282   4.4283   4.7673   4.7675
     5.1089   5.1091   6.5290   6.5292   6.5554   6.5556   7.1060   7.1061

          k = 0.2482 0.2518 0.0000 (  5148 PWs)   bands (ev):

   -64.8310 -64.8254 -64.8249 -64.8240 -31.6243 -31.6184 -31.6165 -31.6071
   -31.5943 -31.5922 -31.5921 -31.5892 -31.5855 -31.5824 -31.5744 -31.5665
    -8.9671  -8.0779  -8.0516  -7.8911   4.1549   4.1676   4.3274   5.0709
     5.8462   6.0211   6.0888   6.4717   6.4951   6.5853   7.1733   7.5044

          k = 0.2482 0.2518 0.2500 (  5154 PWs)   bands (ev):

   -64.8300 -64.8254 -64.8253 -64.8246 -31.6263 -31.6242 -31.6231 -31.6053
   -31.5938 -31.5931 -31.5924 -31.5860 -31.5820 -31.5798 -31.5737 -31.5671
    -8.7973  -8.0410  -8.0317  -8.0222   3.9972   3.9997   4.0030   5.0884
     5.8342   5.8448   5.8558   6.6842   6.7056   6.7253   7.3522   7.3567

          k = 0.2482 0.2518-0.5000 (  5146 PWs)   bands (ev):

   -64.8278 -64.8274 -64.8254 -64.8247 -31.6276 -31.6275 -31.6207 -31.6205
   -31.5931 -31.5929 -31.5806 -31.5804 -31.5790 -31.5790 -31.5735 -31.5733
    -8.4002  -8.4000  -7.9981  -7.9981   3.8211   3.8212   4.1972   4.1975
     5.8290   5.8291   6.7393   6.7396   6.8678   6.8683   7.0157   7.0158

          k = 0.2482-0.5036 0.0000 (  5148 PWs)   bands (ev):

   -64.8283 -64.8277 -64.8249 -64.8244 -31.6186 -31.6178 -31.6086 -31.6078
   -31.6061 -31.6048 -31.5854 -31.5843 -31.5805 -31.5802 -31.5760 -31.5757
    -8.5138  -8.4906  -7.9546  -7.9498   4.4097   4.4258   4.7361   4.7547
     5.0894   5.1295   6.5188   6.5337   6.5415   6.5711   7.0970   7.1048

          k = 0.2482-0.5036 0.2500 (  5136 PWs)   bands (ev):

   -64.8278 -64.8273 -64.8254 -64.8248 -31.6278 -31.6276 -31.6199 -31.6197
   -31.5943 -31.5941 -31.5806 -31.5800 -31.5769 -31.5768 -31.5743 -31.5739
    -8.4031  -8.3834  -8.0005  -8.0002   3.8193   3.8194   4.1767   4.1959
     5.8301   5.8307   6.7335   6.7339   6.8737   6.8825   6.9944   7.0128

          k = 0.2482-0.5036-0.5000 (  5132 PWs)   bands (ev):

   -64.8266 -64.8265 -64.8265 -64.8256 -31.6306 -31.6303 -31.6303 -31.6303
   -31.5857 -31.5855 -31.5852 -31.5850 -31.5714 -31.5712 -31.5710 -31.5709
    -8.1714  -8.1713  -8.1611  -8.1610   3.6261   3.6262   3.6357   3.6358
     6.5045   6.5047   6.5256   6.5257   7.0699   7.0701   7.0780   7.0782

          k =-0.4965 0.0000 0.0000 (  5150 PWs)   bands (ev):

   -64.8292 -64.8286 -64.8240 -64.8235 -31.6104 -31.6089 -31.6069 -31.6053
   -31.6052 -31.6036 -31.5970 -31.5970 -31.5793 -31.5784 -31.5758 -31.5749
    -8.6731  -8.6455  -7.8527  -7.8522   4.8063   4.8248   4.8494   4.8678
     5.1207   5.1360   6.0078   6.0080   6.9509   6.9772   6.9845   7.0101

          k =-0.4965 0.0000 0.2500 (  5152 PWs)   bands (ev):

   -64.8284 -64.8279 -64.8248 -64.8242 -31.6180 -31.6172 -31.6122 -31.6112
   -31.6020 -31.6007 -31.5871 -31.5866 -31.5799 -31.5789 -31.5759 -31.5757
    -8.5333  -8.5088  -7.9486  -7.9435   4.4190   4.4367   4.7636   4.7813
     5.0744   5.1161   6.5415   6.5580   6.5600   6.5889   7.0945   7.1015

          k =-0.4965 0.0000-0.5000 (  5192 PWs)   bands (ev):

   -64.8267 -64.8265 -64.8265 -64.8256 -31.6199 -31.6197 -31.6192 -31.6191
   -31.5920 -31.5917 -31.5909 -31.5906 -31.5786 -31.5785 -31.5780 -31.5779
    -8.2191  -8.2190  -8.2035  -8.2034   4.3164   4.3165   4.3229   4.3230
     5.7466   5.7468   5.7838   5.7841   7.0450   7.0452   7.0581   7.0583

          k =-0.4965 0.2518 0.0000 (  5152 PWs)   bands (ev):

   -64.8284 -64.8279 -64.8248 -64.8242 -31.6160 -31.6153 -31.6118 -31.6108
   -31.6070 -31.6057 -31.5849 -31.5843 -31.5838 -31.5828 -31.5721 -31.5719
    -8.5309  -8.5065  -7.9455  -7.9410   4.4098   4.4273   4.7468   4.7647
     5.0603   5.1020   6.5605   6.5753   6.5795   6.6095   7.0813   7.0888

          k =-0.4965 0.2518 0.2500 (  5140 PWs)   bands (ev):

   -64.8279 -64.8274 -64.8253 -64.8247 -31.6273 -31.6272 -31.6212 -31.6209
   -31.5905 -31.5902 -31.5827 -31.5825 -31.5789 -31.5788 -31.5736 -31.5730
    -8.4171  -8.3963  -7.9958  -7.9955   3.8224   3.8226   4.1991   4.2183
     5.8282   5.8289   6.7448   6.7452   6.8538   6.8613   7.0178   7.0365

          k =-0.4965 0.2518-0.5000 (  5144 PWs)   bands (ev):

   -64.8266 -64.8265 -64.8265 -64.8256 -31.6315 -31.6312 -31.6312 -31.6311
   -31.5799 -31.5797 -31.5796 -31.5794 -31.5766 -31.5763 -31.5763 -31.5763
    -8.1769  -8.1768  -8.1657  -8.1656   3.6439   3.6440   3.6539   3.6540
     6.5218   6.5219   6.5430   6.5432   7.0481   7.0483   7.0574   7.0576

          k =-0.4965-0.5036 0.0000 (  5188 PWs)   bands (ev):

   -64.8267 -64.8266 -64.8264 -64.8256 -31.6188 -31.6183 -31.6180 -31.6176
   -31.5975 -31.5964 -31.5963 -31.5952 -31.5753 -31.5749 -31.5746 -31.5742
    -8.2212  -8.2062  -8.2057  -8.1912   4.2862   4.2927   4.2932   4.2998
     5.7298   5.7660   5.7672   5.8031   7.0498   7.0620   7.0626   7.0743

          k =-0.4965-0.5036 0.2500 (  5152 PWs)   bands (ev):

   -64.8267 -64.8266 -64.8265 -64.8256 -31.6314 -31.6312 -31.6311 -31.6311
   -31.5838 -31.5834 -31.5833 -31.5829 -31.5737 -31.5734 -31.5732 -31.5730
    -8.1795  -8.1687  -8.1683  -8.1580   3.6301   3.6398   3.6399   3.6497
     6.5022   6.5232   6.5239   6.5445   7.0544   7.0631   7.0637   7.0718

          k =-0.4965-0.5036-0.5000 (  5136 PWs)   bands (ev):

   -64.8266 -64.8266 -64.8265 -64.8256 -31.6391 -31.6389 -31.6388 -31.6388
   -31.5778 -31.5776 -31.5776 -31.5774 -31.5708 -31.5705 -31.5705 -31.5704
    -8.1307  -8.1307  -8.1304  -8.1303   3.2171   3.2172   3.2172   3.2173
     7.0520   7.0521   7.0523   7.0524   7.0761   7.0762   7.0764   7.0765

          k = 0.0000-0.2518 0.2500 (  5157 PWs)   bands (ev):

   -64.8310 -64.8253 -64.8250 -64.8241 -31.6227 -31.6201 -31.6165 -31.6044
   -31.5985 -31.5976 -31.5901 -31.5856 -31.5834 -31.5825 -31.5788 -31.5652
    -8.9635  -8.0645  -8.0513  -7.9003   4.1559   4.1628   4.3124   5.0711
     5.8257   6.0471   6.0817   6.4514   6.4634   6.6070   7.1883   7.5019

          k =-0.2482 0.0000 0.2500 (  5149 PWs)   bands (ev):

   -64.8310 -64.8254 -64.8250 -64.8238 -31.6241 -31.6205 -31.6144 -31.6088
   -31.5937 -31.5898 -31.5893 -31.5891 -31.5880 -31.5856 -31.5698 -31.5693
    -8.9708  -8.0784  -8.0653  -7.8824   4.1592   4.1647   4.3443   5.0703
     5.8675   6.0293   6.0624   6.5057   6.5161   6.5607   7.1573   7.5074

          k =-0.2482 0.2518 0.0000 (  5148 PWs)   bands (ev):

   -64.8310 -64.8254 -64.8249 -64.8240 -31.6243 -31.6184 -31.6165 -31.6071
   -31.5943 -31.5921 -31.5921 -31.5891 -31.5855 -31.5823 -31.5744 -31.5665
    -8.9671  -8.0779  -8.0516  -7.8911   4.1549   4.1676   4.3274   5.0709
     5.8462   6.0211   6.0888   6.4717   6.4951   6.5853   7.1733   7.5044

          k =-0.2482-0.2518 0.2500 (  5154 PWs)   bands (ev):

   -64.8300 -64.8254 -64.8253 -64.8246 -31.6263 -31.6242 -31.6231 -31.6053
   -31.5938 -31.5931 -31.5924 -31.5860 -31.5820 -31.5798 -31.5737 -31.5671
    -8.7973  -8.0410  -8.0317  -8.0222   3.9972   3.9997   4.0030   5.0884
     5.8342   5.8448   5.8558   6.6842   6.7056   6.7253   7.3522   7.3567

          k =-0.2482 0.2518-0.2500 (  5154 PWs)   bands (ev):

   -64.8300 -64.8254 -64.8253 -64.8246 -31.6264 -31.6242 -31.6231 -31.6053
   -31.5938 -31.5931 -31.5924 -31.5860 -31.5821 -31.5798 -31.5737 -31.5671
    -8.7973  -8.0410  -8.0317  -8.0222   3.9972   3.9997   4.0030   5.0884
     5.8342   5.8448   5.8558   6.6842   6.7056   6.7253   7.3522   7.3567

          k = 0.2482-0.2518-0.2500 (  5154 PWs)   bands (ev):

   -64.8300 -64.8254 -64.8253 -64.8246 -31.6264 -31.6242 -31.6231 -31.6053
   -31.5938 -31.5931 -31.5924 -31.5860 -31.5821 -31.5798 -31.5737 -31.5671
    -8.7973  -8.0410  -8.0317  -8.0222   3.9972   3.9997   4.0030   5.0884
     5.8342   5.8448   5.8558   6.6842   6.7056   6.7253   7.3522   7.3567

          k =-0.2482 0.2518 0.5000 (  5146 PWs)   bands (ev):

   -64.8278 -64.8274 -64.8254 -64.8247 -31.6277 -31.6274 -31.6206 -31.6206
   -31.5931 -31.5928 -31.5806 -31.5804 -31.5791 -31.5789 -31.5735 -31.5733
    -8.4002  -8.4001  -7.9981  -7.9981   3.8210   3.8212   4.1973   4.1974
     5.8290   5.8291   6.7394   6.7396   6.8679   6.8681   7.0157   7.0158

          k =-0.2482 0.5036 0.2500 (  5136 PWs)   bands (ev):

   -64.8278 -64.8273 -64.8254 -64.8248 -31.6278 -31.6276 -31.6199 -31.6197
   -31.5943 -31.5941 -31.5806 -31.5800 -31.5769 -31.5768 -31.5743 -31.5739
    -8.4031  -8.3834  -8.0005  -8.0002   3.8193   3.8194   4.1767   4.1959
     5.8301   5.8307   6.7335   6.7339   6.8737   6.8825   6.9944   7.0128

          k = 0.4965-0.2518 0.2500 (  5140 PWs)   bands (ev):

   -64.8279 -64.8274 -64.8253 -64.8247 -31.6273 -31.6272 -31.6212 -31.6209
   -31.5905 -31.5902 -31.5827 -31.5825 -31.5789 -31.5788 -31.5736 -31.5730
    -8.4171  -8.3963  -7.9958  -7.9955   3.8224   3.8226   4.1991   4.2183
     5.8282   5.8289   6.7448   6.7452   6.8538   6.8613   7.0178   7.0365

     highest occupied level (ev):     7.6868

!    total energy              =    -608.39223909 Ry
     Harris-Foulkes estimate   =    -608.39223909 Ry
     estimated scf accuracy    <          9.7E-09 Ry

     The total energy is the sum of the following terms:

     one-electron contribution =    -303.63659892 Ry
     hartree contribution      =     168.10891335 Ry
     xc contribution           =     -97.84785122 Ry
     ewald contribution        =    -375.01670229 Ry

     convergence has been achieved in   4 iterations

     Forces acting on atoms (cartesian axes, Ry/au):

     atom    1 type  1   force =    -0.00262683    0.00290739   -0.00001972
     atom    2 type  1   force =    -0.00269622   -0.00293631    0.00001957
     atom    3 type  1   force =     0.00263959    0.00298958    0.00001959
     atom    4 type  1   force =     0.00260216   -0.00290511   -0.00002019
     atom    5 type  2   force =     0.00293475    0.00317056   -0.00002158
     atom    6 type  2   force =    -0.00290113   -0.00319125   -0.00002157
     atom    7 type  2   force =    -0.00289899    0.00316717    0.00002193
     atom    8 type  2   force =     0.00294666   -0.00320203    0.00002196

     Total force =     0.011705     Total SCF correction =     0.000681


     Computing stress (Cartesian axis) and pressure

          total   stress  (Ry/bohr**3)                   (kbar)     P=  -67.46
  -0.00054245   0.00000001  -0.00000000        -79.80      0.00     -0.00
   0.00000001  -0.00036980   0.00000000          0.00    -54.40      0.00
  -0.00000000   0.00000000  -0.00046356         -0.00      0.00    -68.19


     number of scf cycles    =   2
     number of bfgs steps    =   1

     energy   old            =    -608.3919984394 Ry
     energy   new            =    -608.3922390871 Ry

     CASE: energy  _new < energy  _old

     new trust radius        =       0.0071005577 bohr
     new conv_thr            =       0.0000000024 Ry


ATOMIC_POSITIONS (alat)
Mg      -0.000977709   0.001118787  -0.000007453
Mg      -0.000991934   0.498881238   0.500007342
Mg       0.500973942   0.001135745   0.500007365
Mg       0.500957842   0.498895091  -0.000007564
O        0.501118929   0.001238488  -0.000008350
O       -0.001102498   0.498748534  -0.000008362
O       -0.001101981   0.001237740   0.500008486
O        0.501123408   0.498744376   0.500008536



     Writing output data file diamond.1.007143.70.4.save
     NEW-OLD atomic charge density approx. for the potential

     Check: negative/imaginary core charge=   -0.000007    0.000000

     total cpu time spent up to now is       24.3 secs

     per-process dynamical memory:    56.2 Mb

     Self-consistent Calculation

     iteration #  1     ecut=    70.00 Ry     beta=0.70
     Davidson diagonalization with overlap
     ethr =  1.00E-06,  avg # of iterations =  3.0

     total cpu time spent up to now is       26.7 secs

     total energy              =    -608.39238423 Ry
     Harris-Foulkes estimate   =    -608.39243263 Ry
     estimated scf accuracy    <       0.00006604 Ry

     iteration #  2     ecut=    70.00 Ry     beta=0.70
     Davidson diagonalization with overlap
     ethr =  1.03E-07,  avg # of iterations =  2.3

     total cpu time spent up to now is       28.2 secs

     total energy              =    -608.39240479 Ry
     Harris-Foulkes estimate   =    -608.39241187 Ry
     estimated scf accuracy    <       0.00001181 Ry

     iteration #  3     ecut=    70.00 Ry     beta=0.70
     Davidson diagonalization with overlap
     ethr =  1.85E-08,  avg # of iterations =  2.0

     total cpu time spent up to now is       29.6 secs

     total energy              =    -608.39240732 Ry
     Harris-Foulkes estimate   =    -608.39240729 Ry
     estimated scf accuracy    <       0.00000008 Ry

     iteration #  4     ecut=    70.00 Ry     beta=0.70
     Davidson diagonalization with overlap
     ethr =  1.26E-10,  avg # of iterations =  2.8

     total cpu time spent up to now is       31.4 secs

     total energy              =    -608.39240734 Ry
     Harris-Foulkes estimate   =    -608.39240735 Ry
     estimated scf accuracy    <       0.00000001 Ry

     iteration #  5     ecut=    70.00 Ry     beta=0.70
     Davidson diagonalization with overlap
     ethr =  2.32E-11,  avg # of iterations =  2.0

     total cpu time spent up to now is       32.9 secs

     End of self-consistent calculation

          k = 0.0000 0.0000 0.0000 (  5149 PWs)   bands (ev):

   -64.8339 -64.8246 -64.8243 -64.8236 -31.6339 -31.6304 -31.6257 -31.5972
   -31.5955 -31.5937 -31.5911 -31.5899 -31.5883 -31.5699 -31.5634 -31.5594
    -9.3652  -7.9331  -7.9143  -7.8958   3.7350   3.7574   3.7826   6.3291
     6.3360   6.3733   6.3860   6.4247   6.4305   7.6550   7.6725   7.6873

          k = 0.0000 0.0000 0.2500 (  5153 PWs)   bands (ev):

   -64.8325 -64.8256 -64.8244 -64.8238 -31.6279 -31.6201 -31.6193 -31.6025
   -31.5946 -31.5925 -31.5920 -31.5916 -31.5848 -31.5775 -31.5746 -31.5665
    -9.1568  -8.1292  -7.8993  -7.8728   4.0267   4.0709   4.0948   5.8464
     5.8691   6.1356   6.2051   6.5022   6.5843   6.6590   7.4279   7.4718

          k = 0.0000 0.0000-0.5000 (  5126 PWs)   bands (ev):

   -64.8293 -64.8288 -64.8244 -64.8238 -31.6147 -31.6145 -31.6051 -31.6048
   -31.6008 -31.6008 -31.5908 -31.5907 -31.5833 -31.5830 -31.5761 -31.5758
    -8.6466  -8.6465  -7.8574  -7.8573   4.8291   4.8293   4.8653   4.8655
     5.1228   5.1231   5.9730   5.9733   6.9352   6.9353   7.0012   7.0013

          k = 0.0000 0.2518 0.0000 (  5165 PWs)   bands (ev):

   -64.8324 -64.8254 -64.8245 -64.8239 -31.6277 -31.6235 -31.6168 -31.6012
   -31.5962 -31.5935 -31.5899 -31.5895 -31.5883 -31.5756 -31.5736 -31.5711
    -9.1527  -8.1114  -7.8997  -7.8863   4.0316   4.0526   4.1068   5.8861
     5.8968   6.1255   6.1598   6.4973   6.5386   6.6435   7.4405   7.4614

          k = 0.0000 0.2518 0.2500 (  5157 PWs)   bands (ev):

   -64.8312 -64.8255 -64.8252 -64.8243 -31.6229 -31.6203 -31.6167 -31.6046
   -31.5987 -31.5979 -31.5903 -31.5858 -31.5835 -31.5828 -31.5791 -31.5654
    -8.9630  -8.0640  -8.0509  -7.8999   4.1563   4.1631   4.3126   5.0714
     5.8260   6.0475   6.0819   6.4518   6.4636   6.6071   7.1885   7.5022

          k = 0.0000 0.2518-0.5000 (  5142 PWs)   bands (ev):

   -64.8285 -64.8281 -64.8251 -64.8245 -31.6142 -31.6141 -31.6106 -31.6104
   -31.6087 -31.6086 -31.5883 -31.5881 -31.5813 -31.5812 -31.5712 -31.5710
    -8.5079  -8.5078  -7.9450  -7.9449   4.4082   4.4083   4.7338   4.7341
     5.0840   5.0842   6.5629   6.5631   6.5984   6.5985   7.0812   7.0813

          k = 0.0000-0.5036 0.0000 (  5126 PWs)   bands (ev):

   -64.8291 -64.8287 -64.8245 -64.8240 -31.6145 -31.6137 -31.6093 -31.6084
   -31.5969 -31.5959 -31.5875 -31.5874 -31.5841 -31.5836 -31.5805 -31.5799
    -8.6401  -8.6277  -7.8621  -7.8619   4.8387   4.8561   4.8584   4.8759
     5.1121   5.1200   5.9365   5.9368   6.9328   6.9449   6.9656   6.9774

          k = 0.0000-0.5036 0.2500 (  5140 PWs)   bands (ev):

   -64.8285 -64.8280 -64.8252 -64.8246 -31.6160 -31.6155 -31.6103 -31.6096
   -31.6073 -31.6069 -31.5895 -31.5889 -31.5792 -31.5790 -31.5728 -31.5727
    -8.5050  -8.4941  -7.9503  -7.9483   4.4035   4.4113   4.7243   4.7329
     5.0889   5.1080   6.5386   6.5457   6.5720   6.5857   7.0872   7.0912

          k = 0.0000-0.5036-0.5000 (  5160 PWs)   bands (ev):

   -64.8269 -64.8268 -64.8268 -64.8258 -31.6173 -31.6172 -31.6169 -31.6169
   -31.6006 -31.6004 -31.6000 -31.5997 -31.5718 -31.5716 -31.5714 -31.5713
    -8.2044  -8.2043  -8.1976  -8.1975   4.2645   4.2647   4.2676   4.2677
     5.7615   5.7616   5.7786   5.7787   7.0710   7.0712   7.0764   7.0765

          k = 0.2482 0.0000 0.0000 (  5158 PWs)   bands (ev):

   -64.8325 -64.8258 -64.8243 -64.8237 -31.6253 -31.6236 -31.6196 -31.5988
   -31.5973 -31.5962 -31.5937 -31.5877 -31.5834 -31.5829 -31.5705 -31.5660
    -9.1608  -8.1470  -7.8852  -7.8721   4.0432   4.0660   4.0822   5.8186
     5.8307   6.1808   6.2160   6.5466   6.5875   6.6722   7.4378   7.4602

          k = 0.2482 0.0000 0.2500 (  5149 PWs)   bands (ev):

   -64.8313 -64.8257 -64.8253 -64.8241 -31.6243 -31.6207 -31.6145 -31.6090
   -31.5939 -31.5899 -31.5895 -31.5894 -31.5882 -31.5858 -31.5700 -31.5695
    -8.9702  -8.0781  -8.0648  -7.8820   4.1594   4.1651   4.3445   5.0706
     5.8678   6.0294   6.0628   6.5058   6.5171   6.5602   7.1575   7.5078

          k = 0.2482 0.0000-0.5000 (  5140 PWs)   bands (ev):

   -64.8285 -64.8281 -64.8251 -64.8245 -31.6190 -31.6188 -31.6100 -31.6099
   -31.6009 -31.6006 -31.5847 -31.5846 -31.5803 -31.5800 -31.5783 -31.5781
    -8.5125  -8.5123  -7.9503  -7.9502   4.4285   4.4286   4.7677   4.7680
     5.1091   5.1092   6.5311   6.5313   6.5539   6.5540   7.1063   7.1063

          k = 0.2482 0.2518 0.0000 (  5148 PWs)   bands (ev):

   -64.8313 -64.8257 -64.8252 -64.8242 -31.6245 -31.6186 -31.6166 -31.6073
   -31.5945 -31.5923 -31.5923 -31.5894 -31.5857 -31.5826 -31.5747 -31.5667
    -8.9666  -8.0776  -8.0512  -7.8907   4.1551   4.1679   4.3280   5.0710
     5.8467   6.0214   6.0891   6.4723   6.4957   6.5847   7.1734   7.5048

          k = 0.2482 0.2518 0.2500 (  5154 PWs)   bands (ev):

   -64.8302 -64.8257 -64.8255 -64.8248 -31.6265 -31.6244 -31.6232 -31.6055
   -31.5941 -31.5934 -31.5926 -31.5862 -31.5823 -31.5800 -31.5739 -31.5674
    -8.7967  -8.0407  -8.0312  -8.0219   3.9974   4.0000   4.0033   5.0888
     5.8345   5.8451   5.8560   6.6845   6.7057   6.7256   7.3525   7.3570

          k = 0.2482 0.2518-0.5000 (  5146 PWs)   bands (ev):

   -64.8280 -64.8276 -64.8256 -64.8250 -31.6278 -31.6276 -31.6208 -31.6207
   -31.5933 -31.5931 -31.5808 -31.5806 -31.5792 -31.5792 -31.5737 -31.5735
    -8.3997  -8.3996  -7.9978  -7.9977   3.8214   3.8214   4.1975   4.1977
     5.8293   5.8294   6.7400   6.7403   6.8681   6.8683   7.0158   7.0159

          k = 0.2482-0.5036 0.0000 (  5148 PWs)   bands (ev):

   -64.8285 -64.8280 -64.8252 -64.8246 -31.6186 -31.6182 -31.6086 -31.6082
   -31.6060 -31.6053 -31.5854 -31.5848 -31.5807 -31.5805 -31.5761 -31.5760
    -8.5072  -8.4963  -7.9530  -7.9507   4.4141   4.4219   4.7413   4.7499
     5.1003   5.1194   6.5231   6.5301   6.5495   6.5635   7.0993   7.1030

          k = 0.2482-0.5036 0.2500 (  5136 PWs)   bands (ev):

   -64.8280 -64.8276 -64.8256 -64.8251 -31.6280 -31.6278 -31.6201 -31.6199
   -31.5946 -31.5944 -31.5807 -31.5804 -31.5771 -31.5770 -31.5744 -31.5742
    -8.3975  -8.3882  -8.0000  -7.9999   3.8196   3.8197   4.1821   4.1909
     5.8306   5.8309   6.7339   6.7342   6.8762   6.8805   6.9995   7.0081

          k = 0.2482-0.5036-0.5000 (  5132 PWs)   bands (ev):

   -64.8268 -64.8268 -64.8268 -64.8258 -31.6308 -31.6305 -31.6305 -31.6305
   -31.5858 -31.5856 -31.5855 -31.5853 -31.5716 -31.5714 -31.5712 -31.5711
    -8.1682  -8.1681  -8.1634  -8.1633   3.6289   3.6290   3.6333   3.6334
     6.5104   6.5104   6.5203   6.5204   7.0725   7.0727   7.0762   7.0764

          k =-0.4965 0.0000 0.0000 (  5150 PWs)   bands (ev):

   -64.8294 -64.8289 -64.8242 -64.8237 -31.6104 -31.6094 -31.6065 -31.6056
   -31.6053 -31.6043 -31.5972 -31.5972 -31.5794 -31.5788 -31.5759 -31.5753
    -8.6665  -8.6513  -7.8522  -7.8519   4.8163   4.8346   4.8401   4.8584
     5.1245   5.1327   6.0082   6.0085   6.9571   6.9714   6.9906   7.0046

          k =-0.4965 0.0000 0.2500 (  5152 PWs)   bands (ev):

   -64.8286 -64.8282 -64.8250 -64.8245 -31.6180 -31.6176 -31.6122 -31.6116
   -31.6020 -31.6012 -31.5872 -31.5869 -31.5800 -31.5793 -31.5761 -31.5759
    -8.5273  -8.5139  -7.9470  -7.9442   4.4233   4.4332   4.7682   4.7776
     5.0837   5.1067   6.5478   6.5562   6.5646   6.5810   7.0964   7.1003

          k =-0.4965 0.0000-0.5000 (  5192 PWs)   bands (ev):

   -64.8269 -64.8268 -64.8268 -64.8258 -31.6200 -31.6198 -31.6195 -31.6194
   -31.5920 -31.5917 -31.5913 -31.5910 -31.5788 -31.5786 -31.5783 -31.5783
    -8.2151  -8.2150  -8.2066  -8.2065   4.3183   4.3185   4.3216   4.3217
     5.7551   5.7553   5.7756   5.7758   7.0484   7.0486   7.0554   7.0556

          k =-0.4965 0.2518 0.0000 (  5152 PWs)   bands (ev):

   -64.8286 -64.8282 -64.8250 -64.8245 -31.6160 -31.6156 -31.6118 -31.6112
   -31.6070 -31.6062 -31.5850 -31.5846 -31.5838 -31.5832 -31.5723 -31.5721
    -8.5249  -8.5116  -7.9441  -7.9416   4.4138   4.4236   4.7512   4.7607
     5.0701   5.0931   6.5642   6.5723   6.5865   6.6029   7.0832   7.0873

          k =-0.4965 0.2518 0.2500 (  5140 PWs)   bands (ev):

   -64.8281 -64.8277 -64.8255 -64.8250 -31.6275 -31.6273 -31.6213 -31.6211
   -31.5906 -31.5904 -31.5829 -31.5827 -31.5791 -31.5790 -31.5737 -31.5733
    -8.4120  -8.4005  -7.9953  -7.9951   3.8227   3.8228   4.2038   4.2140
     5.8288   5.8291   6.7452   6.7455   6.8556   6.8600   7.0223   7.0325

          k =-0.4965 0.2518-0.5000 (  5144 PWs)   bands (ev):

   -64.8269 -64.8268 -64.8268 -64.8258 -31.6316 -31.6314 -31.6314 -31.6313
   -31.5801 -31.5799 -31.5798 -31.5797 -31.5768 -31.5766 -31.5765 -31.5765
    -8.1739  -8.1738  -8.1678  -8.1677   3.6465   3.6466   3.6518   3.6519
     6.5269   6.5270   6.5385   6.5386   7.0506   7.0508   7.0557   7.0558

          k =-0.4965-0.5036 0.0000 (  5188 PWs)   bands (ev):

   -64.8269 -64.8268 -64.8267 -64.8258 -31.6187 -31.6185 -31.6182 -31.6180
   -31.5973 -31.5966 -31.5966 -31.5959 -31.5753 -31.5751 -31.5748 -31.5747
    -8.2133  -8.2063  -8.2049  -8.1980   4.2900   4.2930   4.2933   4.2963
     5.7480   5.7652   5.7686   5.7856   7.0563   7.0619   7.0632   7.0686

          k =-0.4965-0.5036 0.2500 (  5152 PWs)   bands (ev):

   -64.8268 -64.8268 -64.8267 -64.8258 -31.6316 -31.6314 -31.6313 -31.6312
   -31.5839 -31.5836 -31.5835 -31.5833 -31.5738 -31.5736 -31.5734 -31.5733
    -8.1737  -8.1687  -8.1677  -8.1627   3.6352   3.6397   3.6404   3.6449
     6.5130   6.5229   6.5248   6.5346   7.0592   7.0631   7.0641   7.0679

          k =-0.4965-0.5036-0.5000 (  5136 PWs)   bands (ev):

   -64.8268 -64.8268 -64.8268 -64.8258 -31.6393 -31.6390 -31.6390 -31.6390
   -31.5780 -31.5778 -31.5778 -31.5777 -31.5710 -31.5708 -31.5707 -31.5706
    -8.1303  -8.1301  -8.1300  -8.1300   3.2172   3.2173   3.2174   3.2174
     7.0524   7.0525   7.0526   7.0527   7.0766   7.0766   7.0767   7.0768

          k = 0.0000-0.2518 0.2500 (  5157 PWs)   bands (ev):

   -64.8312 -64.8255 -64.8252 -64.8243 -31.6229 -31.6203 -31.6167 -31.6046
   -31.5987 -31.5979 -31.5903 -31.5858 -31.5835 -31.5828 -31.5791 -31.5654
    -8.9630  -8.0640  -8.0509  -7.8999   4.1563   4.1631   4.3126   5.0714
     5.8260   6.0475   6.0819   6.4518   6.4636   6.6071   7.1885   7.5022

          k =-0.2482 0.0000 0.2500 (  5149 PWs)   bands (ev):

   -64.8313 -64.8257 -64.8253 -64.8241 -31.6243 -31.6207 -31.6145 -31.6090
   -31.5939 -31.5899 -31.5895 -31.5894 -31.5882 -31.5858 -31.5700 -31.5695
    -8.9702  -8.0781  -8.0648  -7.8820   4.1594   4.1651   4.3445   5.0706
     5.8678   6.0294   6.0628   6.5058   6.5171   6.5602   7.1575   7.5078

          k =-0.2482 0.2518 0.0000 (  5148 PWs)   bands (ev):

   -64.8313 -64.8257 -64.8252 -64.8242 -31.6245 -31.6186 -31.6167 -31.6073
   -31.5945 -31.5923 -31.5922 -31.5894 -31.5858 -31.5826 -31.5747 -31.5667
    -8.9666  -8.0776  -8.0512  -7.8907   4.1551   4.1679   4.3280   5.0710
     5.8467   6.0214   6.0891   6.4723   6.4957   6.5847   7.1734   7.5048

          k =-0.2482-0.2518 0.2500 (  5154 PWs)   bands (ev):

   -64.8302 -64.8257 -64.8255 -64.8248 -31.6265 -31.6244 -31.6232 -31.6055
   -31.5941 -31.5934 -31.5926 -31.5862 -31.5823 -31.5800 -31.5739 -31.5674
    -8.7967  -8.0407  -8.0312  -8.0219   3.9974   4.0000   4.0033   5.0888
     5.8345   5.8451   5.8560   6.6845   6.7057   6.7256   7.3525   7.3570

          k =-0.2482 0.2518-0.2500 (  5154 PWs)   bands (ev):

   -64.8302 -64.8257 -64.8255 -64.8248 -31.6265 -31.6244 -31.6232 -31.6055
   -31.5940 -31.5934 -31.5926 -31.5862 -31.5823 -31.5800 -31.5739 -31.5674
    -8.7967  -8.0407  -8.0312  -8.0219   3.9974   4.0000   4.0033   5.0888
     5.8345   5.8451   5.8560   6.6845   6.7057   6.7256   7.3525   7.3570

          k = 0.2482-0.2518-0.2500 (  5154 PWs)   bands (ev):

   -64.8302 -64.8257 -64.8255 -64.8248 -31.6265 -31.6244 -31.6232 -31.6055
   -31.5940 -31.5934 -31.5926 -31.5862 -31.5823 -31.5800 -31.5739 -31.5674
    -8.7967  -8.0407  -8.0312  -8.0219   3.9974   4.0000   4.0033   5.0888
     5.8345   5.8451   5.8560   6.6845   6.7057   6.7256   7.3525   7.3570

          k =-0.2482 0.2518 0.5000 (  5146 PWs)   bands (ev):

   -64.8280 -64.8276 -64.8256 -64.8250 -31.6278 -31.6276 -31.6208 -31.6207
   -31.5933 -31.5930 -31.5808 -31.5806 -31.5793 -31.5792 -31.5737 -31.5735
    -8.3997  -8.3996  -7.9978  -7.9977   3.8213   3.8214   4.1975   4.1977
     5.8293   5.8293   6.7400   6.7402   6.8682   6.8682   7.0158   7.0158

          k =-0.2482 0.5036 0.2500 (  5136 PWs)   bands (ev):

   -64.8280 -64.8276 -64.8256 -64.8251 -31.6280 -31.6278 -31.6201 -31.6199
   -31.5946 -31.5944 -31.5807 -31.5804 -31.5771 -31.5770 -31.5744 -31.5742
    -8.3975  -8.3882  -8.0000  -7.9999   3.8196   3.8197   4.1821   4.1909
     5.8306   5.8309   6.7339   6.7342   6.8762   6.8805   6.9995   7.0081

          k = 0.4965-0.2518 0.2500 (  5140 PWs)   bands (ev):

   -64.8281 -64.8277 -64.8255 -64.8250 -31.6275 -31.6273 -31.6213 -31.6211
   -31.5906 -31.5904 -31.5829 -31.5827 -31.5791 -31.5790 -31.5737 -31.5733
    -8.4120  -8.4005  -7.9953  -7.9951   3.8227   3.8228   4.2038   4.2140
     5.8288   5.8291   6.7452   6.7455   6.8556   6.8600   7.0223   7.0325

     highest occupied level (ev):     7.6873

!    total energy              =    -608.39240735 Ry
     Harris-Foulkes estimate   =    -608.39240735 Ry
     estimated scf accuracy    <          1.2E-09 Ry

     The total energy is the sum of the following terms:

     one-electron contribution =    -303.60523408 Ry
     hartree contribution      =     168.09264046 Ry
     xc contribution           =     -97.84731083 Ry
     ewald contribution        =    -375.03250289 Ry

     convergence has been achieved in   5 iterations

     Forces acting on atoms (cartesian axes, Ry/au):

     atom    1 type  1   force =    -0.00147632    0.00139711   -0.00001038
     atom    2 type  1   force =    -0.00160621   -0.00149208    0.00001092
     atom    3 type  1   force =     0.00155434    0.00154103    0.00001092
     atom    4 type  1   force =     0.00154346   -0.00148561   -0.00001130
     atom    5 type  2   force =     0.00151174    0.00142377   -0.00001048
     atom    6 type  2   force =    -0.00152156   -0.00140307   -0.00001046
     atom    7 type  2   force =    -0.00151784    0.00141824    0.00001041
     atom    8 type  2   force =     0.00151239   -0.00139941    0.00001037

     Total force =     0.005956     Total SCF correction =     0.000310


     Computing stress (Cartesian axis) and pressure

          total   stress  (Ry/bohr**3)                   (kbar)     P=  -67.76
  -0.00054492   0.00000001  -0.00000000        -80.16      0.00     -0.00
   0.00000001  -0.00037249   0.00000000          0.00    -54.79      0.00
  -0.00000000   0.00000000  -0.00046456         -0.00      0.00    -68.34


     number of scf cycles    =   3
     number of bfgs steps    =   2

     energy   old            =    -608.3922390871 Ry
     energy   new            =    -608.3924073457 Ry

     CASE: energy  _new < energy  _old

     new trust radius        =       0.0070567260 bohr
     new conv_thr            =       0.0000000016 Ry


ATOMIC_POSITIONS (alat)
Mg      -0.001564051   0.001708545  -0.000011679
Mg      -0.001616511   0.498265336   0.500011692
Mg       0.501580871   0.001768293   0.500011717
Mg       0.501558946   0.498283392  -0.000012060
O        0.501739663   0.001856719  -0.000012755
O       -0.001722913   0.498133762  -0.000012762
O       -0.001721286   0.001854308   0.500012901
O        0.501745281   0.498129645   0.500012947



     Writing output data file diamond.1.007143.70.4.save
     NEW-OLD atomic charge density approx. for the potential

     Check: negative/imaginary core charge=   -0.000007    0.000000

     total cpu time spent up to now is       33.7 secs

     per-process dynamical memory:    56.2 Mb

     Self-consistent Calculation

     iteration #  1     ecut=    70.00 Ry     beta=0.70
     Davidson diagonalization with overlap
     ethr =  1.00E-06,  avg # of iterations =  3.0

     total cpu time spent up to now is       36.1 secs

     total energy              =    -608.39244295 Ry
     Harris-Foulkes estimate   =    -608.39249254 Ry
     estimated scf accuracy    <       0.00006770 Ry

     iteration #  2     ecut=    70.00 Ry     beta=0.70
     Davidson diagonalization with overlap
     ethr =  1.06E-07,  avg # of iterations =  2.2

     total cpu time spent up to now is       37.6 secs

     total energy              =    -608.39246407 Ry
     Harris-Foulkes estimate   =    -608.39247130 Ry
     estimated scf accuracy    <       0.00001208 Ry

     iteration #  3     ecut=    70.00 Ry     beta=0.70
     Davidson diagonalization with overlap
     ethr =  1.89E-08,  avg # of iterations =  2.0

     total cpu time spent up to now is       39.0 secs

     total energy              =    -608.39246665 Ry
     Harris-Foulkes estimate   =    -608.39246662 Ry
     estimated scf accuracy    <       0.00000008 Ry

     iteration #  4     ecut=    70.00 Ry     beta=0.70
     Davidson diagonalization with overlap
     ethr =  1.23E-10,  avg # of iterations =  2.6

     total cpu time spent up to now is       40.7 secs

     total energy              =    -608.39246668 Ry
     Harris-Foulkes estimate   =    -608.39246668 Ry
     estimated scf accuracy    <          5.5E-09 Ry

     iteration #  5     ecut=    70.00 Ry     beta=0.70
     Davidson diagonalization with overlap
     ethr =  8.64E-12,  avg # of iterations =  2.0

     total cpu time spent up to now is       42.3 secs

     End of self-consistent calculation

          k = 0.0000 0.0000 0.0000 (  5149 PWs)   bands (ev):

   -64.8340 -64.8246 -64.8243 -64.8237 -31.6339 -31.6304 -31.6258 -31.5972
   -31.5956 -31.5938 -31.5912 -31.5900 -31.5883 -31.5699 -31.5634 -31.5595
    -9.3651  -7.9330  -7.9142  -7.8958   3.7350   3.7575   3.7826   6.3291
     6.3360   6.3734   6.3860   6.4247   6.4305   7.6551   7.6725   7.6874

          k = 0.0000 0.0000 0.2500 (  5153 PWs)   bands (ev):

   -64.8325 -64.8257 -64.8245 -64.8239 -31.6280 -31.6201 -31.6193 -31.6026
   -31.5946 -31.5926 -31.5921 -31.5916 -31.5848 -31.5776 -31.5747 -31.5666
    -9.1567  -8.1291  -7.8993  -7.8727   4.0267   4.0709   4.0949   5.8464
     5.8691   6.1357   6.2053   6.5021   6.5842   6.6590   7.4279   7.4718

          k = 0.0000 0.0000-0.5000 (  5126 PWs)   bands (ev):

   -64.8293 -64.8289 -64.8244 -64.8239 -31.6148 -31.6145 -31.6051 -31.6048
   -31.6010 -31.6009 -31.5908 -31.5908 -31.5833 -31.5831 -31.5762 -31.5759
    -8.6465  -8.6464  -7.8573  -7.8572   4.8292   4.8293   4.8654   4.8655
     5.1228   5.1230   5.9731   5.9735   6.9352   6.9352   7.0012   7.0012

          k = 0.0000 0.2518 0.0000 (  5165 PWs)   bands (ev):

   -64.8325 -64.8255 -64.8246 -64.8240 -31.6277 -31.6235 -31.6168 -31.6013
   -31.5963 -31.5935 -31.5899 -31.5895 -31.5884 -31.5757 -31.5737 -31.5712
    -9.1525  -8.1114  -7.8997  -7.8863   4.0316   4.0527   4.1069   5.8861
     5.8968   6.1256   6.1599   6.4974   6.5386   6.6435   7.4405   7.4614

          k = 0.0000 0.2518 0.2500 (  5157 PWs)   bands (ev):

   -64.8313 -64.8256 -64.8253 -64.8244 -31.6229 -31.6204 -31.6167 -31.6046
   -31.5987 -31.5979 -31.5903 -31.5859 -31.5836 -31.5828 -31.5791 -31.5654
    -8.9629  -8.0639  -8.0509  -7.8998   4.1564   4.1631   4.3127   5.0715
     5.8260   6.0476   6.0819   6.4518   6.4636   6.6071   7.1885   7.5023

          k = 0.0000 0.2518-0.5000 (  5142 PWs)   bands (ev):

   -64.8286 -64.8282 -64.8252 -64.8246 -31.6142 -31.6141 -31.6105 -31.6102
   -31.6088 -31.6088 -31.5884 -31.5881 -31.5813 -31.5812 -31.5713 -31.5711
    -8.5078  -8.5077  -7.9449  -7.9449   4.4083   4.4083   4.7340   4.7342
     5.0840   5.0841   6.5634   6.5636   6.5980   6.5980   7.0812   7.0813

          k = 0.0000-0.5036 0.0000 (  5126 PWs)   bands (ev):

   -64.8292 -64.8288 -64.8246 -64.8241 -31.6142 -31.6140 -31.6090 -31.6088
   -31.5965 -31.5964 -31.5875 -31.5874 -31.5840 -31.5838 -31.5804 -31.5802
    -8.6343  -8.6333  -7.8620  -7.8619   4.8479   4.8493   4.8654   4.8668
     5.1156   5.1165   5.9367   5.9369   6.9383   6.9394   6.9709   6.9720

          k = 0.0000-0.5036 0.2500 (  5140 PWs)   bands (ev):

   -64.8285 -64.8281 -64.8252 -64.8247 -31.6159 -31.6157 -31.6100 -31.6098
   -31.6073 -31.6072 -31.5894 -31.5891 -31.5791 -31.5791 -31.5729 -31.5728
    -8.4999  -8.4990  -7.9493  -7.9492   4.4073   4.4076   4.7281   4.7293
     5.0977   5.0990   6.5424   6.5430   6.5778   6.5790   7.0891   7.0893

          k = 0.0000-0.5036-0.5000 (  5160 PWs)   bands (ev):

   -64.8269 -64.8268 -64.8268 -64.8259 -31.6173 -31.6171 -31.6170 -31.6170
   -31.6005 -31.6003 -31.6002 -31.6000 -31.5718 -31.5716 -31.5715 -31.5715
    -8.2012  -8.2011  -8.2006  -8.2005   4.2658   4.2659   4.2665   4.2667
     5.7694   5.7695   5.7707   5.7707   7.0734   7.0736   7.0741   7.0743

          k = 0.2482 0.0000 0.0000 (  5158 PWs)   bands (ev):

   -64.8326 -64.8259 -64.8243 -64.8238 -31.6253 -31.6236 -31.6196 -31.5989
   -31.5973 -31.5962 -31.5938 -31.5877 -31.5834 -31.5830 -31.5706 -31.5661
    -9.1607  -8.1470  -7.8852  -7.8720   4.0434   4.0661   4.0822   5.8187
     5.8306   6.1809   6.2160   6.5466   6.5876   6.6723   7.4378   7.4602

          k = 0.2482 0.0000 0.2500 (  5149 PWs)   bands (ev):

   -64.8313 -64.8257 -64.8253 -64.8242 -31.6244 -31.6207 -31.6145 -31.6090
   -31.5939 -31.5899 -31.5895 -31.5895 -31.5883 -31.5859 -31.5700 -31.5696
    -8.9701  -8.0780  -8.0647  -7.8819   4.1595   4.1652   4.3446   5.0707
     5.8679   6.0293   6.0629   6.5058   6.5175   6.5599   7.1574   7.5078

          k = 0.2482 0.0000-0.5000 (  5140 PWs)   bands (ev):

   -64.8286 -64.8282 -64.8252 -64.8246 -31.6191 -31.6189 -31.6100 -31.6100
   -31.6009 -31.6007 -31.5847 -31.5847 -31.5804 -31.5801 -31.5784 -31.5782
    -8.5123  -8.5123  -7.9502  -7.9502   4.4285   4.4286   4.7679   4.7681
     5.1092   5.1092   6.5317   6.5319   6.5534   6.5535   7.1062   7.1063

          k = 0.2482 0.2518 0.0000 (  5148 PWs)   bands (ev):

   -64.8313 -64.8257 -64.8252 -64.8243 -31.6245 -31.6187 -31.6167 -31.6073
   -31.5945 -31.5923 -31.5923 -31.5895 -31.5858 -31.5826 -31.5747 -31.5667
    -8.9664  -8.0775  -8.0511  -7.8907   4.1552   4.1679   4.3282   5.0710
     5.8467   6.0215   6.0892   6.4724   6.4959   6.5844   7.1733   7.5048

          k = 0.2482 0.2518 0.2500 (  5154 PWs)   bands (ev):

   -64.8303 -64.8257 -64.8256 -64.8249 -31.6265 -31.6244 -31.6233 -31.6055
   -31.5941 -31.5934 -31.5927 -31.5862 -31.5823 -31.5800 -31.5739 -31.5674
    -8.7966  -8.0406  -8.0311  -8.0218   3.9975   4.0001   4.0033   5.0888
     5.8345   5.8452   5.8560   6.6846   6.7057   6.7257   7.3525   7.3570

          k = 0.2482 0.2518-0.5000 (  5146 PWs)   bands (ev):

   -64.8281 -64.8277 -64.8256 -64.8251 -31.6278 -31.6276 -31.6209 -31.6208
   -31.5933 -31.5931 -31.5808 -31.5807 -31.5793 -31.5792 -31.5738 -31.5736
    -8.3995  -8.3995  -7.9977  -7.9977   3.8214   3.8215   4.1976   4.1977
     5.8294   5.8294   6.7402   6.7404   6.8681   6.8683   7.0157   7.0158

          k = 0.2482-0.5036 0.0000 (  5148 PWs)   bands (ev):

   -64.8285 -64.8281 -64.8252 -64.8247 -31.6185 -31.6183 -31.6085 -31.6084
   -31.6058 -31.6056 -31.5853 -31.5851 -31.5806 -31.5806 -31.5762 -31.5761
    -8.5021  -8.5012  -7.9519  -7.9517   4.4178   4.4182   4.7451   4.7462
     5.1093   5.1107   6.5263   6.5270   6.5559   6.5571   7.1010   7.1012

          k = 0.2482-0.5036 0.2500 (  5136 PWs)   bands (ev):

   -64.8280 -64.8276 -64.8257 -64.8252 -31.6280 -31.6278 -31.6201 -31.6200
   -31.5946 -31.5944 -31.5807 -31.5805 -31.5771 -31.5771 -31.5744 -31.5744
    -8.3931  -8.3923  -7.9999  -7.9999   3.8196   3.8197   4.1860   4.1871
     5.8308   5.8308   6.7340   6.7342   6.8783   6.8785   7.0034   7.0042

          k = 0.2482-0.5036-0.5000 (  5132 PWs)   bands (ev):

   -64.8269 -64.8268 -64.8268 -64.8259 -31.6308 -31.6305 -31.6305 -31.6305
   -31.5858 -31.5856 -31.5856 -31.5855 -31.5716 -31.5714 -31.5713 -31.5712
    -8.1659  -8.1658  -8.1655  -8.1654   3.6309   3.6309   3.6314   3.6316
     6.5150   6.5150   6.5158   6.5159   7.0742   7.0744   7.0747   7.0748

          k =-0.4965 0.0000 0.0000 (  5150 PWs)   bands (ev):

   -64.8294 -64.8290 -64.8243 -64.8238 -31.6101 -31.6098 -31.6061 -31.6058
   -31.6051 -31.6049 -31.5972 -31.5972 -31.5793 -31.5790 -31.5758 -31.5755
    -8.6598  -8.6578  -7.8520  -7.8519   4.8267   4.8299   4.8449   4.8481
     5.1282   5.1289   6.0083   6.0085   6.9634   6.9650   6.9968   6.9984

          k =-0.4965 0.0000 0.2500 (  5152 PWs)   bands (ev):

   -64.8287 -64.8283 -64.8250 -64.8245 -31.6179 -31.6177 -31.6119 -31.6118
   -31.6018 -31.6015 -31.5872 -31.5871 -31.5798 -31.5796 -31.5762 -31.5760
    -8.5214  -8.5197  -7.9457  -7.9454   4.4275   4.4291   4.7726   4.7733
     5.0936   5.0967   6.5520   6.5530   6.5713   6.5733   7.0981   7.0987

          k =-0.4965 0.0000-0.5000 (  5192 PWs)   bands (ev):

   -64.8269 -64.8268 -64.8268 -64.8259 -31.6199 -31.6197 -31.6196 -31.6195
   -31.5918 -31.5916 -31.5916 -31.5913 -31.5788 -31.5786 -31.5784 -31.5784
    -8.2113  -8.2112  -8.2103  -8.2102   4.3200   4.3200   4.3201   4.3202
     5.7641   5.7641   5.7667   5.7668   7.0516   7.0518   7.0523   7.0525

          k =-0.4965 0.2518 0.0000 (  5152 PWs)   bands (ev):

   -64.8287 -64.8283 -64.8250 -64.8245 -31.6159 -31.6157 -31.6116 -31.6115
   -31.6068 -31.6065 -31.5849 -31.5848 -31.5837 -31.5835 -31.5723 -31.5722
    -8.5190  -8.5173  -7.9429  -7.9426   4.4180   4.4195   4.7556   4.7564
     5.0802   5.0832   6.5678   6.5688   6.5937   6.5957   7.0849   7.0856

          k =-0.4965 0.2518 0.2500 (  5140 PWs)   bands (ev):

   -64.8281 -64.8278 -64.8256 -64.8250 -31.6275 -31.6274 -31.6213 -31.6212
   -31.5907 -31.5905 -31.5829 -31.5828 -31.5791 -31.5790 -31.5737 -31.5735
    -8.4069  -8.4055  -7.9952  -7.9952   3.8228   3.8229   4.2085   4.2094
     5.8290   5.8290   6.7453   6.7455   6.8574   6.8582   7.0268   7.0280

          k =-0.4965 0.2518-0.5000 (  5144 PWs)   bands (ev):

   -64.8269 -64.8268 -64.8268 -64.8259 -31.6317 -31.6314 -31.6314 -31.6313
   -31.5801 -31.5800 -31.5798 -31.5798 -31.5769 -31.5766 -31.5766 -31.5765
    -8.1711  -8.1711  -8.1704  -8.1703   3.6489   3.6491   3.6494   3.6494
     6.5320   6.5321   6.5335   6.5335   7.0529   7.0531   7.0535   7.0536

          k =-0.4965-0.5036 0.0000 (  5188 PWs)   bands (ev):

   -64.8269 -64.8269 -64.8268 -64.8259 -31.6186 -31.6184 -31.6183 -31.6182
   -31.5969 -31.5967 -31.5966 -31.5964 -31.5752 -31.5751 -31.5749 -31.5748
    -8.2064  -8.2058  -8.2053  -8.2048   4.2928   4.2928   4.2934   4.2936
     5.7649   5.7662   5.7676   5.7689   7.0619   7.0625   7.0626   7.0632

          k =-0.4965-0.5036 0.2500 (  5152 PWs)   bands (ev):

   -64.8269 -64.8268 -64.8268 -64.8259 -31.6316 -31.6314 -31.6313 -31.6313
   -31.5838 -31.5836 -31.5836 -31.5835 -31.5738 -31.5736 -31.5735 -31.5734
    -8.1687  -8.1683  -8.1680  -8.1675   3.6395   3.6400   3.6402   3.6406
     6.5227   6.5235   6.5242   6.5250   7.0631   7.0636   7.0636   7.0641

          k =-0.4965-0.5036-0.5000 (  5136 PWs)   bands (ev):

   -64.8269 -64.8268 -64.8268 -64.8259 -31.6393 -31.6391 -31.6391 -31.6390
   -31.5781 -31.5778 -31.5778 -31.5777 -31.5710 -31.5708 -31.5708 -31.5707
    -8.1301  -8.1300  -8.1300  -8.1300   3.2172   3.2174   3.2174   3.2174
     7.0525   7.0526   7.0527   7.0528   7.0766   7.0767   7.0768   7.0769

          k = 0.0000-0.2518 0.2500 (  5157 PWs)   bands (ev):

   -64.8313 -64.8256 -64.8253 -64.8244 -31.6229 -31.6204 -31.6167 -31.6046
   -31.5987 -31.5979 -31.5903 -31.5859 -31.5836 -31.5828 -31.5791 -31.5654
    -8.9629  -8.0639  -8.0509  -7.8998   4.1564   4.1631   4.3127   5.0715
     5.8260   6.0476   6.0819   6.4518   6.4636   6.6071   7.1885   7.5023

          k =-0.2482 0.0000 0.2500 (  5149 PWs)   bands (ev):

   -64.8313 -64.8257 -64.8253 -64.8242 -31.6244 -31.6207 -31.6145 -31.6090
   -31.5939 -31.5899 -31.5895 -31.5895 -31.5883 -31.5859 -31.5700 -31.5696
    -8.9701  -8.0780  -8.0647  -7.8819   4.1595   4.1652   4.3446   5.0707
     5.8679   6.0293   6.0629   6.5058   6.5175   6.5599   7.1574   7.5078

          k =-0.2482 0.2518 0.0000 (  5148 PWs)   bands (ev):

   -64.8313 -64.8257 -64.8252 -64.8243 -31.6245 -31.6187 -31.6167 -31.6073
   -31.5945 -31.5923 -31.5923 -31.5895 -31.5858 -31.5826 -31.5747 -31.5667
    -8.9664  -8.0775  -8.0511  -7.8907   4.1552   4.1679   4.3282   5.0710
     5.8467   6.0215   6.0892   6.4724   6.4959   6.5844   7.1733   7.5048

          k =-0.2482-0.2518 0.2500 (  5154 PWs)   bands (ev):

   -64.8303 -64.8257 -64.8256 -64.8249 -31.6265 -31.6244 -31.6233 -31.6055
   -31.5941 -31.5934 -31.5927 -31.5862 -31.5823 -31.5800 -31.5739 -31.5674
    -8.7966  -8.0406  -8.0311  -8.0218   3.9975   4.0001   4.0033   5.0888
     5.8345   5.8452   5.8560   6.6846   6.7057   6.7257   7.3525   7.3570

          k =-0.2482 0.2518-0.2500 (  5154 PWs)   bands (ev):

   -64.8303 -64.8257 -64.8256 -64.8249 -31.6265 -31.6244 -31.6233 -31.6055
   -31.5941 -31.5934 -31.5927 -31.5862 -31.5823 -31.5800 -31.5739 -31.5674
    -8.7966  -8.0406  -8.0311  -8.0218   3.9975   4.0001   4.0033   5.0888
     5.8345   5.8452   5.8560   6.6846   6.7057   6.7257   7.3525   7.3570

          k = 0.2482-0.2518-0.2500 (  5154 PWs)   bands (ev):

   -64.8303 -64.8257 -64.8256 -64.8249 -31.6265 -31.6244 -31.6233 -31.6055
   -31.5941 -31.5934 -31.5927 -31.5862 -31.5823 -31.5800 -31.5739 -31.5674
    -8.7966  -8.0406  -8.0311  -8.0218   3.9975   4.0001   4.0033   5.0888
     5.8345   5.8452   5.8560   6.6846   6.7057   6.7257   7.3525   7.3570

          k =-0.2482 0.2518 0.5000 (  5146 PWs)   bands (ev):

   -64.8281 -64.8277 -64.8256 -64.8251 -31.6278 -31.6277 -31.6209 -31.6207
   -31.5934 -31.5931 -31.5808 -31.5807 -31.5793 -31.5792 -31.5738 -31.5736
    -8.3995  -8.3995  -7.9977  -7.9977   3.8214   3.8215   4.1976   4.1977
     5.8293   5.8294   6.7402   6.7404   6.8681   6.8683   7.0157   7.0158

          k =-0.2482 0.5036 0.2500 (  5136 PWs)   bands (ev):

   -64.8280 -64.8276 -64.8257 -64.8252 -31.6280 -31.6278 -31.6201 -31.6200
   -31.5946 -31.5944 -31.5807 -31.5805 -31.5771 -31.5771 -31.5744 -31.5744
    -8.3931  -8.3923  -7.9999  -7.9999   3.8196   3.8197   4.1860   4.1871
     5.8308   5.8308   6.7340   6.7342   6.8783   6.8785   7.0034   7.0042

          k = 0.4965-0.2518 0.2500 (  5140 PWs)   bands (ev):

   -64.8281 -64.8278 -64.8256 -64.8250 -31.6275 -31.6274 -31.6213 -31.6212
   -31.5907 -31.5905 -31.5829 -31.5828 -31.5791 -31.5790 -31.5737 -31.5735
    -8.4069  -8.4055  -7.9952  -7.9952   3.8228   3.8229   4.2085   4.2094
     5.8290   5.8290   6.7453   6.7455   6.8574   6.8582   7.0268   7.0280

     highest occupied level (ev):     7.6874

!    total energy              =    -608.39246668 Ry
     Harris-Foulkes estimate   =    -608.39246668 Ry
     estimated scf accuracy    <          7.3E-10 Ry

     The total energy is the sum of the following terms:

     one-electron contribution =    -303.59281567 Ry
     hartree contribution      =     168.08639592 Ry
     xc contribution           =     -97.84718712 Ry
     ewald contribution        =    -375.03885981 Ry

     convergence has been achieved in   5 iterations

     Forces acting on atoms (cartesian axes, Ry/au):

     atom    1 type  1   force =    -0.00020015   -0.00011856   -0.00000040
     atom    2 type  1   force =    -0.00035921   -0.00000695    0.00000138
     atom    3 type  1   force =     0.00032150    0.00004012    0.00000136
     atom    4 type  1   force =     0.00032965   -0.00001660   -0.00000152
     atom    5 type  2   force =     0.00003340   -0.00024152    0.00000056
     atom    6 type  2   force =    -0.00007358    0.00027879    0.00000054
     atom    7 type  2   force =    -0.00006995   -0.00024471   -0.00000086
     atom    8 type  2   force =     0.00001834    0.00030942   -0.00000106

     Total force =     0.000837     Total SCF correction =     0.000268
     SCF correction compared to forces is large: reduce conv_thr to get better values


     Computing stress (Cartesian axis) and pressure

          total   stress  (Ry/bohr**3)                   (kbar)     P=  -67.83
  -0.00054561   0.00000001  -0.00000000        -80.26      0.00     -0.00
   0.00000001  -0.00037306   0.00000000          0.00    -54.88      0.00
  -0.00000000   0.00000000  -0.00046457         -0.00      0.00    -68.34


     number of scf cycles    =   4
     number of bfgs steps    =   3

     energy   old            =    -608.3924073457 Ry
     energy   new            =    -608.3924666762 Ry

     CASE: energy  _new < energy  _old

     new trust radius        =       0.0004265690 bohr
     new conv_thr            =       0.0000000004 Ry


ATOMIC_POSITIONS (alat)
Mg      -0.001596112   0.001701019  -0.000011781
Mg      -0.001668862   0.498256915   0.500011917
Mg       0.501628310   0.001781045   0.500011940
Mg       0.501607321   0.498273832  -0.000012304
O        0.501751447   0.001834310  -0.000012740
O       -0.001739694   0.498160836  -0.000012750
O       -0.001737601   0.001831485   0.500012848
O        0.501755192   0.498160558   0.500012869



     Writing output data file diamond.1.007143.70.4.save
     NEW-OLD atomic charge density approx. for the potential

     Check: negative/imaginary core charge=   -0.000007    0.000000

     total cpu time spent up to now is       43.1 secs

     per-process dynamical memory:    56.2 Mb

     Self-consistent Calculation

     iteration #  1     ecut=    70.00 Ry     beta=0.70
     Davidson diagonalization with overlap
     ethr =  1.00E-06,  avg # of iterations =  2.0

     Threshold (ethr) on eigenvalues was too large:
     Diagonalizing with lowered threshold

     Davidson diagonalization with overlap
     ethr =  9.00E-11,  avg # of iterations =  3.3

     total cpu time spent up to now is       46.7 secs

     total energy              =    -608.39246726 Ry
     Harris-Foulkes estimate   =    -608.39246731 Ry
     estimated scf accuracy    <       0.00000007 Ry

     iteration #  2     ecut=    70.00 Ry     beta=0.70
     Davidson diagonalization with overlap
[...]
Mg      -0.001783904   0.498256488   0.500012329
Mg       0.501728332   0.001795429   0.500012346
Mg       0.501711081   0.498269757  -0.000012777
O        0.501762672   0.001768986  -0.000012614
O       -0.001766594   0.498236259  -0.000012620
O       -0.001763351   0.001764933   0.500012608
O        0.501755275   0.498253960   0.500012525



     Writing output data file diamond.1.007143.70.4.save
     NEW-OLD atomic charge density approx. for the potential

     Check: negative/imaginary core charge=   -0.000007    0.000000

     total cpu time spent up to now is       62.5 secs

     per-process dynamical memory:    56.2 Mb

     Self-consistent Calculation

     iteration #  1     ecut=    70.00 Ry     beta=0.70
     Davidson diagonalization with overlap
     ethr =  1.00E-06,  avg # of iterations =  2.0

     Threshold (ethr) on eigenvalues was too large:
     Diagonalizing with lowered threshold

     Davidson diagonalization with overlap
     ethr =  9.29E-11,  avg # of iterations =  3.0

     total cpu time spent up to now is       66.1 secs

     total energy              =    -608.39246784 Ry
     Harris-Foulkes estimate   =    -608.39246792 Ry
     estimated scf accuracy    <       0.00000010 Ry

     iteration #  2     ecut=    70.00 Ry     beta=0.70
     Davidson diagonalization with overlap
     ethr =  1.55E-10,  avg # of iterations =  2.2

     total cpu time spent up to now is       67.5 secs

     total energy              =    -608.39246787 Ry
     Harris-Foulkes estimate   =    -608.39246788 Ry
     estimated scf accuracy    <       0.00000002 Ry

     iteration #  3     ecut=    70.00 Ry     beta=0.70
     Davidson diagonalization with overlap
     ethr =  2.59E-11,  avg # of iterations =  2.0

     total cpu time spent up to now is       69.0 secs

     total energy              =    -608.39246788 Ry
     Harris-Foulkes estimate   =    -608.39246788 Ry
     estimated scf accuracy    <          1.5E-10 Ry

     iteration #  4     ecut=    70.00 Ry     beta=0.70
     Davidson diagonalization with overlap
     ethr =  2.37E-13,  avg # of iterations =  2.8

     total cpu time spent up to now is       70.7 secs

     End of self-consistent calculation

          k = 0.0000 0.0000 0.0000 (  5149 PWs)   bands (ev):

   -64.8340 -64.8246 -64.8243 -64.8237 -31.6339 -31.6304 -31.6258 -31.5972
   -31.5956 -31.5938 -31.5912 -31.5900 -31.5883 -31.5699 -31.5634 -31.5595
    -9.3651  -7.9331  -7.9142  -7.8958   3.7350   3.7575   3.7826   6.3291
     6.3359   6.3734   6.3860   6.4247   6.4305   7.6551   7.6725   7.6873

          k = 0.0000 0.0000 0.2500 (  5153 PWs)   bands (ev):

   -64.8325 -64.8257 -64.8245 -64.8239 -31.6280 -31.6201 -31.6193 -31.6026
   -31.5946 -31.5926 -31.5921 -31.5917 -31.5848 -31.5776 -31.5747 -31.5666
    -9.1567  -8.1291  -7.8993  -7.8727   4.0267   4.0709   4.0949   5.8464
     5.8691   6.1357   6.2053   6.5021   6.5842   6.6590   7.4279   7.4718

          k = 0.0000 0.0000-0.5000 (  5126 PWs)   bands (ev):

   -64.8293 -64.8289 -64.8245 -64.8239 -31.6148 -31.6145 -31.6051 -31.6048
   -31.6010 -31.6009 -31.5908 -31.5908 -31.5833 -31.5831 -31.5762 -31.5759
    -8.6465  -8.6464  -7.8573  -7.8572   4.8292   4.8293   4.8654   4.8655
     5.1227   5.1230   5.9731   5.9735   6.9352   6.9352   7.0011   7.0012

          k = 0.0000 0.2518 0.0000 (  5165 PWs)   bands (ev):

   -64.8325 -64.8255 -64.8246 -64.8240 -31.6277 -31.6235 -31.6168 -31.6013
   -31.5963 -31.5935 -31.5899 -31.5895 -31.5884 -31.5757 -31.5737 -31.5712
    -9.1526  -8.1114  -7.8997  -7.8863   4.0316   4.0527   4.1068   5.8860
     5.8968   6.1256   6.1599   6.4974   6.5386   6.6435   7.4405   7.4613

          k = 0.0000 0.2518 0.2500 (  5157 PWs)   bands (ev):

   -64.8313 -64.8256 -64.8253 -64.8244 -31.6229 -31.6204 -31.6167 -31.6046
   -31.5987 -31.5979 -31.5903 -31.5859 -31.5836 -31.5828 -31.5791 -31.5654
    -8.9629  -8.0640  -8.0509  -7.8999   4.1564   4.1631   4.3127   5.0715
     5.8260   6.0476   6.0819   6.4518   6.4636   6.6071   7.1885   7.5023

          k = 0.0000 0.2518-0.5000 (  5142 PWs)   bands (ev):

   -64.8286 -64.8282 -64.8252 -64.8246 -31.6143 -31.6141 -31.6105 -31.6102
   -31.6089 -31.6088 -31.5884 -31.5881 -31.5813 -31.5812 -31.5713 -31.5711
    -8.5078  -8.5077  -7.9450  -7.9449   4.4083   4.4083   4.7340   4.7342
     5.0840   5.0841   6.5634   6.5636   6.5979   6.5980   7.0812   7.0813

          k = 0.0000-0.5036 0.0000 (  5126 PWs)   bands (ev):

   -64.8292 -64.8288 -64.8246 -64.8241 -31.6142 -31.6140 -31.6090 -31.6088
   -31.5965 -31.5964 -31.5875 -31.5874 -31.5840 -31.5838 -31.5804 -31.5802
    -8.6342  -8.6335  -7.8620  -7.8619   4.8480   4.8491   4.8655   4.8667
     5.1158   5.1163   5.9366   5.9369   6.9385   6.9392   6.9711   6.9718

          k = 0.0000-0.5036 0.2500 (  5140 PWs)   bands (ev):

   -64.8285 -64.8281 -64.8252 -64.8247 -31.6159 -31.6157 -31.6100 -31.6097
   -31.6073 -31.6072 -31.5894 -31.5891 -31.5791 -31.5791 -31.5729 -31.5728
    -8.4998  -8.4992  -7.9493  -7.9492   4.4072   4.4077   4.7285   4.7289
     5.0978   5.0989   6.5425   6.5429   6.5780   6.5788   7.0891   7.0893

          k = 0.0000-0.5036-0.5000 (  5160 PWs)   bands (ev):

   -64.8269 -64.8269 -64.8268 -64.8259 -31.6173 -31.6171 -31.6170 -31.6170
   -31.6005 -31.6003 -31.6003 -31.6000 -31.5718 -31.5716 -31.5715 -31.5715
    -8.2011  -8.2010  -8.2007  -8.2006   4.2661   4.2662   4.2662   4.2663
     5.7695   5.7696   5.7705   5.7706   7.0736   7.0737   7.0739   7.0741

          k = 0.2482 0.0000 0.0000 (  5158 PWs)   bands (ev):

   -64.8326 -64.8259 -64.8243 -64.8238 -31.6253 -31.6236 -31.6196 -31.5989
   -31.5973 -31.5962 -31.5938 -31.5877 -31.5834 -31.5830 -31.5706 -31.5661
    -9.1607  -8.1470  -7.8852  -7.8721   4.0434   4.0661   4.0822   5.8186
     5.8306   6.1808   6.2160   6.5466   6.5876   6.6722   7.4378   7.4602

          k = 0.2482 0.0000 0.2500 (  5149 PWs)   bands (ev):

   -64.8313 -64.8257 -64.8253 -64.8242 -31.6244 -31.6207 -31.6145 -31.6090
   -31.5939 -31.5899 -31.5895 -31.5895 -31.5883 -31.5859 -31.5700 -31.5696
    -8.9701  -8.0781  -8.0648  -7.8819   4.1594   4.1652   4.3446   5.0707
     5.8679   6.0293   6.0629   6.5058   6.5175   6.5598   7.1574   7.5078

          k = 0.2482 0.0000-0.5000 (  5140 PWs)   bands (ev):

   -64.8286 -64.8282 -64.8252 -64.8246 -31.6191 -31.6189 -31.6100 -31.6100
   -31.6009 -31.6007 -31.5847 -31.5847 -31.5804 -31.5801 -31.5784 -31.5782
    -8.5124  -8.5123  -7.9503  -7.9502   4.4285   4.4286   4.7678   4.7681
     5.1091   5.1092   6.5316   6.5319   6.5534   6.5534   7.1062   7.1063

          k = 0.2482 0.2518 0.0000 (  5148 PWs)   bands (ev):

   -64.8313 -64.8257 -64.8252 -64.8243 -31.6245 -31.6187 -31.6167 -31.6073
   -31.5946 -31.5923 -31.5923 -31.5895 -31.5858 -31.5826 -31.5747 -31.5667
    -8.9664  -8.0776  -8.0512  -7.8907   4.1551   4.1679   4.3282   5.0710
     5.8467   6.0214   6.0892   6.4723   6.4959   6.5844   7.1733   7.5048

          k = 0.2482 0.2518 0.2500 (  5154 PWs)   bands (ev):

   -64.8303 -64.8257 -64.8256 -64.8249 -31.6265 -31.6244 -31.6233 -31.6055
   -31.5941 -31.5934 -31.5927 -31.5862 -31.5823 -31.5800 -31.5739 -31.5674
    -8.7966  -8.0407  -8.0312  -8.0218   3.9975   4.0001   4.0033   5.0888
     5.8345   5.8452   5.8560   6.6846   6.7057   6.7257   7.3525   7.3570

          k = 0.2482 0.2518-0.5000 (  5146 PWs)   bands (ev):

   -64.8281 -64.8277 -64.8257 -64.8251 -31.6278 -31.6276 -31.6209 -31.6208
   -31.5934 -31.5931 -31.5808 -31.5807 -31.5793 -31.5792 -31.5738 -31.5736
    -8.3996  -8.3995  -7.9978  -7.9977   3.8214   3.8215   4.1976   4.1977
     5.8293   5.8294   6.7401   6.7404   6.8681   6.8683   7.0157   7.0158

          k = 0.2482-0.5036 0.0000 (  5148 PWs)   bands (ev):

   -64.8285 -64.8281 -64.8252 -64.8247 -31.6185 -31.6183 -31.6085 -31.6084
   -31.6058 -31.6056 -31.5853 -31.5851 -31.5806 -31.5806 -31.5762 -31.5761
    -8.5020  -8.5014  -7.9519  -7.9517   4.4177   4.4182   4.7454   4.7458
     5.1094   5.1105   6.5264   6.5268   6.5561   6.5569   7.1010   7.1012

          k = 0.2482-0.5036 0.2500 (  5136 PWs)   bands (ev):

   -64.8280 -64.8276 -64.8257 -64.8252 -31.6280 -31.6278 -31.6201 -31.6200
   -31.5946 -31.5944 -31.5807 -31.5805 -31.5771 -31.5771 -31.5744 -31.5744
    -8.3930  -8.3925  -8.0000  -7.9999   3.8196   3.8197   4.1863   4.1868
     5.8308   5.8308   6.7340   6.7342   6.8782   6.8785   7.0036   7.0040

          k = 0.2482-0.5036-0.5000 (  5132 PWs)   bands (ev):

   -64.8269 -64.8268 -64.8268 -64.8259 -31.6308 -31.6305 -31.6305 -31.6305
   -31.5858 -31.5856 -31.5856 -31.5855 -31.5716 -31.5714 -31.5713 -31.5712
    -8.1659  -8.1658  -8.1656  -8.1655   3.6310   3.6311   3.6313   3.6313
     6.5151   6.5151   6.5157   6.5157   7.0743   7.0744   7.0745   7.0747

          k =-0.4965 0.0000 0.0000 (  5150 PWs)   bands (ev):

   -64.8294 -64.8290 -64.8243 -64.8238 -31.6101 -31.6098 -31.6060 -31.6058
   -31.6050 -31.6050 -31.5973 -31.5972 -31.5793 -31.5790 -31.5758 -31.5755
    -8.6592  -8.6584  -7.8520  -7.8519   4.8277   4.8289   4.8459   4.8471
     5.1283   5.1288   6.0082   6.0085   6.9639   6.9645   6.9973   6.9979

          k =-0.4965 0.0000 0.2500 (  5152 PWs)   bands (ev):

   -64.8287 -64.8283 -64.8250 -64.8245 -31.6179 -31.6178 -31.6119 -31.6118
   -31.6017 -31.6015 -31.5872 -31.5871 -31.5798 -31.5796 -31.5762 -31.5760
    -8.5209  -8.5202  -7.9456  -7.9455   4.4280   4.4286   4.7727   4.7731
     5.0946   5.0958   6.5523   6.5527   6.5719   6.5727   7.0983   7.0985

          k =-0.4965 0.0000-0.5000 (  5192 PWs)   bands (ev):

   -64.8269 -64.8269 -64.8268 -64.8259 -31.6199 -31.6197 -31.6196 -31.6195
   -31.5918 -31.5916 -31.5916 -31.5913 -31.5788 -31.5786 -31.5784 -31.5784
    -8.2110  -8.2109  -8.2106  -8.2105   4.3199   4.3200   4.3201   4.3202
     5.7649   5.7649   5.7659   5.7660   7.0518   7.0519   7.0521   7.0523

          k =-0.4965 0.2518 0.0000 (  5152 PWs)   bands (ev):

   -64.8287 -64.8283 -64.8250 -64.8245 -31.6159 -31.6158 -31.6116 -31.6115
   -31.6067 -31.6065 -31.5849 -31.5848 -31.5837 -31.5835 -31.5723 -31.5722
    -8.5185  -8.5179  -7.9429  -7.9427   4.4184   4.4190   4.7558   4.7562
     5.0811   5.0823   6.5681   6.5685   6.5943   6.5951   7.0851   7.0854

          k =-0.4965 0.2518 0.2500 (  5140 PWs)   bands (ev):

   -64.8281 -64.8278 -64.8256 -64.8250 -31.6275 -31.6274 -31.6213 -31.6212
   -31.5907 -31.5905 -31.5829 -31.5828 -31.5791 -31.5790 -31.5737 -31.5735
    -8.4065  -8.4059  -7.9952  -7.9951   3.8228   3.8229   4.2087   4.2091
     5.8290   5.8290   6.7453   6.7455   6.8576   6.8579   7.0272   7.0276

          k =-0.4965 0.2518-0.5000 (  5144 PWs)   bands (ev):

   -64.8269 -64.8269 -64.8268 -64.8259 -31.6317 -31.6314 -31.6314 -31.6314
   -31.5801 -31.5800 -31.5798 -31.5798 -31.5769 -31.5766 -31.5766 -31.5765
    -8.1710  -8.1708  -8.1706  -8.1705   3.6490   3.6491   3.6493   3.6493
     6.5324   6.5325   6.5330   6.5331   7.0531   7.0532   7.0533   7.0535

          k =-0.4965-0.5036 0.0000 (  5188 PWs)   bands (ev):

   -64.8269 -64.8269 -64.8268 -64.8259 -31.6186 -31.6184 -31.6183 -31.6182
   -31.5968 -31.5967 -31.5967 -31.5964 -31.5752 -31.5751 -31.5749 -31.5748
    -8.2060  -8.2056  -8.2055  -8.2052   4.2930   4.2931   4.2932   4.2933
     5.7659   5.7667   5.7671   5.7679   7.0622   7.0625   7.0625   7.0628

          k =-0.4965-0.5036 0.2500 (  5152 PWs)   bands (ev):

   -64.8269 -64.8269 -64.8268 -64.8259 -31.6316 -31.6314 -31.6313 -31.6313
   -31.5838 -31.5837 -31.5836 -31.5835 -31.5738 -31.5736 -31.5735 -31.5734
    -8.1684  -8.1682  -8.1681  -8.1678   3.6398   3.6400   3.6401   3.6403
     6.5233   6.5237   6.5240   6.5244   7.0634   7.0636   7.0636   7.0638

          k =-0.4965-0.5036-0.5000 (  5136 PWs)   bands (ev):

   -64.8269 -64.8268 -64.8268 -64.8259 -31.6393 -31.6391 -31.6391 -31.6390
   -31.5781 -31.5778 -31.5778 -31.5777 -31.5710 -31.5708 -31.5708 -31.5707
    -8.1302  -8.1300  -8.1300  -8.1300   3.2172   3.2174   3.2174   3.2174
     7.0525   7.0525   7.0526   7.0528   7.0766   7.0767   7.0768   7.0769

          k = 0.0000-0.2518 0.2500 (  5157 PWs)   bands (ev):

   -64.8313 -64.8256 -64.8253 -64.8244 -31.6229 -31.6204 -31.6167 -31.6046
   -31.5987 -31.5979 -31.5903 -31.5859 -31.5836 -31.5828 -31.5791 -31.5654
    -8.9629  -8.0640  -8.0509  -7.8999   4.1564   4.1631   4.3127   5.0715
     5.8260   6.0476   6.0819   6.4518   6.4636   6.6071   7.1885   7.5023

          k =-0.2482 0.0000 0.2500 (  5149 PWs)   bands (ev):

   -64.8313 -64.8257 -64.8253 -64.8242 -31.6244 -31.6207 -31.6145 -31.6090
   -31.5939 -31.5899 -31.5895 -31.5895 -31.5883 -31.5859 -31.5700 -31.5696
    -8.9701  -8.0781  -8.0648  -7.8819   4.1594   4.1652   4.3446   5.0707
     5.8679   6.0293   6.0629   6.5058   6.5175   6.5598   7.1574   7.5078

          k =-0.2482 0.2518 0.0000 (  5148 PWs)   bands (ev):

   -64.8313 -64.8257 -64.8252 -64.8243 -31.6245 -31.6187 -31.6167 -31.6073
   -31.5946 -31.5923 -31.5923 -31.5895 -31.5858 -31.5826 -31.5747 -31.5667
    -8.9664  -8.0776  -8.0512  -7.8907   4.1551   4.1679   4.3282   5.0710
     5.8467   6.0214   6.0892   6.4723   6.4959   6.5844   7.1733   7.5048

          k =-0.2482-0.2518 0.2500 (  5154 PWs)   bands (ev):

   -64.8303 -64.8257 -64.8256 -64.8249 -31.6265 -31.6244 -31.6233 -31.6055
   -31.5941 -31.5934 -31.5927 -31.5862 -31.5823 -31.5800 -31.5739 -31.5674
    -8.7966  -8.0407  -8.0312  -8.0218   3.9975   4.0001   4.0033   5.0888
     5.8345   5.8452   5.8560   6.6846   6.7057   6.7257   7.3525   7.3570

          k =-0.2482 0.2518-0.2500 (  5154 PWs)   bands (ev):

   -64.8303 -64.8257 -64.8256 -64.8249 -31.6265 -31.6244 -31.6233 -31.6055
   -31.5941 -31.5934 -31.5927 -31.5862 -31.5823 -31.5800 -31.5739 -31.5674
    -8.7966  -8.0407  -8.0312  -8.0218   3.9975   4.0001   4.0033   5.0888
     5.8345   5.8452   5.8560   6.6846   6.7057   6.7257   7.3525   7.3570

          k = 0.2482-0.2518-0.2500 (  5154 PWs)   bands (ev):

   -64.8303 -64.8257 -64.8256 -64.8249 -31.6265 -31.6244 -31.6233 -31.6055
   -31.5941 -31.5934 -31.5927 -31.5862 -31.5823 -31.5800 -31.5739 -31.5674
    -8.7966  -8.0407  -8.0312  -8.0218   3.9975   4.0001   4.0033   5.0888
     5.8345   5.8452   5.8560   6.6846   6.7057   6.7257   7.3525   7.3570

          k =-0.2482 0.2518 0.5000 (  5146 PWs)   bands (ev):

   -64.8281 -64.8277 -64.8257 -64.8251 -31.6278 -31.6277 -31.6209 -31.6207
   -31.5934 -31.5931 -31.5808 -31.5807 -31.5793 -31.5793 -31.5738 -31.5736
    -8.3996  -8.3995  -7.9978  -7.9977   3.8214   3.8215   4.1976   4.1977
     5.8293   5.8294   6.7401   6.7404   6.8681   6.8683   7.0157   7.0158

          k =-0.2482 0.5036 0.2500 (  5136 PWs)   bands (ev):

   -64.8280 -64.8276 -64.8257 -64.8252 -31.6280 -31.6278 -31.6201 -31.6200
   -31.5946 -31.5944 -31.5807 -31.5805 -31.5771 -31.5771 -31.5744 -31.5744
    -8.3930  -8.3925  -8.0000  -7.9999   3.8196   3.8197   4.1863   4.1868
     5.8308   5.8308   6.7340   6.7342   6.8782   6.8785   7.0036   7.0040

          k = 0.4965-0.2518 0.2500 (  5140 PWs)   bands (ev):

   -64.8281 -64.8278 -64.8256 -64.8250 -31.6275 -31.6274 -31.6213 -31.6212
   -31.5907 -31.5905 -31.5829 -31.5828 -31.5791 -31.5790 -31.5737 -31.5735
    -8.4065  -8.4059  -7.9952  -7.9951   3.8228   3.8229   4.2087   4.2091
     5.8290   5.8290   6.7453   6.7455   6.8576   6.8579   7.0272   7.0276

     highest occupied level (ev):     7.6873

!    total energy              =    -608.39246788 Ry
     Harris-Foulkes estimate   =    -608.39246788 Ry
     estimated scf accuracy    <          4.2E-11 Ry

     The total energy is the sum of the following terms:

     one-electron contribution =    -303.59266121 Ry
     hartree contribution      =     168.08635984 Ry
     xc contribution           =     -97.84720519 Ry
     ewald contribution        =    -375.03896132 Ry

     convergence has been achieved in   4 iterations

     Forces acting on atoms (cartesian axes, Ry/au):

     atom    1 type  1   force =     0.00004450   -0.00003777    0.00000034
     atom    2 type  1   force =    -0.00001735    0.00001011   -0.00000004
     atom    3 type  1   force =     0.00000420    0.00000341   -0.00000005
     atom    4 type  1   force =     0.00000869    0.00000785   -0.00000002
     atom    5 type  2   force =     0.00000364    0.00001565   -0.00000007
     atom    6 type  2   force =    -0.00001157   -0.00002371   -0.00000006
     atom    7 type  2   force =    -0.00001180    0.00001618    0.00000005
     atom    8 type  2   force =    -0.00002030    0.00000828   -0.00000015

     Total force =     0.000076     Total SCF correction =     0.000026
     SCF correction compared to forces is large: reduce conv_thr to get better values


     Computing stress (Cartesian axis) and pressure

          total   stress  (Ry/bohr**3)                   (kbar)     P=  -67.81
  -0.00054553   0.00000001  -0.00000000        -80.25      0.00     -0.00
   0.00000001  -0.00037296   0.00000000          0.00    -54.86      0.00
  -0.00000000   0.00000000  -0.00046447         -0.00      0.00    -68.33


     bfgs converged in   7 scf cycles and   6 bfgs steps
     (criteria: energy <  1.0E-05 Ry, force <  1.0E-04 Ry/Bohr)

     End of BFGS Geometry Optimization

     Final energy   =    -608.3924678778 Ry
Begin final coordinates

ATOMIC_POSITIONS (alat)
Mg      -0.001643512   0.001654187  -0.000011797
Mg      -0.001783904   0.498256488   0.500012329
Mg       0.501728332   0.001795429   0.500012346
Mg       0.501711081   0.498269757  -0.000012777
O        0.501762672   0.001768986  -0.000012614
O       -0.001766594   0.498236259  -0.000012620
O       -0.001763351   0.001764933   0.500012608
O        0.501755275   0.498253960   0.500012525
End final coordinates



     Writing output data file diamond.1.007143.70.4.save
 
     init_run     :      0.63s CPU      0.65s WALL (       1 calls)
     electrons    :     64.02s CPU     65.08s WALL (       7 calls)
     update_pot   :      0.66s CPU      0.67s WALL (       6 calls)
     forces       :      1.28s CPU      1.28s WALL (       7 calls)
     stress       :      3.05s CPU      3.05s WALL (       7 calls)

     Called by init_run:
     wfcinit      :      0.51s CPU      0.53s WALL (       1 calls)
     potinit      :      0.05s CPU      0.05s WALL (       1 calls)

     Called by electrons:
     c_bands      :     56.16s CPU     57.04s WALL (      40 calls)
     sum_band     :      7.61s CPU      7.76s WALL (      40 calls)
     v_of_rho     :      0.22s CPU      0.22s WALL (      43 calls)
     mix_rho      :      0.03s CPU      0.03s WALL (      40 calls)

     Called by c_bands:
     init_us_2    :      0.84s CPU      0.85s WALL (    3420 calls)
     cegterg      :     52.34s CPU     53.18s WALL (    1440 calls)

     Called by sum_band:

     Called by *egterg:
     h_psi        :     38.42s CPU     39.23s WALL (    4843 calls)
     g_psi        :      0.29s CPU      0.30s WALL (    3367 calls)
     cdiaghg      :      7.41s CPU      7.42s WALL (    4447 calls)

     Called by h_psi:
     h_psi:pot    :     38.25s CPU     39.03s WALL (    4843 calls)
     h_psi:calbec :      2.15s CPU      2.16s WALL (    4843 calls)
     vloc_psi     :     34.29s CPU     35.05s WALL (    4843 calls)
     add_vuspsi   :      1.80s CPU      1.81s WALL (    4843 calls)

     General routines
     calbec       :      2.84s CPU      2.84s WALL (    6103 calls)
     fft          :      0.20s CPU      0.20s WALL (     655 calls)
     fftw         :     37.70s CPU     38.12s WALL (  295102 calls)
     davcio       :      0.00s CPU      0.01s WALL (      36 calls)
 
     Parallel routines
     fft_scatter  :     10.58s CPU     10.19s WALL (  295757 calls)
 
     PWSCF        :  1m10.18s CPU     1m11.47s WALL

 
   This run was terminated on:  16:20:42  22Apr2018            

=------------------------------------------------------------------------------=
   JOB DONE.
=------------------------------------------------------------------------------=
