
     Program PWSCF v.6.1 (svn rev. 13369) starts on 22Apr2018 at 16:18:16 

     This program is part of the open-source Quantum ESPRESSO suite
     for quantum simulation of materials; please cite
         "P. Giannozzi et al., J. Phys.:Condens. Matter 21 395502 (2009);
          URL http://www.quantum-espresso.org", 
     in publications or presentations arising from this work. More details at
     http://www.quantum-espresso.org/quote

     Parallel version (MPI), running on     8 processors
     R & G space division:  proc/nbgrp/npool/nimage =       8
     Waiting for input...
     Reading input from standard input
Warning: card       &CELL ignored
Warning: card       CELL_DYNAMICS = 'BFGS' ignored
Warning: card       PRESS = 0.0D0 ignored
Warning: card       PRESS_CONV_THR = 0.01D0 ignored
Warning: card       / ignored

     Current dimensions of program PWSCF are:
     Max number of different atomic species (ntypx) = 10
     Max number of k-points (npk) =  40000
     Max angular momentum in pseudopotentials (lmaxx) =  3

     Subspace diagonalization in iterative solution of the eigenvalue problem:
     a serial algorithm will be used

 
     Parallelization info
     --------------------
     sticks:   dense  smooth     PW     G-vecs:    dense   smooth      PW
     Min         180     180     52                 5152     5152     816
     Max         181     181     53                 5155     5155     819
     Sum        1445    1445    421                41227    41227    6547
 


     bravais-lattice index     =            0
     lattice parameter (alat)  =       8.0448  a.u.
     unit-cell volume          =     520.6402 (a.u.)^3
     number of atoms/cell      =            8
     number of atomic types    =            2
     number of electrons       =        64.00
     number of Kohn-Sham states=           32
     kinetic-energy cutoff     =      70.0000  Ry
     charge density cutoff     =     280.0000  Ry
     convergence threshold     =      1.0E-08
     mixing beta               =       0.7000
     number of iterations used =            8  plain     mixing
     Exchange-correlation      = PBE ( 1  4  3  4 0 0)
     nstep                     =           50


     celldm(1)=   8.044750  celldm(2)=   0.000000  celldm(3)=   0.000000
     celldm(4)=   0.000000  celldm(5)=   0.000000  celldm(6)=   0.000000

     crystal axes: (cart. coord. in units of alat)
               a(1) = (   1.006429   0.000000   0.000000 )  
               a(2) = (   0.000000   0.993571   0.000000 )  
               a(3) = (   0.000000   0.000000   1.000041 )  

     reciprocal axes: (cart. coord. in units 2 pi/alat)
               b(1) = (  0.993612  0.000000  0.000000 )  
               b(2) = (  0.000000  1.006471  0.000000 )  
               b(3) = (  0.000000  0.000000  0.999959 )  


     PseudoPot. # 1 for Mg read from file:
     ../pseudo/Mg.pbe.UPF
     MD5 check sum: 4c04d8c6e0476e83eaecaf72fa8acc4d
     Pseudo is Norm-conserving, Zval = 10.0
     Generated using ONCVPSP code by D. R. Hamann
     Using radial grid of 1510 points,  4 beta functions with: 
                l(1) =   0
                l(2) =   0
                l(3) =   1
                l(4) =   1

     PseudoPot. # 2 for O  read from file:
     ../pseudo/O.pbe.UPF
     MD5 check sum: 3e3f909f7470e8921608ab6b1f57bbae
     Pseudo is Norm-conserving + core correction, Zval =  6.0
     Generated using ONCVPSP code by D. R. Hamann
     Using radial grid of  936 points,  5 beta functions with: 
                l(1) =   0
                l(2) =   0
                l(3) =   1
                l(4) =   1
                l(5) =   2

     atomic species   valence    mass     pseudopotential
        Mg            10.00    24.30500     Mg( 1.00)
        O              6.00    15.99940     O ( 1.00)

     No symmetry found



   Cartesian axes

     site n.     atom                  positions (alat units)
         1           Mg  tau(   1) = (   0.0000000   0.0000000   0.0000000  )
         2           Mg  tau(   2) = (   0.0000000   0.5000000   0.5000000  )
         3           Mg  tau(   3) = (   0.5000000   0.0000000   0.5000000  )
         4           Mg  tau(   4) = (   0.5000000   0.5000000   0.0000000  )
         5           O   tau(   5) = (   0.5000000   0.0000000   0.0000000  )
         6           O   tau(   6) = (   0.0000000   0.5000000   0.0000000  )
         7           O   tau(   7) = (   0.0000000   0.0000000   0.5000000  )
         8           O   tau(   8) = (   0.5000000   0.5000000   0.5000000  )

     number of k points=    36
                       cart. coord. in units 2pi/alat
        k(    1) = (   0.0000000   0.0000000   0.0000000), wk =   0.0312500
        k(    2) = (   0.0000000   0.0000000   0.2499897), wk =   0.0625000
        k(    3) = (   0.0000000   0.0000000  -0.4999793), wk =   0.0312500
        k(    4) = (   0.0000000   0.2516176   0.0000000), wk =   0.0625000
        k(    5) = (   0.0000000   0.2516176   0.2499897), wk =   0.0625000
        k(    6) = (   0.0000000   0.2516176  -0.4999793), wk =   0.0625000
        k(    7) = (   0.0000000  -0.5032353   0.0000000), wk =   0.0312500
        k(    8) = (   0.0000000  -0.5032353   0.2499897), wk =   0.0625000
        k(    9) = (   0.0000000  -0.5032353  -0.4999793), wk =   0.0312500
        k(   10) = (   0.2484030   0.0000000   0.0000000), wk =   0.0625000
        k(   11) = (   0.2484030   0.0000000   0.2499897), wk =   0.0625000
        k(   12) = (   0.2484030   0.0000000  -0.4999793), wk =   0.0625000
        k(   13) = (   0.2484030   0.2516176   0.0000000), wk =   0.0625000
        k(   14) = (   0.2484030   0.2516176   0.2499897), wk =   0.0625000
        k(   15) = (   0.2484030   0.2516176  -0.4999793), wk =   0.0625000
        k(   16) = (   0.2484030  -0.5032353   0.0000000), wk =   0.0625000
        k(   17) = (   0.2484030  -0.5032353   0.2499897), wk =   0.0625000
        k(   18) = (   0.2484030  -0.5032353  -0.4999793), wk =   0.0625000
        k(   19) = (  -0.4968060   0.0000000   0.0000000), wk =   0.0312500
        k(   20) = (  -0.4968060   0.0000000   0.2499897), wk =   0.0625000
        k(   21) = (  -0.4968060   0.0000000  -0.4999793), wk =   0.0312500
        k(   22) = (  -0.4968060   0.2516176   0.0000000), wk =   0.0625000
        k(   23) = (  -0.4968060   0.2516176   0.2499897), wk =   0.0625000
        k(   24) = (  -0.4968060   0.2516176  -0.4999793), wk =   0.0625000
        k(   25) = (  -0.4968060  -0.5032353   0.0000000), wk =   0.0312500
        k(   26) = (  -0.4968060  -0.5032353   0.2499897), wk =   0.0625000
        k(   27) = (  -0.4968060  -0.5032353  -0.4999793), wk =   0.0312500
        k(   28) = (   0.0000000  -0.2516176   0.2499897), wk =   0.0625000
        k(   29) = (  -0.2484030   0.0000000   0.2499897), wk =   0.0625000
        k(   30) = (  -0.2484030   0.2516176   0.0000000), wk =   0.0625000
        k(   31) = (  -0.2484030  -0.2516176   0.2499897), wk =   0.0625000
        k(   32) = (  -0.2484030   0.2516176  -0.2499897), wk =   0.0625000
        k(   33) = (   0.2484030  -0.2516176  -0.2499897), wk =   0.0625000
        k(   34) = (  -0.2484030   0.2516176   0.4999793), wk =   0.0625000
        k(   35) = (  -0.2484030   0.5032353   0.2499897), wk =   0.0625000
        k(   36) = (   0.4968060  -0.2516176   0.2499897), wk =   0.0625000

     Dense  grid:    41227 G-vectors     FFT dimensions: (  45,  45,  45)

     Estimated max dynamical RAM per process >      17.22MB

     Estimated total allocated dynamical RAM >     137.72MB

     Check: negative/imaginary core charge=   -0.000007    0.000000

     Initial potential from superposition of free atoms

     starting charge   63.99678, renormalised to   64.00000
     Starting wfc are   36 randomized atomic wfcs

     total cpu time spent up to now is        0.8 secs

     per-process dynamical memory:    51.3 Mb

     Self-consistent Calculation

     iteration #  1     ecut=    70.00 Ry     beta=0.70
     Davidson diagonalization with overlap
     ethr =  1.00E-02,  avg # of iterations =  2.0

     total cpu time spent up to now is        2.3 secs

     total energy              =    -607.71979800 Ry
     Harris-Foulkes estimate   =    -608.84375248 Ry
     estimated scf accuracy    <       1.56185850 Ry

     iteration #  2     ecut=    70.00 Ry     beta=0.70
     Davidson diagonalization with overlap
     ethr =  2.44E-03,  avg # of iterations =  2.9

     total cpu time spent up to now is        3.9 secs

     total energy              =    -608.10530199 Ry
     Harris-Foulkes estimate   =    -608.80254287 Ry
     estimated scf accuracy    <       1.44725296 Ry

     iteration #  3     ecut=    70.00 Ry     beta=0.70
     Davidson diagonalization with overlap
     ethr =  2.26E-03,  avg # of iterations =  2.0

     total cpu time spent up to now is        5.4 secs

     total energy              =    -608.39067438 Ry
     Harris-Foulkes estimate   =    -608.39134200 Ry
     estimated scf accuracy    <       0.00676813 Ry

     iteration #  4     ecut=    70.00 Ry     beta=0.70
     Davidson diagonalization with overlap
     ethr =  1.06E-05,  avg # of iterations =  2.0

     total cpu time spent up to now is        6.9 secs

     total energy              =    -608.39215637 Ry
     Harris-Foulkes estimate   =    -608.39220094 Ry
     estimated scf accuracy    <       0.00011069 Ry

     iteration #  5     ecut=    70.00 Ry     beta=0.70
     Davidson diagonalization with overlap
     ethr =  1.73E-07,  avg # of iterations =  1.8

     total cpu time spent up to now is        8.2 secs

     total energy              =    -608.39216404 Ry
     Harris-Foulkes estimate   =    -608.39216248 Ry
     estimated scf accuracy    <       0.00001022 Ry

     iteration #  6     ecut=    70.00 Ry     beta=0.70
     Davidson diagonalization with overlap
     ethr =  1.60E-08,  avg # of iterations =  2.0

     total cpu time spent up to now is        9.8 secs

     total energy              =    -608.39216544 Ry
     Harris-Foulkes estimate   =    -608.39216585 Ry
     estimated scf accuracy    <       0.00000088 Ry

     iteration #  7     ecut=    70.00 Ry     beta=0.70
     Davidson diagonalization with overlap
     ethr =  1.37E-09,  avg # of iterations =  2.0

     total cpu time spent up to now is       11.3 secs

     total energy              =    -608.39216549 Ry
     Harris-Foulkes estimate   =    -608.39216556 Ry
     estimated scf accuracy    <       0.00000020 Ry

     iteration #  8     ecut=    70.00 Ry     beta=0.70
     Davidson diagonalization with overlap
     ethr =  3.12E-10,  avg # of iterations =  2.0

     total cpu time spent up to now is       12.7 secs

     total energy              =    -608.39216548 Ry
     Harris-Foulkes estimate   =    -608.39216551 Ry
     estimated scf accuracy    <       0.00000005 Ry

     iteration #  9     ecut=    70.00 Ry     beta=0.70
     Davidson diagonalization with overlap
     ethr =  7.84E-11,  avg # of iterations =  2.0

     total cpu time spent up to now is       14.4 secs

     End of self-consistent calculation

          k = 0.0000 0.0000 0.0000 (  5149 PWs)   bands (ev):

   -64.8333 -64.8240 -64.8237 -64.8230 -31.6331 -31.6299 -31.6256 -31.5963
   -31.5948 -31.5930 -31.5908 -31.5898 -31.5883 -31.5690 -31.5628 -31.5593
    -9.3658  -7.9315  -7.9147  -7.8980   3.7371   3.7568   3.7801   6.3338
     6.3403   6.3735   6.3850   6.4201   6.4251   7.6563   7.6723   7.6852

          k = 0.0000 0.0000 0.2500 (  5153 PWs)   bands (ev):

   -64.8319 -64.8251 -64.8239 -64.8232 -31.6272 -31.6196 -31.6193 -31.6017
   -31.5940 -31.5925 -31.5913 -31.5912 -31.5845 -31.5770 -31.5738 -31.5664
    -9.1574  -8.1296  -7.8982  -7.8743   4.0286   4.0685   4.0942   5.8472
     5.8678   6.1382   6.2006   6.5067   6.5804   6.6588   7.4300   7.4694

          k = 0.0000 0.0000-0.5000 (  5126 PWs)   bands (ev):

   -64.8287 -64.8282 -64.8238 -64.8233 -31.6140 -31.6137 -31.6052 -31.6049
   -31.6002 -31.6001 -31.5904 -31.5904 -31.5824 -31.5822 -31.5759 -31.5757
    -8.6472  -8.6469  -7.8576  -7.8575   4.8303   4.8307   4.8630   4.8634
     5.1227   5.1231   5.9720   5.9723   6.9387   6.9389   6.9980   6.9982

          k = 0.0000 0.2516 0.0000 (  5161 PWs)   bands (ev):

   -64.8319 -64.8249 -64.8239 -64.8233 -31.6270 -31.6231 -31.6167 -31.6005
   -31.5959 -31.5927 -31.5893 -31.5892 -31.5883 -31.5740 -31.5735 -31.5705
    -9.1538  -8.1134  -7.8987  -7.8867   4.0329   4.0514   4.1055   5.8834
     5.8927   6.1296   6.1604   6.5014   6.5389   6.6447   7.4415   7.4607

          k = 0.0000 0.2516 0.2500 (  5157 PWs)   bands (ev):

   -64.8307 -64.8250 -64.8246 -64.8237 -31.6221 -31.6199 -31.6165 -31.6043
   -31.5979 -31.5971 -31.5899 -31.5852 -31.5835 -31.5825 -31.5782 -31.5651
    -8.9640  -8.0645  -8.0525  -7.8993   4.1562   4.1627   4.3138   5.0711
     5.8278   6.0476   6.0792   6.4546   6.4657   6.6050   7.1869   7.5022

          k = 0.0000 0.2516-0.5000 (  5146 PWs)   bands (ev):

   -64.8280 -64.8275 -64.8245 -64.8239 -31.6144 -31.6142 -31.6103 -31.6101
   -31.6078 -31.6077 -31.5875 -31.5872 -31.5810 -31.5809 -31.5710 -31.5708
    -8.5088  -8.5086  -7.9455  -7.9454   4.4088   4.4090   4.7350   4.7352
     5.0850   5.0853   6.5589   6.5591   6.5981   6.5983   7.0825   7.0826

          k = 0.0000-0.5032 0.0000 (  5126 PWs)   bands (ev):

   -64.8287 -64.8280 -64.8239 -64.8234 -31.6142 -31.6125 -31.6094 -31.6075
   -31.5974 -31.5951 -31.5874 -31.5874 -31.5834 -31.5824 -31.5803 -31.5790
    -8.6531  -8.6181  -7.8621  -7.8617   4.8205   4.8360   4.8757   4.8913
     5.1054   5.1282   5.9397   5.9400   6.9244   6.9544   6.9587   6.9879

          k = 0.0000-0.5032 0.2500 (  5142 PWs)   bands (ev):

   -64.8280 -64.8274 -64.8246 -64.8240 -31.6161 -31.6151 -31.6102 -31.6087
   -31.6071 -31.6059 -31.5890 -31.5877 -31.5790 -31.5786 -31.5726 -31.5724
    -8.5165  -8.4856  -7.9524  -7.9467   4.3974   4.4186   4.7178   4.7430
     5.0718   5.1251   6.5299   6.5511   6.5616   6.5994   7.0839   7.0948

          k = 0.0000-0.5032-0.5000 (  5160 PWs)   bands (ev):

   -64.8264 -64.8262 -64.8261 -64.8252 -31.6172 -31.6170 -31.6164 -31.6163
   -31.6002 -31.5999 -31.5987 -31.5985 -31.5718 -31.5716 -31.5711 -31.5709
    -8.2115  -8.2114  -8.1923  -8.1921   4.2636   4.2637   4.2733   4.2735
     5.7457   5.7460   5.7936   5.7939   7.0645   7.0647   7.0801   7.0803

          k = 0.2484 0.0000 0.0000 (  5164 PWs)   bands (ev):

   -64.8319 -64.8253 -64.8237 -64.8231 -31.6246 -31.6231 -31.6198 -31.5982
   -31.5966 -31.5955 -31.5935 -31.5873 -31.5834 -31.5822 -31.5703 -31.5664
    -9.1611  -8.1454  -7.8857  -7.8738   4.0430   4.0640   4.0831   5.8224
     5.8337   6.1792   6.2108   6.5463   6.5826   6.6705   7.4386   7.4589

          k = 0.2484 0.0000 0.2500 (  5151 PWs)   bands (ev):

   -64.8307 -64.8251 -64.8247 -64.8235 -31.6236 -31.6202 -31.6147 -31.6084
   -31.5933 -31.5895 -31.5893 -31.5887 -31.5880 -31.5853 -31.5694 -31.5693
    -8.9705  -8.0769  -8.0653  -7.8831   4.1593   4.1641   4.3426   5.0703
     5.8654   6.0321   6.0616   6.5037   6.5125   6.5634   7.1591   7.5072

          k = 0.2484 0.0000-0.5000 (  5140 PWs)   bands (ev):

   -64.8280 -64.8275 -64.8245 -64.8239 -31.6184 -31.6182 -31.6096 -31.6095
   -31.6007 -31.6005 -31.5841 -31.5840 -31.5801 -31.5798 -31.5775 -31.5773
    -8.5129  -8.5126  -7.9502  -7.9502   4.4271   4.4272   4.7654   4.7657
     5.1077   5.1081   6.5291   6.5294   6.5593   6.5595   7.1049   7.1050

          k = 0.2484 0.2516 0.0000 (  5148 PWs)   bands (ev):

   -64.8307 -64.8251 -64.8246 -64.8236 -31.6239 -31.6182 -31.6164 -31.6068
   -31.5938 -31.5920 -31.5918 -31.5883 -31.5854 -31.5827 -31.5741 -31.5663
    -8.9673  -8.0765  -8.0528  -7.8911   4.1554   4.1671   4.3272   5.0711
     5.8462   6.0245   6.0855   6.4726   6.4938   6.5860   7.1735   7.5045

          k = 0.2484 0.2516 0.2500 (  5153 PWs)   bands (ev):

   -64.8297 -64.8251 -64.8250 -64.8242 -31.6256 -31.6240 -31.6229 -31.6051
   -31.5934 -31.5927 -31.5921 -31.5855 -31.5821 -31.5798 -31.5731 -31.5671
    -8.7974  -8.0400  -8.0317  -8.0231   3.9975   3.9996   4.0028   5.0884
     5.8355   5.8448   5.8549   6.6863   6.7056   6.7233   7.3525   7.3566

          k = 0.2484 0.2516-0.5000 (  5142 PWs)   bands (ev):

   -64.8275 -64.8270 -64.8250 -64.8244 -31.6271 -31.6271 -31.6204 -31.6202
   -31.5927 -31.5925 -31.5800 -31.5797 -31.5788 -31.5788 -31.5735 -31.5733
    -8.4003  -8.4001  -7.9980  -7.9980   3.8210   3.8212   4.1973   4.1976
     5.8291   5.8293   6.7390   6.7393   6.8679   6.8686   7.0159   7.0161

          k = 0.2484-0.5032 0.0000 (  5154 PWs)   bands (ev):

   -64.8280 -64.8274 -64.8246 -64.8240 -31.6183 -31.6173 -31.6087 -31.6077
   -31.6061 -31.6044 -31.5852 -31.5839 -31.5805 -31.5801 -31.5761 -31.5758
    -8.5186  -8.4876  -7.9549  -7.9485   4.4071   4.4285   4.7334   4.7584
     5.0812   5.1347   6.5184   6.5384   6.5386   6.5781   7.0951   7.1053

          k = 0.2484-0.5032 0.2500 (  5134 PWs)   bands (ev):

   -64.8275 -64.8270 -64.8251 -64.8245 -31.6275 -31.6274 -31.6197 -31.6193
   -31.5939 -31.5937 -31.5801 -31.5793 -31.5769 -31.5768 -31.5743 -31.5738
    -8.4072  -8.3808  -8.0003  -7.9999   3.8194   3.8196   4.1746   4.2005
     5.8299   5.8307   6.7341   6.7346   6.8716   6.8830   6.9927   7.0172

          k = 0.2484-0.5032-0.5000 (  5136 PWs)   bands (ev):

   -64.8263 -64.8262 -64.8262 -64.8252 -31.6304 -31.6301 -31.6301 -31.6300
   -31.5852 -31.5850 -31.5846 -31.5844 -31.5717 -31.5715 -31.5711 -31.5710
    -8.1734  -8.1733  -8.1596  -8.1595   3.6254   3.6255   3.6384   3.6385
     6.5019   6.5021   6.5300   6.5302   7.0675   7.0676   7.0784   7.0786

          k =-0.4968 0.0000 0.0000 (  5150 PWs)   bands (ev):

   -64.8289 -64.8283 -64.8237 -64.8232 -31.6102 -31.6084 -31.6071 -31.6052
   -31.6047 -31.6028 -31.5965 -31.5964 -31.5792 -31.5782 -31.5761 -31.5750
    -8.6754  -8.6408  -7.8531  -7.8527   4.8027   4.8195   4.8566   4.8733
     5.1182   5.1377   6.0040   6.0043   6.9482   6.9783   6.9812   7.0106

          k =-0.4968 0.0000 0.2500 (  5152 PWs)   bands (ev):

   -64.8281 -64.8276 -64.8244 -64.8239 -31.6177 -31.6168 -31.6119 -31.6107
   -31.6022 -31.6005 -31.5866 -31.5860 -31.5802 -31.5789 -31.5756 -31.5753
    -8.5353  -8.5047  -7.9494  -7.9430   4.4158   4.4377   4.7589   4.7815
     5.0697   5.1217   6.5369   6.5585   6.5588   6.5943   7.0932   7.1020

          k =-0.4968 0.0000-0.5000 (  5192 PWs)   bands (ev):

   -64.8264 -64.8262 -64.8261 -64.8252 -31.6197 -31.6195 -31.6188 -31.6187
   -31.5922 -31.5919 -31.5909 -31.5906 -31.5782 -31.5780 -31.5775 -31.5774
    -8.2206  -8.2204  -8.2011  -8.2009   4.3126   4.3128   4.3211   4.3213
     5.7423   5.7426   5.7889   5.7892   7.0444   7.0446   7.0609   7.0611

          k =-0.4968 0.2516 0.0000 (  5156 PWs)   bands (ev):

   -64.8281 -64.8276 -64.8244 -64.8239 -31.6159 -31.6151 -31.6115 -31.6103
   -31.6071 -31.6056 -31.5846 -31.5840 -31.5836 -31.5825 -31.5721 -31.5718
    -8.5332  -8.5027  -7.9464  -7.9408   4.4076   4.4294   4.7438   4.7668
     5.0564   5.1085   6.5565   6.5739   6.5751   6.6116   7.0814   7.0908

          k =-0.4968 0.2516 0.2500 (  5138 PWs)   bands (ev):

   -64.8276 -64.8271 -64.8250 -64.8244 -31.6272 -31.6270 -31.6210 -31.6205
   -31.5902 -31.5900 -31.5820 -31.5818 -31.5784 -31.5783 -31.5737 -31.5730
    -8.4191  -8.3931  -7.9960  -7.9957   3.8222   3.8224   4.1954   4.2199
     5.8283   5.8291   6.7443   6.7447   6.8541   6.8635   7.0144   7.0380

          k =-0.4968 0.2516-0.5000 (  5152 PWs)   bands (ev):

   -64.8263 -64.8262 -64.8262 -64.8252 -31.6313 -31.6311 -31.6310 -31.6309
   -31.5800 -31.5797 -31.5796 -31.5794 -31.5764 -31.5762 -31.5761 -31.5761
    -8.1781  -8.1779  -8.1641  -8.1639   3.6417   3.6418   3.6544   3.6545
     6.5181   6.5183   6.5448   6.5450   7.0480   7.0482   7.0597   7.0599

          k =-0.4968-0.5032 0.0000 (  5188 PWs)   bands (ev):

   -64.8264 -64.8263 -64.8261 -64.8252 -31.6187 -31.6179 -31.6177 -31.6172
   -31.5975 -31.5962 -31.5960 -31.5947 -31.5752 -31.5747 -31.5743 -31.5739
    -8.2257  -8.2062  -8.2055  -8.1869   4.2839   4.2925   4.2935   4.3023
     5.7191   5.7659   5.7675   5.8138   7.0462   7.0625   7.0627   7.0782

          k =-0.4968-0.5032 0.2500 (  5148 PWs)   bands (ev):

   -64.8264 -64.8262 -64.8261 -64.8252 -31.6312 -31.6309 -31.6308 -31.6308
   -31.5833 -31.5828 -31.5826 -31.5822 -31.5736 -31.5734 -31.5730 -31.5729
    -8.1828  -8.1686  -8.1682  -8.1550   3.6271   3.6395   3.6403   3.6529
     6.4960   6.5232   6.5242   6.5508   7.0519   7.0636   7.0637   7.0745

          k =-0.4968-0.5032-0.5000 (  5136 PWs)   bands (ev):

   -64.8263 -64.8262 -64.8262 -64.8252 -31.6389 -31.6386 -31.6386 -31.6385
   -31.5772 -31.5770 -31.5770 -31.5769 -31.5708 -31.5706 -31.5706 -31.5704
    -8.1309  -8.1308  -8.1303  -8.1303   3.2171   3.2172   3.2173   3.2174
     7.0532   7.0533   7.0537   7.0538   7.0749   7.0750   7.0754   7.0755

          k = 0.0000-0.2516 0.2500 (  5157 PWs)   bands (ev):

   -64.8307 -64.8250 -64.8246 -64.8237 -31.6221 -31.6199 -31.6165 -31.6043
   -31.5979 -31.5971 -31.5899 -31.5852 -31.5835 -31.5825 -31.5782 -31.5651
    -8.9640  -8.0645  -8.0525  -7.8993   4.1562   4.1627   4.3138   5.0711
     5.8278   6.0476   6.0792   6.4546   6.4657   6.6050   7.1869   7.5022

          k =-0.2484 0.0000 0.2500 (  5151 PWs)   bands (ev):

   -64.8307 -64.8251 -64.8247 -64.8235 -31.6236 -31.6202 -31.6147 -31.6084
   -31.5933 -31.5895 -31.5893 -31.5887 -31.5880 -31.5853 -31.5694 -31.5693
    -8.9705  -8.0769  -8.0653  -7.8831   4.1593   4.1641   4.3426   5.0703
     5.8654   6.0321   6.0616   6.5037   6.5125   6.5634   7.1591   7.5072

          k =-0.2484 0.2516 0.0000 (  5148 PWs)   bands (ev):

   -64.8307 -64.8251 -64.8246 -64.8236 -31.6239 -31.6182 -31.6165 -31.6067
   -31.5938 -31.5920 -31.5918 -31.5883 -31.5854 -31.5827 -31.5741 -31.5664
    -8.9673  -8.0765  -8.0528  -7.8911   4.1554   4.1671   4.3272   5.0711
     5.8462   6.0245   6.0855   6.4726   6.4938   6.5860   7.1735   7.5045

          k =-0.2484-0.2516 0.2500 (  5153 PWs)   bands (ev):

   -64.8297 -64.8251 -64.8250 -64.8242 -31.6256 -31.6240 -31.6229 -31.6051
   -31.5934 -31.5927 -31.5921 -31.5855 -31.5821 -31.5798 -31.5731 -31.5671
    -8.7974  -8.0400  -8.0317  -8.0231   3.9975   3.9996   4.0028   5.0884
     5.8355   5.8448   5.8549   6.6863   6.7056   6.7233   7.3525   7.3566

          k =-0.2484 0.2516-0.2500 (  5153 PWs)   bands (ev):

   -64.8297 -64.8251 -64.8250 -64.8242 -31.6257 -31.6240 -31.6229 -31.6050
   -31.5934 -31.5927 -31.5921 -31.5855 -31.5822 -31.5798 -31.5732 -31.5672
    -8.7974  -8.0400  -8.0317  -8.0231   3.9975   3.9996   4.0028   5.0884
     5.8355   5.8448   5.8549   6.6863   6.7056   6.7233   7.3525   7.3566

          k = 0.2484-0.2516-0.2500 (  5153 PWs)   bands (ev):

   -64.8297 -64.8251 -64.8250 -64.8242 -31.6257 -31.6240 -31.6229 -31.6050
   -31.5934 -31.5927 -31.5921 -31.5855 -31.5822 -31.5798 -31.5732 -31.5672
    -8.7974  -8.0400  -8.0317  -8.0231   3.9975   3.9996   4.0028   5.0884
     5.8355   5.8448   5.8549   6.6863   6.7056   6.7233   7.3525   7.3566

          k =-0.2484 0.2516 0.5000 (  5142 PWs)   bands (ev):

   -64.8275 -64.8270 -64.8250 -64.8244 -31.6273 -31.6270 -31.6203 -31.6202
   -31.5927 -31.5924 -31.5799 -31.5798 -31.5789 -31.5787 -31.5735 -31.5733
    -8.4003  -8.4001  -7.9980  -7.9979   3.8209   3.8212   4.1974   4.1975
     5.8291   5.8293   6.7391   6.7393   6.8681   6.8685   7.0159   7.0161

          k =-0.2484 0.5032 0.2500 (  5134 PWs)   bands (ev):

   -64.8275 -64.8270 -64.8251 -64.8245 -31.6275 -31.6274 -31.6197 -31.6193
   -31.5939 -31.5937 -31.5801 -31.5793 -31.5769 -31.5768 -31.5743 -31.5738
    -8.4072  -8.3808  -8.0003  -7.9999   3.8194   3.8196   4.1746   4.2005
     5.8299   5.8307   6.7341   6.7346   6.8716   6.8830   6.9927   7.0172

          k = 0.4968-0.2516 0.2500 (  5138 PWs)   bands (ev):

   -64.8276 -64.8271 -64.8250 -64.8244 -31.6272 -31.6270 -31.6210 -31.6205
   -31.5902 -31.5900 -31.5820 -31.5818 -31.5784 -31.5783 -31.5737 -31.5730
    -8.4191  -8.3931  -7.9960  -7.9957   3.8222   3.8224   4.1954   4.2199
     5.8283   5.8291   6.7443   6.7447   6.8541   6.8635   7.0144   7.0380

     highest occupied level (ev):     7.6852

!    total energy              =    -608.39216549 Ry
     Harris-Foulkes estimate   =    -608.39216549 Ry
     estimated scf accuracy    <          3.1E-09 Ry

     The total energy is the sum of the following terms:

     one-electron contribution =    -303.65588024 Ry
     hartree contribution      =     168.11826957 Ry
     xc contribution           =     -97.84784062 Ry
     ewald contribution        =    -375.00671419 Ry

     convergence has been achieved in   9 iterations

     Forces acting on atoms (cartesian axes, Ry/au):

     atom    1 type  1   force =    -0.00325134    0.00379701   -0.00002206
     atom    2 type  1   force =    -0.00325343   -0.00375020    0.00002171
     atom    3 type  1   force =     0.00320171    0.00379897    0.00002190
     atom    4 type  1   force =     0.00315008   -0.00370460   -0.00002275
     atom    5 type  2   force =     0.00381866    0.00427642   -0.00002553
     atom    6 type  2   force =    -0.00375012   -0.00433995   -0.00002574
     atom    7 type  2   force =    -0.00374968    0.00427677    0.00002629
     atom    8 type  2   force =     0.00383413   -0.00435442    0.00002618

     Total force =     0.015158     Total SCF correction =     0.000063


     Computing stress (Cartesian axis) and pressure

          total   stress  (Ry/bohr**3)                   (kbar)     P=  -67.50
  -0.00053276   0.00000002  -0.00000000        -78.37      0.00     -0.00
   0.00000002  -0.00037961   0.00000000          0.00    -55.84      0.00
  -0.00000000   0.00000000  -0.00046427         -0.00      0.00    -68.30


     BFGS Geometry Optimization

     number of scf cycles    =   1
     number of bfgs steps    =   0

     energy   new            =    -608.3921654896 Ry

     new trust radius        =       0.0058019136 bohr
     new conv_thr            =       0.0000000100 Ry


ATOMIC_POSITIONS (alat)
Mg      -0.000404157   0.000471986  -0.000002742
Mg      -0.000404417   0.499533833   0.500002698
Mg       0.500397988   0.000472230   0.500002722
Mg       0.500391569   0.499539501  -0.000002828
O        0.500474677   0.000531579  -0.000003173
O       -0.000466158   0.499460524  -0.000003199
O       -0.000466103   0.000531622   0.500003268
O        0.500476600   0.499458725   0.500003254



     Writing output data file diamond.1.006429.70.4.save
     NEW-OLD atomic charge density approx. for the potential

     Check: negative/imaginary core charge=   -0.000007    0.000000

     total cpu time spent up to now is       15.2 secs

     per-process dynamical memory:    52.1 Mb

     Self-consistent Calculation

     iteration #  1     ecut=    70.00 Ry     beta=0.70
     Davidson diagonalization with overlap
     ethr =  1.00E-06,  avg # of iterations =  3.0

     Threshold (ethr) on eigenvalues was too large:
     Diagonalizing with lowered threshold

     Davidson diagonalization with overlap
     ethr =  6.70E-08,  avg # of iterations =  1.1

     total cpu time spent up to now is       18.7 secs

     total energy              =    -608.39234538 Ry
     Harris-Foulkes estimate   =    -608.39237675 Ry
     estimated scf accuracy    <       0.00004272 Ry

     iteration #  2     ecut=    70.00 Ry     beta=0.70
     Davidson diagonalization with overlap
     ethr =  6.67E-08,  avg # of iterations =  2.2

     total cpu time spent up to now is       20.2 secs

     total energy              =    -608.39235837 Ry
     Harris-Foulkes estimate   =    -608.39236284 Ry
     estimated scf accuracy    <       0.00000742 Ry

     iteration #  3     ecut=    70.00 Ry     beta=0.70
     Davidson diagonalization with overlap
     ethr =  1.16E-08,  avg # of iterations =  2.0

     total cpu time spent up to now is       21.6 secs

     total energy              =    -608.39235997 Ry
     Harris-Foulkes estimate   =    -608.39235995 Ry
     estimated scf accuracy    <       0.00000005 Ry

     iteration #  4     ecut=    70.00 Ry     beta=0.70
     Davidson diagonalization with overlap
     ethr =  7.65E-11,  avg # of iterations =  2.8

     total cpu time spent up to now is       23.4 secs

     End of self-consistent calculation

          k = 0.0000 0.0000 0.0000 (  5149 PWs)   bands (ev):

   -64.8338 -64.8245 -64.8242 -64.8235 -31.6335 -31.6303 -31.6260 -31.5967
   -31.5952 -31.5935 -31.5912 -31.5901 -31.5887 -31.5695 -31.5633 -31.5597
    -9.3655  -7.9314  -7.9146  -7.8979   3.7371   3.7571   3.7800   6.3339
     6.3402   6.3737   6.3851   6.4201   6.4252   7.6565   7.6723   7.6854

          k = 0.0000 0.0000 0.2500 (  5153 PWs)   bands (ev):

   -64.8324 -64.8255 -64.8244 -64.8237 -31.6276 -31.6200 -31.6196 -31.6021
   -31.5944 -31.5929 -31.5917 -31.5916 -31.5850 -31.5774 -31.5742 -31.5668
    -9.1571  -8.1295  -7.8982  -7.8743   4.0287   4.0685   4.0945   5.8473
     5.8678   6.1386   6.2011   6.5063   6.5801   6.6588   7.4300   7.4694

          k = 0.0000 0.0000-0.5000 (  5126 PWs)   bands (ev):

   -64.8292 -64.8287 -64.8243 -64.8237 -31.6143 -31.6141 -31.6055 -31.6052
   -31.6007 -31.6007 -31.5907 -31.5907 -31.5829 -31.5826 -31.5763 -31.5761
    -8.6469  -8.6467  -7.8575  -7.8574   4.8306   4.8308   4.8632   4.8635
     5.1227   5.1230   5.9725   5.9728   6.9384   6.9386   6.9978   6.9979

          k = 0.0000 0.2516 0.0000 (  5161 PWs)   bands (ev):

   -64.8324 -64.8254 -64.8244 -64.8238 -31.6274 -31.6234 -31.6171 -31.6009
   -31.5963 -31.5930 -31.5897 -31.5896 -31.5887 -31.5744 -31.5739 -31.5709
    -9.1534  -8.1134  -7.8986  -7.8865   4.0330   4.0518   4.1055   5.8832
     5.8927   6.1297   6.1606   6.5016   6.5388   6.6448   7.4414   7.4606

          k = 0.0000 0.2516 0.2500 (  5157 PWs)   bands (ev):

   -64.8311 -64.8255 -64.8251 -64.8242 -31.6225 -31.6203 -31.6169 -31.6047
   -31.5982 -31.5975 -31.5903 -31.5857 -31.5838 -31.5829 -31.5786 -31.5656
    -8.9637  -8.0643  -8.0524  -7.8992   4.1565   4.1628   4.3140   5.0712
     5.8279   6.0479   6.0791   6.4548   6.4656   6.6048   7.1868   7.5023

          k = 0.0000 0.2516-0.5000 (  5146 PWs)   bands (ev):

   -64.8285 -64.8280 -64.8250 -64.8244 -31.6147 -31.6145 -31.6105 -31.6102
   -31.6084 -31.6083 -31.5879 -31.5877 -31.5814 -31.5813 -31.5715 -31.5713
    -8.5085  -8.5083  -7.9454  -7.9454   4.4090   4.4091   4.7352   4.7355
     5.0850   5.0853   6.5602   6.5604   6.5968   6.5970   7.0824   7.0825

          k = 0.0000-0.5032 0.0000 (  5126 PWs)   bands (ev):

   -64.8291 -64.8286 -64.8244 -64.8239 -31.6144 -31.6132 -31.6095 -31.6082
   -31.5975 -31.5958 -31.5878 -31.5877 -31.5837 -31.5830 -31.5805 -31.5796
    -8.6473  -8.6236  -7.8619  -7.8616   4.8295   4.8452   4.8668   4.8826
     5.1090   5.1244   5.9399   5.9402   6.9300   6.9531   6.9598   6.9824

          k = 0.0000-0.5032 0.2500 (  5142 PWs)   bands (ev):

   -64.8284 -64.8279 -64.8251 -64.8245 -31.6163 -31.6156 -31.6102 -31.6091
   -31.6075 -31.6067 -31.5893 -31.5883 -31.5793 -31.5790 -31.5730 -31.5729
    -8.5113  -8.4905  -7.9513  -7.9475   4.4009   4.4154   4.7222   4.7390
     5.0801   5.1163   6.5348   6.5487   6.5663   6.5922   7.0857   7.0931

          k = 0.0000-0.5032-0.5000 (  5160 PWs)   bands (ev):

   -64.8268 -64.8267 -64.8267 -64.8257 -31.6174 -31.6173 -31.6169 -31.6168
   -31.6004 -31.6002 -31.5994 -31.5991 -31.5721 -31.5719 -31.5715 -31.5714
    -8.2082  -8.2081  -8.1952  -8.1951   4.2654   4.2655   4.2718   4.2719
     5.7534   5.7536   5.7858   5.7860   7.0672   7.0674   7.0777   7.0778

          k = 0.2484 0.0000 0.0000 (  5164 PWs)   bands (ev):

   -64.8324 -64.8257 -64.8242 -64.8236 -31.6249 -31.6235 -31.6202 -31.5986
   -31.5970 -31.5959 -31.5939 -31.5877 -31.5838 -31.5826 -31.5707 -31.5668
    -9.1608  -8.1454  -7.8856  -7.8737   4.0434   4.0641   4.0832   5.8224
     5.8334   6.1794   6.2111   6.5461   6.5827   6.6706   7.4386   7.4588

          k = 0.2484 0.0000 0.2500 (  5151 PWs)   bands (ev):

   -64.8312 -64.8256 -64.8252 -64.8240 -31.6240 -31.6206 -31.6150 -31.6088
   -31.5937 -31.5898 -31.5897 -31.5891 -31.5885 -31.5858 -31.5698 -31.5697
    -8.9702  -8.0769  -8.0651  -7.8831   4.1594   4.1644   4.3427   5.0704
     5.8655   6.0319   6.0618   6.5036   6.5132   6.5627   7.1590   7.5073

          k = 0.2484 0.0000-0.5000 (  5140 PWs)   bands (ev):

   -64.8285 -64.8280 -64.8250 -64.8244 -31.6188 -31.6186 -31.6099 -31.6098
   -31.6012 -31.6009 -31.5845 -31.5844 -31.5805 -31.5803 -31.5779 -31.5778
    -8.5126  -8.5124  -7.9502  -7.9501   4.4272   4.4273   4.7657   4.7660
     5.1077   5.1079   6.5311   6.5314   6.5573   6.5575   7.1049   7.1049

          k = 0.2484 0.2516 0.0000 (  5148 PWs)   bands (ev):

   -64.8312 -64.8256 -64.8251 -64.8241 -31.6242 -31.6186 -31.6168 -31.6071
   -31.5942 -31.5924 -31.5921 -31.5887 -31.5858 -31.5831 -31.5746 -31.5667
    -8.9669  -8.0765  -8.0527  -7.8910   4.1555   4.1671   4.3277   5.0710
     5.8464   6.0246   6.0855   6.4731   6.4942   6.5850   7.1733   7.5046

          k = 0.2484 0.2516 0.2500 (  5153 PWs)   bands (ev):

   -64.8302 -64.8256 -64.8254 -64.8247 -31.6260 -31.6243 -31.6232 -31.6054
   -31.5938 -31.5931 -31.5926 -31.5859 -31.5826 -31.5802 -31.5736 -31.5676
    -8.7971  -8.0399  -8.0315  -8.0230   3.9976   3.9998   4.0029   5.0886
     5.8355   5.8450   5.8548   6.6864   6.7054   6.7234   7.3525   7.3566

          k = 0.2484 0.2516-0.5000 (  5142 PWs)   bands (ev):

   -64.8280 -64.8275 -64.8255 -64.8249 -31.6275 -31.6274 -31.6207 -31.6206
   -31.5931 -31.5929 -31.5804 -31.5801 -31.5792 -31.5792 -31.5739 -31.5737
    -8.4000  -8.3999  -7.9980  -7.9979   3.8212   3.8212   4.1974   4.1976
     5.8292   5.8293   6.7395   6.7398   6.8679   6.8684   7.0157   7.0158

          k = 0.2484-0.5032 0.0000 (  5154 PWs)   bands (ev):

   -64.8284 -64.8279 -64.8251 -64.8245 -31.6186 -31.6178 -31.6089 -31.6083
   -31.6062 -31.6051 -31.5855 -31.5845 -31.5808 -31.5805 -31.5765 -31.5763
    -8.5134  -8.4924  -7.9538  -7.9495   4.4106   4.4251   4.7376   4.7543
     5.0901   5.1263   6.5218   6.5353   6.5449   6.5716   7.0966   7.1036

          k = 0.2484-0.5032 0.2500 (  5134 PWs)   bands (ev):

   -64.8279 -64.8275 -64.8256 -64.8250 -31.6279 -31.6277 -31.6200 -31.6197
   -31.5943 -31.5941 -31.5804 -31.5798 -31.5773 -31.5772 -31.5746 -31.5743
    -8.4027  -8.3849  -8.0001  -7.9999   3.8195   3.8197   4.1789   4.1962
     5.8302   5.8307   6.7343   6.7346   6.8734   6.8812   6.9966   7.0132

          k = 0.2484-0.5032-0.5000 (  5136 PWs)   bands (ev):

   -64.8268 -64.8267 -64.8267 -64.8257 -31.6307 -31.6305 -31.6305 -31.6304
   -31.5856 -31.5853 -31.5851 -31.5849 -31.5720 -31.5718 -31.5716 -31.5715
    -8.1710  -8.1709  -8.1617  -8.1616   3.6276   3.6277   3.6362   3.6363
     6.5065   6.5066   6.5255   6.5256   7.0694   7.0696   7.0767   7.0769

          k =-0.4968 0.0000 0.0000 (  5150 PWs)   bands (ev):

   -64.8293 -64.8288 -64.8242 -64.8237 -31.6104 -31.6091 -31.6071 -31.6057
   -31.6051 -31.6036 -31.5968 -31.5968 -31.5795 -31.5787 -31.5763 -31.5755
    -8.6703  -8.6455  -7.8530  -7.8526   4.8105   4.8271   4.8493   4.8658
     5.1210   5.1348   6.0043   6.0046   6.9527   6.9763   6.9829   7.0060

          k =-0.4968 0.0000 0.2500 (  5152 PWs)   bands (ev):

   -64.8286 -64.8281 -64.8249 -64.8244 -31.6180 -31.6173 -31.6121 -31.6112
   -31.6024 -31.6012 -31.5870 -31.5865 -31.5804 -31.5795 -31.5760 -31.5757
    -8.5308  -8.5088  -7.9483  -7.9438   4.4191   4.4349   4.7624   4.7784
     5.0767   5.1141   6.5426   6.5571   6.5613   6.5875   7.0945   7.1009

          k =-0.4968 0.0000-0.5000 (  5192 PWs)   bands (ev):

   -64.8268 -64.8267 -64.8267 -64.8257 -31.6199 -31.6198 -31.6193 -31.6192
   -31.5924 -31.5922 -31.5914 -31.5912 -31.5785 -31.5784 -31.5779 -31.5779
    -8.2176  -8.2175  -8.2036  -8.2035   4.3141   4.3142   4.3200   4.3201
     5.7488   5.7490   5.7823   5.7825   7.0469   7.0471   7.0586   7.0588

          k =-0.4968 0.2516 0.0000 (  5156 PWs)   bands (ev):

   -64.8286 -64.8281 -64.8249 -64.8244 -31.6162 -31.6156 -31.6117 -31.6108
   -31.6073 -31.6062 -31.5850 -31.5845 -31.5839 -31.5831 -31.5725 -31.5722
    -8.5287  -8.5068  -7.9455  -7.9415   4.4106   4.4264   4.7472   4.7634
     5.0640   5.1015   6.5592   6.5726   6.5792   6.6062   7.0827   7.0894

          k =-0.4968 0.2516 0.2500 (  5138 PWs)   bands (ev):

   -64.8280 -64.8276 -64.8254 -64.8249 -31.6275 -31.6274 -31.6213 -31.6210
   -31.5906 -31.5904 -31.5824 -31.5823 -31.5788 -31.5787 -31.5740 -31.5735
    -8.4152  -8.3965  -7.9959  -7.9956   3.8224   3.8225   4.1990   4.2163
     5.8285   5.8291   6.7445   6.7448   6.8553   6.8622   7.0177   7.0345

          k =-0.4968 0.2516-0.5000 (  5152 PWs)   bands (ev):

   -64.8268 -64.8267 -64.8267 -64.8257 -31.6317 -31.6315 -31.6314 -31.6313
   -31.5803 -31.5801 -31.5800 -31.5798 -31.5768 -31.5766 -31.5765 -31.5765
    -8.1759  -8.1758  -8.1659  -8.1658   3.6436   3.6437   3.6525   3.6526
     6.5219   6.5221   6.5411   6.5412   7.0498   7.0500   7.0581   7.0583

          k =-0.4968-0.5032 0.0000 (  5188 PWs)   bands (ev):

   -64.8268 -64.8267 -64.8266 -64.8257 -31.6188 -31.6184 -31.6181 -31.6177
   -31.5976 -31.5965 -31.5965 -31.5955 -31.5754 -31.5751 -31.5748 -31.5745
    -8.2195  -8.2060  -8.2056  -8.1926   4.2869   4.2928   4.2932   4.2992
     5.7336   5.7663   5.7672   5.7996   7.0513   7.0623   7.0628   7.0734

          k =-0.4968-0.5032 0.2500 (  5148 PWs)   bands (ev):

   -64.8268 -64.8267 -64.8266 -64.8257 -31.6315 -31.6313 -31.6312 -31.6312
   -31.5836 -31.5832 -31.5831 -31.5828 -31.5740 -31.5737 -31.5735 -31.5734
    -8.1783  -8.1685  -8.1682  -8.1589   3.6312   3.6399   3.6400   3.6488
     6.5045   6.5235   6.5240   6.5427   7.0555   7.0633   7.0638   7.0712

          k =-0.4968-0.5032-0.5000 (  5136 PWs)   bands (ev):

   -64.8267 -64.8267 -64.8267 -64.8257 -31.6392 -31.6390 -31.6389 -31.6389
   -31.5776 -31.5774 -31.5774 -31.5773 -31.5712 -31.5710 -31.5710 -31.5708
    -8.1306  -8.1305  -8.1303  -8.1302   3.2171   3.2172   3.2173   3.2173
     7.0533   7.0535   7.0537   7.0538   7.0751   7.0752   7.0754   7.0755

          k = 0.0000-0.2516 0.2500 (  5157 PWs)   bands (ev):

   -64.8311 -64.8255 -64.8251 -64.8242 -31.6225 -31.6203 -31.6169 -31.6047
   -31.5982 -31.5975 -31.5903 -31.5857 -31.5838 -31.5829 -31.5786 -31.5656
    -8.9637  -8.0643  -8.0524  -7.8992   4.1565   4.1628   4.3140   5.0712
     5.8279   6.0479   6.0791   6.4548   6.4656   6.6048   7.1868   7.5023

          k =-0.2484 0.0000 0.2500 (  5151 PWs)   bands (ev):

   -64.8312 -64.8256 -64.8252 -64.8240 -31.6240 -31.6206 -31.6150 -31.6088
   -31.5937 -31.5898 -31.5897 -31.5891 -31.5885 -31.5858 -31.5698 -31.5697
    -8.9702  -8.0769  -8.0651  -7.8831   4.1594   4.1644   4.3427   5.0704
     5.8655   6.0319   6.0618   6.5036   6.5132   6.5627   7.1590   7.5073

          k =-0.2484 0.2516 0.0000 (  5148 PWs)   bands (ev):

   -64.8312 -64.8256 -64.8251 -64.8241 -31.6242 -31.6186 -31.6168 -31.6071
   -31.5942 -31.5924 -31.5921 -31.5887 -31.5858 -31.5831 -31.5746 -31.5668
    -8.9669  -8.0765  -8.0527  -7.8910   4.1555   4.1671   4.3277   5.0710
     5.8464   6.0246   6.0855   6.4731   6.4942   6.5850   7.1733   7.5046

          k =-0.2484-0.2516 0.2500 (  5153 PWs)   bands (ev):

   -64.8302 -64.8256 -64.8254 -64.8247 -31.6260 -31.6243 -31.6232 -31.6054
   -31.5938 -31.5931 -31.5926 -31.5859 -31.5826 -31.5802 -31.5736 -31.5676
    -8.7971  -8.0399  -8.0315  -8.0230   3.9976   3.9998   4.0029   5.0886
     5.8355   5.8450   5.8548   6.6864   6.7054   6.7234   7.3525   7.3566

          k =-0.2484 0.2516-0.2500 (  5153 PWs)   bands (ev):

   -64.8302 -64.8256 -64.8254 -64.8247 -31.6260 -31.6243 -31.6232 -31.6054
   -31.5938 -31.5931 -31.5925 -31.5859 -31.5826 -31.5802 -31.5736 -31.5676
    -8.7971  -8.0399  -8.0315  -8.0230   3.9976   3.9998   4.0029   5.0886
     5.8355   5.8450   5.8548   6.6864   6.7054   6.7234   7.3525   7.3566

          k = 0.2484-0.2516-0.2500 (  5153 PWs)   bands (ev):

   -64.8302 -64.8256 -64.8254 -64.8247 -31.6260 -31.6243 -31.6232 -31.6054
   -31.5938 -31.5931 -31.5925 -31.5859 -31.5826 -31.5802 -31.5736 -31.5676
    -8.7971  -8.0399  -8.0315  -8.0230   3.9976   3.9998   4.0029   5.0886
     5.8355   5.8450   5.8548   6.6864   6.7054   6.7234   7.3525   7.3566

          k =-0.2484 0.2516 0.5000 (  5142 PWs)   bands (ev):

   -64.8280 -64.8275 -64.8255 -64.8249 -31.6276 -31.6274 -31.6207 -31.6206
   -31.5931 -31.5928 -31.5803 -31.5802 -31.5793 -31.5792 -31.5739 -31.5737
    -8.4000  -8.3999  -7.9980  -7.9979   3.8211   3.8213   4.1974   4.1975
     5.8292   5.8293   6.7395   6.7397   6.8681   6.8682   7.0157   7.0158

          k =-0.2484 0.5032 0.2500 (  5134 PWs)   bands (ev):

   -64.8279 -64.8275 -64.8256 -64.8250 -31.6279 -31.6277 -31.6200 -31.6197
   -31.5943 -31.5941 -31.5804 -31.5798 -31.5773 -31.5772 -31.5746 -31.5743
    -8.4027  -8.3849  -8.0001  -7.9999   3.8195   3.8197   4.1789   4.1962
     5.8302   5.8307   6.7343   6.7346   6.8734   6.8812   6.9966   7.0132

          k = 0.4968-0.2516 0.2500 (  5138 PWs)   bands (ev):

   -64.8280 -64.8276 -64.8254 -64.8249 -31.6275 -31.6274 -31.6213 -31.6210
   -31.5906 -31.5904 -31.5824 -31.5823 -31.5788 -31.5787 -31.5740 -31.5735
    -8.4152  -8.3965  -7.9959  -7.9956   3.8224   3.8225   4.1990   4.2163
     5.8285   5.8291   6.7445   6.7448   6.8553   6.8622   7.0177   7.0345

     highest occupied level (ev):     7.6854

!    total energy              =    -608.39235998 Ry
     Harris-Foulkes estimate   =    -608.39235999 Ry
     estimated scf accuracy    <          7.7E-09 Ry

     The total energy is the sum of the following terms:

     one-electron contribution =    -303.62174802 Ry
     hartree contribution      =     168.10125372 Ry
     xc contribution           =     -97.84758966 Ry
     ewald contribution        =    -375.02427602 Ry

     convergence has been achieved in   4 iterations

     Forces acting on atoms (cartesian axes, Ry/au):

     atom    1 type  1   force =    -0.00237688    0.00260409   -0.00001607
     atom    2 type  1   force =    -0.00244047   -0.00262717    0.00001596
     atom    3 type  1   force =     0.00238758    0.00267818    0.00001597
     atom    4 type  1   force =     0.00235936   -0.00260406   -0.00001637
     atom    5 type  2   force =     0.00265260    0.00284140   -0.00001764
     atom    6 type  2   force =    -0.00262465   -0.00286068   -0.00001759
     atom    7 type  2   force =    -0.00262226    0.00283906    0.00001784
     atom    8 type  2   force =     0.00266472   -0.00287083    0.00001790

     Total force =     0.010534     Total SCF correction =     0.000614


     Computing stress (Cartesian axis) and pressure

          total   stress  (Ry/bohr**3)                   (kbar)     P=  -67.56
  -0.00053351   0.00000001  -0.00000000        -78.48      0.00     -0.00
   0.00000001  -0.00038084   0.00000000          0.00    -56.02      0.00
  -0.00000000   0.00000000  -0.00046347         -0.00      0.00    -68.18


     number of scf cycles    =   2
     number of bfgs steps    =   1

     energy   old            =    -608.3921654896 Ry
     energy   new            =    -608.3923599839 Ry

     CASE: energy  _new < energy  _old

     new trust radius        =       0.0063821050 bohr
     new conv_thr            =       0.0000000019 Ry


ATOMIC_POSITIONS (alat)
Mg      -0.000885415   0.000999375  -0.000005995
Mg      -0.000898502   0.499001813   0.500005930
Mg       0.500881376   0.001014566   0.500005956
Mg       0.500869236   0.499012169  -0.000006143
O        0.501011864   0.001107100  -0.000006745
O       -0.000997667   0.498881080  -0.000006763
O       -0.000997131   0.001106672   0.500006880
O        0.501016238   0.498877225   0.500006880



     Writing output data file diamond.1.006429.70.4.save
     NEW-OLD atomic charge density approx. for the potential

     Check: negative/imaginary core charge=   -0.000007    0.000000

     total cpu time spent up to now is       24.2 secs

     per-process dynamical memory:    52.1 Mb

     Self-consistent Calculation

     iteration #  1     ecut=    70.00 Ry     beta=0.70
     Davidson diagonalization with overlap
     ethr =  1.00E-06,  avg # of iterations =  3.0

     Threshold (ethr) on eigenvalues was too large:
     Diagonalizing with lowered threshold

     Davidson diagonalization with overlap
     ethr =  8.31E-08,  avg # of iterations =  1.1

     total cpu time spent up to now is       27.8 secs

     total energy              =    -608.39247812 Ry
     Harris-Foulkes estimate   =    -608.39251691 Ry
     estimated scf accuracy    <       0.00005287 Ry

     iteration #  2     ecut=    70.00 Ry     beta=0.70
     Davidson diagonalization with overlap
     ethr =  8.26E-08,  avg # of iterations =  2.3

     total cpu time spent up to now is       29.3 secs

     total energy              =    -608.39249422 Ry
     Harris-Foulkes estimate   =    -608.39249977 Ry
     estimated scf accuracy    <       0.00000923 Ry

     iteration #  3     ecut=    70.00 Ry     beta=0.70
     Davidson diagonalization with overlap
     ethr =  1.44E-08,  avg # of iterations =  2.0

     total cpu time spent up to now is       30.7 secs

     total energy              =    -608.39249621 Ry
     Harris-Foulkes estimate   =    -608.39249618 Ry
     estimated scf accuracy    <       0.00000006 Ry

     iteration #  4     ecut=    70.00 Ry     beta=0.70
     Davidson diagonalization with overlap
     ethr =  9.68E-11,  avg # of iterations =  2.8

     total cpu time spent up to now is       32.5 secs

     total energy              =    -608.39249623 Ry
     Harris-Foulkes estimate   =    -608.39249623 Ry
     estimated scf accuracy    <          9.8E-09 Ry

     iteration #  5     ecut=    70.00 Ry     beta=0.70
     Davidson diagonalization with overlap
     ethr =  1.54E-11,  avg # of iterations =  2.0

     total cpu time spent up to now is       34.0 secs

     End of self-consistent calculation

          k = 0.0000 0.0000 0.0000 (  5149 PWs)   bands (ev):

   -64.8340 -64.8247 -64.8244 -64.8237 -31.6337 -31.6305 -31.6262 -31.5969
   -31.5954 -31.5937 -31.5914 -31.5903 -31.5888 -31.5696 -31.5635 -31.5599
    -9.3651  -7.9311  -7.9142  -7.8976   3.7373   3.7575   3.7802   6.3342
     6.3403   6.3740   6.3854   6.4202   6.4255   7.6568   7.6725   7.6858

          k = 0.0000 0.0000 0.2500 (  5153 PWs)   bands (ev):

   -64.8326 -64.8257 -64.8246 -64.8239 -31.6277 -31.6202 -31.6198 -31.6022
   -31.5945 -31.5931 -31.5918 -31.5918 -31.5851 -31.5776 -31.5744 -31.5670
    -9.1567  -8.1291  -7.8979  -7.8740   4.0289   4.0687   4.0949   5.8475
     5.8681   6.1391   6.2017   6.5062   6.5801   6.6590   7.4302   7.4697

          k = 0.0000 0.0000-0.5000 (  5126 PWs)   bands (ev):

   -64.8294 -64.8289 -64.8245 -64.8240 -31.6145 -31.6142 -31.6055 -31.6053
   -31.6010 -31.6009 -31.5909 -31.5908 -31.5831 -31.5828 -31.5765 -31.5763
    -8.6465  -8.6464  -7.8572  -7.8571   4.8309   4.8310   4.8636   4.8637
     5.1228   5.1231   5.9730   5.9733   6.9385   6.9386   6.9979   6.9980

          k = 0.0000 0.2516 0.0000 (  5161 PWs)   bands (ev):

   -64.8326 -64.8256 -64.8246 -64.8240 -31.6275 -31.6236 -31.6172 -31.6011
   -31.5965 -31.5932 -31.5898 -31.5898 -31.5888 -31.5746 -31.5741 -31.5711
    -9.1530  -8.1131  -7.8982  -7.8862   4.0333   4.0522   4.1057   5.8832
     5.8929   6.1300   6.1609   6.5019   6.5390   6.6451   7.4415   7.4608

          k = 0.0000 0.2516 0.2500 (  5157 PWs)   bands (ev):

   -64.8313 -64.8257 -64.8253 -64.8244 -31.6226 -31.6204 -31.6170 -31.6048
   -31.5984 -31.5977 -31.5905 -31.5859 -31.5840 -31.5832 -31.5788 -31.5657
    -8.9632  -8.0640  -8.0522  -7.8989   4.1569   4.1630   4.3142   5.0715
     5.8282   6.0483   6.0792   6.4551   6.4657   6.6048   7.1870   7.5026

          k = 0.0000 0.2516-0.5000 (  5146 PWs)   bands (ev):

   -64.8287 -64.8282 -64.8252 -64.8246 -31.6148 -31.6147 -31.6104 -31.6102
   -31.6088 -31.6087 -31.5881 -31.5878 -31.5816 -31.5815 -31.5716 -31.5715
    -8.5081  -8.5079  -7.9452  -7.9450   4.4092   4.4093   4.7356   4.7358
     5.0852   5.0853   6.5614   6.5617   6.5961   6.5962   7.0826   7.0826

          k = 0.0000-0.5032 0.0000 (  5126 PWs)   bands (ev):

   -64.8293 -64.8288 -64.8246 -64.8241 -31.6142 -31.6136 -31.6094 -31.6087
   -31.5973 -31.5964 -31.5879 -31.5878 -31.5838 -31.5834 -31.5805 -31.5800
    -8.6407  -8.6294  -7.8615  -7.8613   4.8393   4.8552   4.8574   4.8732
     5.1132   5.1204   5.9402   5.9406   6.9363   6.9473   6.9659   6.9766

          k = 0.0000-0.5032 0.2500 (  5142 PWs)   bands (ev):

   -64.8286 -64.8281 -64.8253 -64.8247 -31.6163 -31.6159 -31.6099 -31.6093
   -31.6076 -31.6072 -31.5892 -31.5887 -31.5794 -31.5793 -31.5732 -31.5731
    -8.5055  -8.4955  -7.9500  -7.9481   4.4049   4.4120   4.7270   4.7348
     5.0895   5.1069   6.5397   6.5462   6.5723   6.5848   7.0879   7.0915

          k = 0.0000-0.5032-0.5000 (  5160 PWs)   bands (ev):

   -64.8270 -64.8269 -64.8269 -64.8259 -31.6175 -31.6173 -31.6171 -31.6170
   -31.6004 -31.6001 -31.5998 -31.5995 -31.5722 -31.5720 -31.5718 -31.5717
    -8.2045  -8.2044  -8.1983  -8.1981   4.2674   4.2676   4.2702   4.2703
     5.7620   5.7621   5.7775   5.7777   7.0703   7.0705   7.0752   7.0754

          k = 0.2484 0.0000 0.0000 (  5164 PWs)   bands (ev):

   -64.8326 -64.8259 -64.8244 -64.8238 -31.6251 -31.6236 -31.6203 -31.5988
   -31.5972 -31.5960 -31.5941 -31.5879 -31.5839 -31.5828 -31.5709 -31.5670
    -9.1603  -8.1451  -7.8852  -7.8734   4.0439   4.0643   4.0834   5.8226
     5.8334   6.1798   6.2114   6.5463   6.5830   6.6709   7.4388   7.4590

          k = 0.2484 0.0000 0.2500 (  5151 PWs)   bands (ev):

   -64.8314 -64.8258 -64.8254 -64.8242 -31.6242 -31.6208 -31.6152 -31.6089
   -31.5939 -31.5900 -31.5899 -31.5893 -31.5887 -31.5860 -31.5700 -31.5699
    -8.9698  -8.0766  -8.0647  -7.8828   4.1596   4.1648   4.3429   5.0707
     5.8658   6.0320   6.0622   6.5037   6.5139   6.5623   7.1591   7.5076

          k = 0.2484 0.0000-0.5000 (  5140 PWs)   bands (ev):

   -64.8287 -64.8282 -64.8252 -64.8246 -31.6189 -31.6188 -31.6101 -31.6100
   -31.6014 -31.6011 -31.5846 -31.5846 -31.5807 -31.5805 -31.5781 -31.5780
    -8.5122  -8.5120  -7.9499  -7.9498   4.4275   4.4276   4.7661   4.7663
     5.1079   5.1080   6.5328   6.5331   6.5561   6.5562   7.1050   7.1051

          k = 0.2484 0.2516 0.0000 (  5148 PWs)   bands (ev):

   -64.8314 -64.8258 -64.8253 -64.8243 -31.6244 -31.6187 -31.6169 -31.6073
   -31.5944 -31.5926 -31.5922 -31.5890 -31.5859 -31.5833 -31.5748 -31.5669
    -8.9665  -8.0762  -8.0524  -7.8906   4.1557   4.1673   4.3282   5.0711
     5.8468   6.0249   6.0858   6.4735   6.4947   6.5846   7.1734   7.5049

          k = 0.2484 0.2516 0.2500 (  5153 PWs)   bands (ev):

   -64.8304 -64.8258 -64.8256 -64.8249 -31.6262 -31.6245 -31.6234 -31.6055
   -31.5940 -31.5933 -31.5928 -31.5861 -31.5828 -31.5804 -31.5738 -31.5678
    -8.7966  -8.0397  -8.0311  -8.0227   3.9978   4.0001   4.0031   5.0888
     5.8357   5.8452   5.8550   6.6866   6.7055   6.7236   7.3528   7.3569

          k = 0.2484 0.2516-0.5000 (  5142 PWs)   bands (ev):

   -64.8281 -64.8277 -64.8257 -64.8251 -31.6277 -31.6275 -31.6208 -31.6207
   -31.5933 -31.5931 -31.5805 -31.5803 -31.5795 -31.5794 -31.5741 -31.5739
    -8.3996  -8.3995  -7.9977  -7.9976   3.8214   3.8214   4.1976   4.1977
     5.8294   5.8295   6.7400   6.7403   6.8682   6.8684   7.0158   7.0159

          k = 0.2484-0.5032 0.0000 (  5154 PWs)   bands (ev):

   -64.8286 -64.8281 -64.8253 -64.8247 -31.6185 -31.6181 -31.6089 -31.6086
   -31.6061 -31.6055 -31.5854 -31.5849 -31.5809 -31.5808 -31.5767 -31.5765
    -8.5075  -8.4975  -7.9524  -7.9503   4.4144   4.4216   4.7422   4.7500
     5.0999   5.1173   6.5256   6.5320   6.5521   6.5648   7.0986   7.1020

          k = 0.2484-0.5032 0.2500 (  5134 PWs)   bands (ev):

   -64.8281 -64.8277 -64.8258 -64.8252 -31.6280 -31.6279 -31.6201 -31.6199
   -31.5945 -31.5943 -31.5804 -31.5801 -31.5775 -31.5774 -31.5747 -31.5746
    -8.3976  -8.3891  -7.9997  -7.9996   3.8198   3.8198   4.1837   4.1917
     5.8306   5.8309   6.7346   6.7349   6.8756   6.8795   7.0011   7.0090

          k = 0.2484-0.5032-0.5000 (  5136 PWs)   bands (ev):

   -64.8270 -64.8269 -64.8269 -64.8259 -31.6309 -31.6306 -31.6306 -31.6306
   -31.5857 -31.5854 -31.5853 -31.5852 -31.5722 -31.5720 -31.5718 -31.5717
    -8.1682  -8.1681  -8.1638  -8.1636   3.6301   3.6302   3.6341   3.6341
     6.5117   6.5118   6.5208   6.5209   7.0716   7.0718   7.0751   7.0752

          k =-0.4968 0.0000 0.0000 (  5150 PWs)   bands (ev):

   -64.8295 -64.8290 -64.8244 -64.8239 -31.6103 -31.6095 -31.6068 -31.6060
   -31.6051 -31.6042 -31.5970 -31.5970 -31.5795 -31.5790 -31.5764 -31.5759
    -8.6643  -8.6508  -7.8525  -7.8524   4.8196   4.8360   4.8409   4.8572
     5.1243   5.1317   6.0046   6.0049   6.9583   6.9711   6.9884   7.0009

          k =-0.4968 0.0000 0.2500 (  5152 PWs)   bands (ev):

   -64.8287 -64.8283 -64.8251 -64.8246 -31.6180 -31.6176 -31.6120 -31.6115
   -31.6024 -31.6016 -31.5870 -31.5868 -31.5804 -31.5799 -31.5761 -31.5760
    -8.5254  -8.5135  -7.9469  -7.9445   4.4229   4.4317   4.7665   4.7750
     5.0851   5.1057   6.5479   6.5553   6.5657   6.5805   7.0962   7.0997

          k =-0.4968 0.0000-0.5000 (  5192 PWs)   bands (ev):

   -64.8270 -64.8269 -64.8269 -64.8259 -31.6200 -31.6198 -31.6195 -31.6194
   -31.5924 -31.5922 -31.5918 -31.5915 -31.5786 -31.5785 -31.5782 -31.5781
    -8.2141  -8.2140  -8.2065  -8.2063   4.3158   4.3160   4.3188   4.3189
     5.7565   5.7566   5.7748   5.7750   7.0499   7.0501   7.0562   7.0564

          k =-0.4968 0.2516 0.0000 (  5156 PWs)   bands (ev):

   -64.8287 -64.8283 -64.8251 -64.8246 -31.6162 -31.6158 -31.6117 -31.6112
   -31.6073 -31.6066 -31.5851 -31.5848 -31.5840 -31.5834 -31.5726 -31.5725
    -8.5233  -8.5114  -7.9443  -7.9421   4.4143   4.4230   4.7512   4.7598
     5.0728   5.0934   6.5626   6.5698   6.5855   6.6002   7.0843   7.0881

          k =-0.4968 0.2516 0.2500 (  5138 PWs)   bands (ev):

   -64.8282 -64.8278 -64.8256 -64.8251 -31.6277 -31.6275 -31.6214 -31.6212
   -31.5908 -31.5906 -31.5826 -31.5825 -31.5790 -31.5789 -31.5741 -31.5738
    -8.4106  -8.4004  -7.9955  -7.9953   3.8226   3.8227   4.2032   4.2124
     5.8290   5.8293   6.7448   6.7451   6.8570   6.8609   7.0217   7.0309

          k =-0.4968 0.2516-0.5000 (  5152 PWs)   bands (ev):

   -64.8270 -64.8269 -64.8269 -64.8259 -31.6318 -31.6316 -31.6316 -31.6315
   -31.5805 -31.5803 -31.5802 -31.5800 -31.5770 -31.5768 -31.5767 -31.5767
    -8.1733  -8.1732  -8.1678  -8.1677   3.6458   3.6459   3.6506   3.6507
     6.5265   6.5266   6.5370   6.5370   7.0520   7.0522   7.0565   7.0567

          k =-0.4968-0.5032 0.0000 (  5188 PWs)   bands (ev):

   -64.8270 -64.8269 -64.8269 -64.8259 -31.6188 -31.6185 -31.6183 -31.6181
   -31.5973 -31.5967 -31.5967 -31.5961 -31.5755 -31.5752 -31.5750 -31.5748
    -8.2125  -8.2061  -8.2050  -8.1987   4.2903   4.2931   4.2933   4.2961
     5.7499   5.7656   5.7683   5.7839   7.0571   7.0622   7.0632   7.0682

          k =-0.4968-0.5032 0.2500 (  5148 PWs)   bands (ev):

   -64.8270 -64.8269 -64.8269 -64.8259 -31.6316 -31.6314 -31.6314 -31.6313
   -31.5836 -31.5834 -31.5833 -31.5831 -31.5741 -31.5739 -31.5737 -31.5736
    -8.1731  -8.1685  -8.1677  -8.1632   3.6357   3.6398   3.6404   3.6445
     6.5142   6.5232   6.5248   6.5337   7.0598   7.0633   7.0641   7.0676

          k =-0.4968-0.5032-0.5000 (  5136 PWs)   bands (ev):

   -64.8269 -64.8269 -64.8269 -64.8259 -31.6394 -31.6391 -31.6391 -31.6391
   -31.5778 -31.5776 -31.5776 -31.5775 -31.5714 -31.5712 -31.5712 -31.5710
    -8.1302  -8.1300  -8.1300  -8.1299   3.2173   3.2174   3.2174   3.2174
     7.0538   7.0538   7.0539   7.0540   7.0755   7.0756   7.0757   7.0758

          k = 0.0000-0.2516 0.2500 (  5157 PWs)   bands (ev):

   -64.8313 -64.8257 -64.8253 -64.8244 -31.6226 -31.6204 -31.6170 -31.6048
   -31.5984 -31.5977 -31.5905 -31.5859 -31.5840 -31.5832 -31.5788 -31.5657
    -8.9632  -8.0640  -8.0522  -7.8989   4.1569   4.1630   4.3142   5.0715
     5.8282   6.0483   6.0792   6.4551   6.4657   6.6048   7.1870   7.5026

          k =-0.2484 0.0000 0.2500 (  5151 PWs)   bands (ev):

   -64.8314 -64.8258 -64.8254 -64.8242 -31.6242 -31.6208 -31.6152 -31.6089
   -31.5939 -31.5900 -31.5899 -31.5893 -31.5887 -31.5860 -31.5700 -31.5699
    -8.9698  -8.0766  -8.0647  -7.8828   4.1596   4.1648   4.3429   5.0707
     5.8658   6.0320   6.0622   6.5037   6.5139   6.5623   7.1591   7.5076

          k =-0.2484 0.2516 0.0000 (  5148 PWs)   bands (ev):

   -64.8314 -64.8258 -64.8253 -64.8243 -31.6244 -31.6187 -31.6169 -31.6073
   -31.5944 -31.5926 -31.5922 -31.5889 -31.5860 -31.5833 -31.5748 -31.5669
    -8.9665  -8.0762  -8.0524  -7.8906   4.1557   4.1673   4.3282   5.0711
     5.8468   6.0249   6.0858   6.4735   6.4947   6.5846   7.1734   7.5049

          k =-0.2484-0.2516 0.2500 (  5153 PWs)   bands (ev):

   -64.8304 -64.8258 -64.8256 -64.8249 -31.6262 -31.6245 -31.6234 -31.6055
   -31.5940 -31.5933 -31.5928 -31.5861 -31.5828 -31.5804 -31.5738 -31.5678
    -8.7966  -8.0397  -8.0311  -8.0227   3.9978   4.0001   4.0031   5.0888
     5.8357   5.8452   5.8550   6.6866   6.7055   6.7236   7.3528   7.3569

          k =-0.2484 0.2516-0.2500 (  5153 PWs)   bands (ev):

   -64.8304 -64.8258 -64.8256 -64.8249 -31.6262 -31.6245 -31.6234 -31.6055
   -31.5940 -31.5933 -31.5927 -31.5861 -31.5828 -31.5804 -31.5738 -31.5678
    -8.7966  -8.0397  -8.0311  -8.0227   3.9978   4.0001   4.0031   5.0888
     5.8357   5.8452   5.8550   6.6866   6.7055   6.7236   7.3528   7.3569

          k = 0.2484-0.2516-0.2500 (  5153 PWs)   bands (ev):

   -64.8304 -64.8258 -64.8256 -64.8249 -31.6262 -31.6245 -31.6234 -31.6055
   -31.5940 -31.5933 -31.5927 -31.5861 -31.5828 -31.5804 -31.5738 -31.5678
    -8.7966  -8.0397  -8.0311  -8.0227   3.9978   4.0001   4.0031   5.0888
     5.8357   5.8452   5.8550   6.6866   6.7055   6.7236   7.3528   7.3569

          k =-0.2484 0.2516 0.5000 (  5142 PWs)   bands (ev):

   -64.8281 -64.8277 -64.8257 -64.8251 -31.6277 -31.6275 -31.6208 -31.6207
   -31.5933 -31.5930 -31.5805 -31.5803 -31.5795 -31.5794 -31.5741 -31.5739
    -8.3996  -8.3995  -7.9977  -7.9976   3.8214   3.8214   4.1976   4.1977
     5.8295   5.8295   6.7400   6.7403   6.8683   6.8683   7.0158   7.0159

          k =-0.2484 0.5032 0.2500 (  5134 PWs)   bands (ev):

   -64.8281 -64.8277 -64.8258 -64.8252 -31.6280 -31.6279 -31.6201 -31.6199
   -31.5945 -31.5943 -31.5804 -31.5801 -31.5775 -31.5774 -31.5747 -31.5746
    -8.3976  -8.3891  -7.9997  -7.9996   3.8198   3.8198   4.1837   4.1917
     5.8306   5.8309   6.7346   6.7349   6.8756   6.8795   7.0011   7.0090

          k = 0.4968-0.2516 0.2500 (  5138 PWs)   bands (ev):

   -64.8282 -64.8278 -64.8256 -64.8251 -31.6277 -31.6275 -31.6214 -31.6212
   -31.5908 -31.5906 -31.5826 -31.5825 -31.5790 -31.5789 -31.5741 -31.5738
    -8.4106  -8.4004  -7.9955  -7.9953   3.8226   3.8227   4.2032   4.2124
     5.8290   5.8293   6.7448   6.7451   6.8570   6.8609   7.0217   7.0309

     highest occupied level (ev):     7.6858

!    total energy              =    -608.39249623 Ry
     Harris-Foulkes estimate   =    -608.39249623 Ry
     estimated scf accuracy    <          9.7E-10 Ry

     The total energy is the sum of the following terms:

     one-electron contribution =    -303.59634632 Ry
     hartree contribution      =     168.08807966 Ry
     xc contribution           =     -97.84715312 Ry
     ewald contribution        =    -375.03707645 Ry

     convergence has been achieved in   5 iterations

     Forces acting on atoms (cartesian axes, Ry/au):

     atom    1 type  1   force =    -0.00132770    0.00126414   -0.00000848
     atom    2 type  1   force =    -0.00144656   -0.00134863    0.00000890
     atom    3 type  1   force =     0.00139831    0.00139492    0.00000890
     atom    4 type  1   force =     0.00139020   -0.00134427   -0.00000917
     atom    5 type  2   force =     0.00135946    0.00128894   -0.00000853
     atom    6 type  2   force =    -0.00136783   -0.00127226   -0.00000853
     atom    7 type  2   force =    -0.00136539    0.00128565    0.00000845
     atom    8 type  2   force =     0.00135951   -0.00126850    0.00000846

     Total force =     0.005375     Total SCF correction =     0.000290


     Computing stress (Cartesian axis) and pressure

          total   stress  (Ry/bohr**3)                   (kbar)     P=  -67.80
  -0.00053550   0.00000001  -0.00000000        -78.77      0.00     -0.00
   0.00000001  -0.00038298   0.00000000          0.00    -56.34      0.00
  -0.00000000   0.00000000  -0.00046426         -0.00      0.00    -68.29


     number of scf cycles    =   3
     number of bfgs steps    =   2

     energy   old            =    -608.3923599839 Ry
     energy   new            =    -608.3924962299 Ry

     CASE: energy  _new < energy  _old

     new trust radius        =       0.0063760432 bohr
     new conv_thr            =       0.0000000014 Ry


ATOMIC_POSITIONS (alat)
Mg      -0.001415277   0.001532086  -0.000009451
Mg      -0.001463482   0.498445975   0.500009484
Mg       0.501429866   0.001586243   0.500009511
Mg       0.501413352   0.498459344  -0.000009800
O        0.501572562   0.001665698  -0.000010346
O       -0.001558152   0.498325071  -0.000010358
O       -0.001556807   0.001664250   0.500010476
O        0.501577939   0.498321333   0.500010484



     Writing output data file diamond.1.006429.70.4.save
     NEW-OLD atomic charge density approx. for the potential

     Check: negative/imaginary core charge=   -0.000007    0.000000

     total cpu time spent up to now is       34.8 secs

     per-process dynamical memory:    52.1 Mb

     Self-consistent Calculation

     iteration #  1     ecut=    70.00 Ry     beta=0.70
     Davidson diagonalization with overlap
     ethr =  1.00E-06,  avg # of iterations =  3.0

     Threshold (ethr) on eigenvalues was too large:
     Diagonalizing with lowered threshold

     Davidson diagonalization with overlap
     ethr =  8.62E-08,  avg # of iterations =  1.1

     total cpu time spent up to now is       38.4 secs

     total energy              =    -608.39252576 Ry
     Harris-Foulkes estimate   =    -608.39256598 Ry
     estimated scf accuracy    <       0.00005485 Ry

     iteration #  2     ecut=    70.00 Ry     beta=0.70
     Davidson diagonalization with overlap
     ethr =  8.57E-08,  avg # of iterations =  2.2

     total cpu time spent up to now is       39.9 secs

     total energy              =    -608.39254250 Ry
     Harris-Foulkes estimate   =    -608.39254824 Ry
     estimated scf accuracy    <       0.00000958 Ry

     iteration #  3     ecut=    70.00 Ry     beta=0.70
     Davidson diagonalization with overlap
     ethr =  1.50E-08,  avg # of iterations =  2.0

     total cpu time spent up to now is       41.3 secs

     total energy              =    -608.39254456 Ry
     Harris-Foulkes estimate   =    -608.39254453 Ry
     estimated scf accuracy    <       0.00000006 Ry

     iteration #  4     ecut=    70.00 Ry     beta=0.70
     Davidson diagonalization with overlap
     ethr =  9.84E-11,  avg # of iterations =  2.5

     total cpu time spent up to now is       43.0 secs

     total energy              =    -608.39254458 Ry
     Harris-Foulkes estimate   =    -608.39254458 Ry
     estimated scf accuracy    <          4.6E-09 Ry

     iteration #  5     ecut=    70.00 Ry     beta=0.70
     Davidson diagonalization with overlap
     ethr =  7.13E-12,  avg # of iterations =  2.0

     total cpu time spent up to now is       44.4 secs

     End of self-consistent calculation

          k = 0.0000 0.0000 0.0000 (  5149 PWs)   bands (ev):

   -64.8341 -64.8247 -64.8244 -64.8238 -31.6337 -31.6305 -31.6262 -31.5969
   -31.5954 -31.5937 -31.5914 -31.5903 -31.5889 -31.5697 -31.5635 -31.5599
    -9.3650  -7.9311  -7.9141  -7.8975   3.7373   3.7576   3.7802   6.3342
     6.3403   6.3741   6.3855   6.4202   6.4255   7.6569   7.6725   7.6858

          k = 0.0000 0.0000 0.2500 (  5153 PWs)   bands (ev):

   -64.8326 -64.8258 -64.8246 -64.8240 -31.6277 -31.6202 -31.6198 -31.6023
   -31.5946 -31.5931 -31.5919 -31.5919 -31.5852 -31.5777 -31.5744 -31.5671
    -9.1566  -8.1290  -7.8978  -7.8739   4.0289   4.0687   4.0950   5.8475
     5.8681   6.1392   6.2018   6.5062   6.5801   6.6590   7.4302   7.4697

          k = 0.0000 0.0000-0.5000 (  5126 PWs)   bands (ev):

   -64.8294 -64.8290 -64.8246 -64.8240 -31.6145 -31.6142 -31.6055 -31.6053
   -31.6010 -31.6010 -31.5909 -31.5908 -31.5831 -31.5829 -31.5766 -31.5763
    -8.6464  -8.6463  -7.8572  -7.8571   4.8310   4.8310   4.8637   4.8637
     5.1228   5.1230   5.9731   5.9735   6.9385   6.9385   6.9979   6.9979

          k = 0.0000 0.2516 0.0000 (  5161 PWs)   bands (ev):

   -64.8326 -64.8256 -64.8247 -64.8241 -31.6275 -31.6236 -31.6173 -31.6011
   -31.5965 -31.5932 -31.5899 -31.5899 -31.5889 -31.5746 -31.5741 -31.5711
    -9.1529  -8.1131  -7.8982  -7.8861   4.0333   4.0523   4.1057   5.8832
     5.8929   6.1301   6.1610   6.5019   6.5390   6.6451   7.4415   7.4608

          k = 0.0000 0.2516 0.2500 (  5157 PWs)   bands (ev):

   -64.8314 -64.8257 -64.8254 -64.8245 -31.6226 -31.6205 -31.6170 -31.6049
   -31.5984 -31.5977 -31.5905 -31.5860 -31.5840 -31.5832 -31.5789 -31.5658
    -8.9632  -8.0639  -8.0521  -7.8988   4.1570   4.1630   4.3142   5.0715
     5.8282   6.0483   6.0791   6.4551   6.4657   6.6048   7.1870   7.5026

          k = 0.0000 0.2516-0.5000 (  5146 PWs)   bands (ev):

   -64.8287 -64.8283 -64.8253 -64.8247 -31.6148 -31.6147 -31.6103 -31.6100
   -31.6090 -31.6089 -31.5881 -31.5879 -31.5816 -31.5816 -31.5717 -31.5715
    -8.5080  -8.5079  -7.9451  -7.9450   4.4093   4.4094   4.7357   4.7359
     5.0852   5.0852   6.5619   6.5621   6.5957   6.5957   7.0826   7.0826

          k = 0.0000-0.5032 0.0000 (  5126 PWs)   bands (ev):

   -64.8293 -64.8289 -64.8247 -64.8241 -31.6140 -31.6138 -31.6092 -31.6090
   -31.5969 -31.5968 -31.5879 -31.5878 -31.5838 -31.5835 -31.5804 -31.5802
    -8.6354  -8.6346  -7.8614  -7.8614   4.8478   4.8489   4.8637   4.8648
     5.1164   5.1172   5.9403   5.9406   6.9413   6.9423   6.9707   6.9716

          k = 0.0000-0.5032 0.2500 (  5142 PWs)   bands (ev):

   -64.8286 -64.8282 -64.8253 -64.8248 -31.6162 -31.6161 -31.6097 -31.6094
   -31.6076 -31.6075 -31.5891 -31.5889 -31.5794 -31.5794 -31.5732 -31.5731
    -8.5008  -8.5001  -7.9491  -7.9489   4.4084   4.4087   4.7305   4.7315
     5.0976   5.0987   6.5431   6.5436   6.5777   6.5786   7.0896   7.0898

          k = 0.0000-0.5032-0.5000 (  5160 PWs)   bands (ev):

   -64.8270 -64.8270 -64.8269 -64.8260 -31.6174 -31.6172 -31.6171 -31.6171
   -31.6002 -31.6000 -31.6000 -31.5997 -31.5722 -31.5720 -31.5719 -31.5718
    -8.2015  -8.2014  -8.2010  -8.2010   4.2686   4.2687   4.2691   4.2693
     5.7692   5.7693   5.7703   5.7703   7.0725   7.0727   7.0731   7.0733

          k = 0.2484 0.0000 0.0000 (  5164 PWs)   bands (ev):

   -64.8327 -64.8260 -64.8244 -64.8239 -31.6251 -31.6237 -31.6204 -31.5988
   -31.5972 -31.5961 -31.5941 -31.5880 -31.5840 -31.5828 -31.5710 -31.5671
    -9.1602  -8.1451  -7.8851  -7.8733   4.0440   4.0643   4.0834   5.8226
     5.8334   6.1798   6.2115   6.5463   6.5831   6.6709   7.4388   7.4590

          k = 0.2484 0.0000 0.2500 (  5151 PWs)   bands (ev):

   -64.8314 -64.8258 -64.8254 -64.8243 -31.6242 -31.6208 -31.6152 -31.6090
   -31.5939 -31.5900 -31.5899 -31.5893 -31.5888 -31.5860 -31.5700 -31.5699
    -8.9697  -8.0766  -8.0646  -7.8827   4.1596   4.1649   4.3430   5.0707
     5.8658   6.0320   6.0623   6.5037   6.5142   6.5621   7.1591   7.5076

          k = 0.2484 0.0000-0.5000 (  5140 PWs)   bands (ev):

   -64.8287 -64.8283 -64.8253 -64.8247 -31.6190 -31.6188 -31.6101 -31.6100
   -31.6014 -31.6011 -31.5847 -31.5846 -31.5808 -31.5805 -31.5782 -31.5780
    -8.5120  -8.5120  -7.9499  -7.9498   4.4275   4.4276   4.7662   4.7664
     5.1079   5.1080   6.5333   6.5335   6.5557   6.5557   7.1050   7.1051

          k = 0.2484 0.2516 0.0000 (  5148 PWs)   bands (ev):

   -64.8314 -64.8258 -64.8253 -64.8244 -31.6244 -31.6188 -31.6169 -31.6073
   -31.5944 -31.5926 -31.5922 -31.5890 -31.5860 -31.5833 -31.5748 -31.5670
    -8.9664  -8.0761  -8.0524  -7.8906   4.1557   4.1674   4.3283   5.0711
     5.8469   6.0249   6.0858   6.4736   6.4948   6.5843   7.1733   7.5050

          k = 0.2484 0.2516 0.2500 (  5153 PWs)   bands (ev):

   -64.8304 -64.8258 -64.8257 -64.8250 -31.6262 -31.6245 -31.6234 -31.6055
   -31.5940 -31.5934 -31.5928 -31.5861 -31.5828 -31.5804 -31.5738 -31.5678
    -8.7965  -8.0396  -8.0311  -8.0227   3.9978   4.0001   4.0031   5.0889
     5.8357   5.8453   5.8550   6.6867   6.7055   6.7237   7.3528   7.3569

          k = 0.2484 0.2516-0.5000 (  5142 PWs)   bands (ev):

   -64.8282 -64.8278 -64.8258 -64.8252 -31.6277 -31.6275 -31.6209 -31.6208
   -31.5933 -31.5931 -31.5805 -31.5803 -31.5795 -31.5794 -31.5742 -31.5740
    -8.3995  -8.3994  -7.9976  -7.9976   3.8214   3.8215   4.1976   4.1977
     5.8295   5.8295   6.7401   6.7404   6.8682   6.8684   7.0158   7.0158

          k = 0.2484-0.5032 0.0000 (  5154 PWs)   bands (ev):

   -64.8286 -64.8282 -64.8253 -64.8248 -31.6184 -31.6183 -31.6088 -31.6087
   -31.6060 -31.6058 -31.5853 -31.5851 -31.5809 -31.5809 -31.5767 -31.5766
    -8.5028  -8.5021  -7.9514  -7.9512   4.4179   4.4181   4.7457   4.7466
     5.1081   5.1092   6.5286   6.5291   6.5580   6.5589   7.1003   7.1004

          k = 0.2484-0.5032 0.2500 (  5134 PWs)   bands (ev):

   -64.8281 -64.8277 -64.8258 -64.8252 -31.6281 -31.6279 -31.6201 -31.6200
   -31.5945 -31.5943 -31.5804 -31.5802 -31.5775 -31.5775 -31.5747 -31.5747
    -8.3936  -8.3930  -7.9996  -7.9996   3.8198   3.8199   4.1872   4.1882
     5.8308   5.8308   6.7347   6.7349   6.8775   6.8776   7.0047   7.0054

          k = 0.2484-0.5032-0.5000 (  5136 PWs)   bands (ev):

   -64.8270 -64.8269 -64.8269 -64.8260 -31.6309 -31.6306 -31.6306 -31.6306
   -31.5857 -31.5854 -31.5854 -31.5853 -31.5722 -31.5720 -31.5719 -31.5718
    -8.1661  -8.1660  -8.1657  -8.1657   3.6318   3.6319   3.6323   3.6324
     6.5160   6.5160   6.5166   6.5167   7.0732   7.0734   7.0736   7.0738

          k =-0.4968 0.0000 0.0000 (  5150 PWs)   bands (ev):

   -64.8295 -64.8291 -64.8244 -64.8239 -31.6101 -31.6098 -31.6065 -31.6062
   -31.6049 -31.6047 -31.5970 -31.5970 -31.5794 -31.5792 -31.5763 -31.5760
    -8.6583  -8.6567  -7.8524  -7.8523   4.8289   4.8316   4.8453   4.8479
     5.1277   5.1283   6.0047   6.0050   6.9640   6.9653   6.9940   6.9953

          k =-0.4968 0.0000 0.2500 (  5152 PWs)   bands (ev):

   -64.8288 -64.8284 -64.8252 -64.8246 -31.6179 -31.6178 -31.6119 -31.6117
   -31.6022 -31.6019 -31.5870 -31.5869 -31.5803 -31.5801 -31.5762 -31.5760
    -8.5201  -8.5187  -7.9458  -7.9455   4.4267   4.4280   4.7705   4.7711
     5.0941   5.0966   6.5516   6.5525   6.5719   6.5735   7.0977   7.0982

          k =-0.4968 0.0000-0.5000 (  5192 PWs)   bands (ev):

   -64.8270 -64.8270 -64.8269 -64.8260 -31.6199 -31.6197 -31.6196 -31.6196
   -31.5923 -31.5920 -31.5920 -31.5917 -31.5786 -31.5784 -31.5783 -31.5783
    -8.2106  -8.2106  -8.2098  -8.2097   4.3173   4.3174   4.3174   4.3176
     5.7646   5.7647   5.7668   5.7669   7.0528   7.0530   7.0534   7.0536

          k =-0.4968 0.2516 0.0000 (  5156 PWs)   bands (ev):

   -64.8288 -64.8284 -64.8252 -64.8246 -31.6161 -31.6159 -31.6115 -31.6114
   -31.6071 -31.6068 -31.5850 -31.5849 -31.5839 -31.5836 -31.5727 -31.5725
    -8.5180  -8.5166  -7.9433  -7.9430   4.4180   4.4193   4.7552   4.7558
     5.0819   5.0845   6.5658   6.5666   6.5920   6.5937   7.0860   7.0865

          k =-0.4968 0.2516 0.2500 (  5138 PWs)   bands (ev):

   -64.8282 -64.8279 -64.8257 -64.8251 -31.6277 -31.6276 -31.6213 -31.6212
   -31.5908 -31.5906 -31.5826 -31.5825 -31.5791 -31.5790 -31.5741 -31.5739
    -8.4060  -8.4049  -7.9954  -7.9953   3.8227   3.8227   4.2075   4.2082
     5.8291   5.8292   6.7449   6.7451   6.8586   6.8593   7.0258   7.0268

          k =-0.4968 0.2516-0.5000 (  5152 PWs)   bands (ev):

   -64.8270 -64.8269 -64.8269 -64.8260 -31.6318 -31.6316 -31.6316 -31.6315
   -31.5805 -31.5803 -31.5802 -31.5801 -31.5771 -31.5768 -31.5768 -31.5767
    -8.1708  -8.1707  -8.1701  -8.1701   3.6480   3.6482   3.6484   3.6485
     6.5311   6.5312   6.5324   6.5324   7.0541   7.0543   7.0545   7.0547

          k =-0.4968-0.5032 0.0000 (  5188 PWs)   bands (ev):

   -64.8270 -64.8270 -64.8269 -64.8260 -31.6186 -31.6185 -31.6183 -31.6183
   -31.5970 -31.5968 -31.5967 -31.5965 -31.5754 -31.5752 -31.5751 -31.5750
    -8.2062  -8.2057  -8.2053  -8.2049   4.2929   4.2929   4.2934   4.2936
     5.7653   5.7664   5.7676   5.7686   7.0622   7.0627   7.0627   7.0633

          k =-0.4968-0.5032 0.2500 (  5148 PWs)   bands (ev):

   -64.8270 -64.8270 -64.8269 -64.8260 -31.6317 -31.6314 -31.6314 -31.6313
   -31.5836 -31.5834 -31.5833 -31.5832 -31.5741 -31.5739 -31.5738 -31.5737
    -8.1685  -8.1682  -8.1679  -8.1676   3.6397   3.6400   3.6402   3.6405
     6.5231   6.5237   6.5243   6.5249   7.0633   7.0637   7.0637   7.0641

          k =-0.4968-0.5032-0.5000 (  5136 PWs)   bands (ev):

   -64.8270 -64.8269 -64.8269 -64.8260 -31.6394 -31.6391 -31.6391 -31.6391
   -31.5779 -31.5777 -31.5776 -31.5775 -31.5714 -31.5712 -31.5712 -31.5711
    -8.1301  -8.1300  -8.1299  -8.1299   3.2173   3.2174   3.2174   3.2174
     7.0537   7.0539   7.0540   7.0540   7.0755   7.0756   7.0757   7.0758

          k = 0.0000-0.2516 0.2500 (  5157 PWs)   bands (ev):

   -64.8314 -64.8257 -64.8254 -64.8245 -31.6226 -31.6205 -31.6170 -31.6049
   -31.5984 -31.5977 -31.5905 -31.5860 -31.5840 -31.5832 -31.5789 -31.5658
    -8.9632  -8.0639  -8.0521  -7.8988   4.1570   4.1630   4.3142   5.0715
     5.8282   6.0483   6.0791   6.4551   6.4657   6.6048   7.1870   7.5026

          k =-0.2484 0.0000 0.2500 (  5151 PWs)   bands (ev):

   -64.8314 -64.8258 -64.8254 -64.8243 -31.6242 -31.6208 -31.6152 -31.6090
   -31.5939 -31.5900 -31.5899 -31.5893 -31.5888 -31.5860 -31.5700 -31.5699
    -8.9697  -8.0766  -8.0646  -7.8827   4.1596   4.1649   4.3430   5.0707
     5.8658   6.0320   6.0623   6.5037   6.5142   6.5621   7.1591   7.5076

          k =-0.2484 0.2516 0.0000 (  5148 PWs)   bands (ev):

   -64.8314 -64.8258 -64.8253 -64.8244 -31.6244 -31.6188 -31.6169 -31.6073
   -31.5944 -31.5926 -31.5922 -31.5890 -31.5860 -31.5833 -31.5748 -31.5670
    -8.9664  -8.0761  -8.0524  -7.8906   4.1557   4.1674   4.3283   5.0711
     5.8469   6.0249   6.0858   6.4736   6.4948   6.5843   7.1733   7.5050

          k =-0.2484-0.2516 0.2500 (  5153 PWs)   bands (ev):

   -64.8304 -64.8258 -64.8257 -64.8250 -31.6262 -31.6245 -31.6234 -31.6055
   -31.5940 -31.5934 -31.5928 -31.5861 -31.5828 -31.5804 -31.5738 -31.5678
    -8.7965  -8.0396  -8.0311  -8.0227   3.9978   4.0001   4.0031   5.0889
     5.8357   5.8453   5.8550   6.6867   6.7055   6.7237   7.3528   7.3569

          k =-0.2484 0.2516-0.2500 (  5153 PWs)   bands (ev):

   -64.8304 -64.8258 -64.8257 -64.8250 -31.6262 -31.6245 -31.6234 -31.6055
   -31.5940 -31.5934 -31.5928 -31.5861 -31.5828 -31.5804 -31.5738 -31.5678
    -8.7965  -8.0396  -8.0311  -8.0227   3.9978   4.0001   4.0031   5.0889
     5.8357   5.8453   5.8550   6.6867   6.7055   6.7237   7.3528   7.3569

          k = 0.2484-0.2516-0.2500 (  5153 PWs)   bands (ev):

   -64.8304 -64.8258 -64.8257 -64.8250 -31.6262 -31.6245 -31.6234 -31.6055
   -31.5940 -31.5934 -31.5928 -31.5861 -31.5828 -31.5804 -31.5738 -31.5678
    -8.7965  -8.0396  -8.0311  -8.0227   3.9978   4.0001   4.0031   5.0889
     5.8357   5.8453   5.8550   6.6867   6.7055   6.7237   7.3528   7.3569

          k =-0.2484 0.2516 0.5000 (  5142 PWs)   bands (ev):

   -64.8282 -64.8278 -64.8258 -64.8252 -31.6277 -31.6276 -31.6209 -31.6207
   -31.5933 -31.5931 -31.5805 -31.5803 -31.5795 -31.5795 -31.5742 -31.5740
    -8.3995  -8.3994  -7.9976  -7.9976   3.8214   3.8215   4.1976   4.1977
     5.8295   5.8295   6.7401   6.7404   6.8682   6.8684   7.0158   7.0158

          k =-0.2484 0.5032 0.2500 (  5134 PWs)   bands (ev):

   -64.8281 -64.8277 -64.8258 -64.8252 -31.6281 -31.6279 -31.6201 -31.6200
   -31.5945 -31.5943 -31.5804 -31.5802 -31.5775 -31.5775 -31.5747 -31.5747
    -8.3936  -8.3930  -7.9996  -7.9996   3.8198   3.8199   4.1872   4.1882
     5.8308   5.8308   6.7347   6.7349   6.8775   6.8776   7.0047   7.0054

          k = 0.4968-0.2516 0.2500 (  5138 PWs)   bands (ev):

   -64.8282 -64.8279 -64.8257 -64.8251 -31.6277 -31.6276 -31.6213 -31.6212
   -31.5908 -31.5906 -31.5826 -31.5825 -31.5791 -31.5790 -31.5741 -31.5739
    -8.4060  -8.4049  -7.9954  -7.9953   3.8227   3.8227   4.2075   4.2082
     5.8291   5.8292   6.7449   6.7451   6.8586   6.8593   7.0258   7.0268

     highest occupied level (ev):     7.6858

!    total energy              =    -608.39254458 Ry
     Harris-Foulkes estimate   =    -608.39254458 Ry
     estimated scf accuracy    <          7.4E-10 Ry

     The total energy is the sum of the following terms:

     one-electron contribution =    -303.58624856 Ry
     hartree contribution      =     168.08300534 Ry
     xc contribution           =     -97.84705472 Ry
     ewald contribution        =    -375.04224664 Ry

     convergence has been achieved in   5 iterations

     Forces acting on atoms (cartesian axes, Ry/au):

     atom    1 type  1   force =    -0.00016099   -0.00009613   -0.00000031
     atom    2 type  1   force =    -0.00030777   -0.00002038    0.00000109
     atom    3 type  1   force =     0.00027372    0.00005082    0.00000108
     atom    4 type  1   force =     0.00028018   -0.00002779   -0.00000121
     atom    5 type  2   force =     0.00001528   -0.00020408    0.00000049
     atom    6 type  2   force =    -0.00005207    0.00023912    0.00000050
     atom    7 type  2   force =    -0.00004785   -0.00020610   -0.00000075
     atom    8 type  2   force =    -0.00000050    0.00026454   -0.00000088

     Total force =     0.000710     Total SCF correction =     0.000296
     SCF correction compared to forces is large: reduce conv_thr to get better values


     Computing stress (Cartesian axis) and pressure

          total   stress  (Ry/bohr**3)                   (kbar)     P=  -67.85
  -0.00053605   0.00000000  -0.00000000        -78.86      0.00     -0.00
   0.00000000  -0.00038345   0.00000000          0.00    -56.41      0.00
  -0.00000000   0.00000000  -0.00046426         -0.00      0.00    -68.30


     number of scf cycles    =   4
     number of bfgs steps    =   3

     energy   old            =    -608.3924962299 Ry
     energy   new            =    -608.3925445757 Ry

     CASE: energy  _new < energy  _old

     new trust radius        =       0.0003648695 bohr
     new conv_thr            =       0.0000000003 Ry


ATOMIC_POSITIONS (alat)
Mg      -0.001441120   0.001525987  -0.000009528
Mg      -0.001508002   0.498437311   0.500009659
Mg       0.501469964   0.001598868   0.500009684
Mg       0.501454200   0.498449797  -0.000009991
O        0.501580659   0.001646509  -0.000010324
O       -0.001570826   0.498348640  -0.000010336
O       -0.001568946   0.001644801   0.500010422
O        0.501584071   0.498348086   0.500010414



     Writing output data file diamond.1.006429.70.4.save
     NEW-OLD atomic charge density approx. for the potential

     Check: negative/imaginary core charge=   -0.000007    0.000000

     total cpu time spent up to now is       45.3 secs

     per-process dynamical memory:    52.1 Mb

     Self-consistent Calculation

     iteration #  1     ecut=    70.00 Ry     beta=0.70
     Davidson diagonalization with overlap
     ethr =  1.00E-06,  avg # of iterations =  2.0

     Threshold (ethr) on eigenvalues was too large:
     Diagonalizing with lowered threshold

     Davidson diagonalization with overlap
[...]
Mg      -0.001606610   0.498432869   0.500009985
Mg       0.501554843   0.001616038   0.500010001
Mg       0.501541957   0.498442557  -0.000010362
O        0.501586165   0.001591557  -0.000010216
O       -0.001590108   0.498413138  -0.000010222
O       -0.001587553   0.001588634   0.500010214
O        0.501578988   0.498428801   0.500010133



     Writing output data file diamond.1.006429.70.4.save
     NEW-OLD atomic charge density approx. for the potential

     Check: negative/imaginary core charge=   -0.000007    0.000000

     total cpu time spent up to now is       64.8 secs

     per-process dynamical memory:    52.1 Mb

     Self-consistent Calculation

     iteration #  1     ecut=    70.00 Ry     beta=0.70
     Davidson diagonalization with overlap
     ethr =  1.00E-06,  avg # of iterations =  2.0

     Threshold (ethr) on eigenvalues was too large:
     Diagonalizing with lowered threshold

     Davidson diagonalization with overlap
     ethr =  5.94E-11,  avg # of iterations =  3.6

     total cpu time spent up to now is       68.4 secs

     total energy              =    -608.39254542 Ry
     Harris-Foulkes estimate   =    -608.39254547 Ry
     estimated scf accuracy    <       0.00000007 Ry

     iteration #  2     ecut=    70.00 Ry     beta=0.70
     Davidson diagonalization with overlap
     ethr =  1.06E-10,  avg # of iterations =  2.2

     total cpu time spent up to now is       69.9 secs

     total energy              =    -608.39254544 Ry
     Harris-Foulkes estimate   =    -608.39254544 Ry
     estimated scf accuracy    <       0.00000001 Ry

     iteration #  3     ecut=    70.00 Ry     beta=0.70
     Davidson diagonalization with overlap
     ethr =  1.76E-11,  avg # of iterations =  2.0

     total cpu time spent up to now is       71.3 secs

     total energy              =    -608.39254544 Ry
     Harris-Foulkes estimate   =    -608.39254544 Ry
     estimated scf accuracy    <          1.1E-10 Ry

     iteration #  4     ecut=    70.00 Ry     beta=0.70
     Davidson diagonalization with overlap
     ethr =  1.67E-13,  avg # of iterations =  2.8

     total cpu time spent up to now is       73.1 secs

     End of self-consistent calculation

          k = 0.0000 0.0000 0.0000 (  5149 PWs)   bands (ev):

   -64.8341 -64.8247 -64.8244 -64.8238 -31.6337 -31.6305 -31.6262 -31.5969
   -31.5954 -31.5937 -31.5914 -31.5904 -31.5889 -31.5697 -31.5635 -31.5599
    -9.3650  -7.9311  -7.9141  -7.8975   3.7372   3.7576   3.7802   6.3342
     6.3403   6.3741   6.3855   6.4202   6.4255   7.6569   7.6725   7.6858

          k = 0.0000 0.0000 0.2500 (  5153 PWs)   bands (ev):

   -64.8326 -64.8258 -64.8246 -64.8240 -31.6277 -31.6202 -31.6198 -31.6023
   -31.5946 -31.5931 -31.5919 -31.5919 -31.5852 -31.5777 -31.5744 -31.5671
    -9.1566  -8.1290  -7.8978  -7.8739   4.0288   4.0687   4.0950   5.8475
     5.8681   6.1392   6.2018   6.5062   6.5800   6.6590   7.4302   7.4697

          k = 0.0000 0.0000-0.5000 (  5126 PWs)   bands (ev):

   -64.8294 -64.8290 -64.8246 -64.8240 -31.6145 -31.6142 -31.6055 -31.6053
   -31.6010 -31.6010 -31.5909 -31.5908 -31.5831 -31.5829 -31.5766 -31.5763
    -8.6464  -8.6463  -7.8572  -7.8571   4.8310   4.8310   4.8637   4.8637
     5.1228   5.1231   5.9731   5.9735   6.9385   6.9385   6.9979   6.9979

          k = 0.0000 0.2516 0.0000 (  5161 PWs)   bands (ev):

   -64.8326 -64.8256 -64.8247 -64.8241 -31.6275 -31.6236 -31.6173 -31.6011
   -31.5965 -31.5932 -31.5899 -31.5899 -31.5889 -31.5746 -31.5741 -31.5712
    -9.1529  -8.1131  -7.8982  -7.8861   4.0333   4.0523   4.1057   5.8832
     5.8929   6.1301   6.1610   6.5019   6.5390   6.6451   7.4415   7.4608

          k = 0.0000 0.2516 0.2500 (  5157 PWs)   bands (ev):

   -64.8314 -64.8257 -64.8254 -64.8245 -31.6226 -31.6205 -31.6170 -31.6049
   -31.5984 -31.5977 -31.5905 -31.5860 -31.5840 -31.5832 -31.5789 -31.5658
    -8.9632  -8.0639  -8.0521  -7.8989   4.1570   4.1630   4.3142   5.0715
     5.8282   6.0483   6.0791   6.4551   6.4657   6.6048   7.1870   7.5026

          k = 0.0000 0.2516-0.5000 (  5146 PWs)   bands (ev):

   -64.8287 -64.8283 -64.8253 -64.8247 -31.6148 -31.6147 -31.6103 -31.6100
   -31.6090 -31.6089 -31.5881 -31.5879 -31.5816 -31.5816 -31.5717 -31.5715
    -8.5080  -8.5079  -7.9451  -7.9450   4.4093   4.4094   4.7357   4.7359
     5.0852   5.0852   6.5619   6.5621   6.5957   6.5957   7.0826   7.0826

          k = 0.0000-0.5032 0.0000 (  5126 PWs)   bands (ev):

   -64.8293 -64.8289 -64.8247 -64.8241 -31.6140 -31.6138 -31.6092 -31.6090
   -31.5969 -31.5968 -31.5879 -31.5878 -31.5838 -31.5835 -31.5804 -31.5802
    -8.6353  -8.6347  -7.8614  -7.8613   4.8478   4.8489   4.8638   4.8648
     5.1165   5.1170   5.9403   5.9406   6.9415   6.9421   6.9709   6.9715

          k = 0.0000-0.5032 0.2500 (  5142 PWs)   bands (ev):

   -64.8286 -64.8282 -64.8253 -64.8248 -31.6162 -31.6161 -31.6097 -31.6094
   -31.6076 -31.6075 -31.5891 -31.5889 -31.5794 -31.5794 -31.5732 -31.5731
    -8.5007  -8.5002  -7.9491  -7.9489   4.4083   4.4088   4.7308   4.7312
     5.0976   5.0986   6.5432   6.5436   6.5778   6.5785   7.0896   7.0898

          k = 0.0000-0.5032-0.5000 (  5160 PWs)   bands (ev):

   -64.8270 -64.8270 -64.8269 -64.8260 -31.6174 -31.6172 -31.6171 -31.6171
   -31.6002 -31.6000 -31.6000 -31.5997 -31.5722 -31.5720 -31.5719 -31.5718
    -8.2015  -8.2014  -8.2011  -8.2010   4.2688   4.2689   4.2689   4.2691
     5.7693   5.7693   5.7702   5.7703   7.0727   7.0728   7.0729   7.0731

          k = 0.2484 0.0000 0.0000 (  5164 PWs)   bands (ev):

   -64.8327 -64.8260 -64.8244 -64.8239 -31.6251 -31.6237 -31.6204 -31.5988
   -31.5972 -31.5961 -31.5941 -31.5880 -31.5840 -31.5828 -31.5710 -31.5671
    -9.1602  -8.1451  -7.8852  -7.8733   4.0440   4.0643   4.0834   5.8226
     5.8334   6.1798   6.2115   6.5463   6.5831   6.6709   7.4388   7.4590

          k = 0.2484 0.0000 0.2500 (  5151 PWs)   bands (ev):

   -64.8314 -64.8258 -64.8254 -64.8243 -31.6242 -31.6208 -31.6152 -31.6090
   -31.5939 -31.5900 -31.5899 -31.5893 -31.5888 -31.5861 -31.5700 -31.5699
    -8.9697  -8.0766  -8.0646  -7.8827   4.1596   4.1649   4.3430   5.0707
     5.8658   6.0320   6.0623   6.5037   6.5142   6.5621   7.1591   7.5076

          k = 0.2484 0.0000-0.5000 (  5140 PWs)   bands (ev):

   -64.8287 -64.8283 -64.8253 -64.8247 -31.6190 -31.6188 -31.6101 -31.6100
   -31.6014 -31.6012 -31.5847 -31.5846 -31.5808 -31.5805 -31.5782 -31.5780
    -8.5121  -8.5120  -7.9499  -7.9498   4.4275   4.4276   4.7662   4.7664
     5.1079   5.1080   6.5333   6.5335   6.5557   6.5557   7.1050   7.1051

          k = 0.2484 0.2516 0.0000 (  5148 PWs)   bands (ev):

   -64.8314 -64.8258 -64.8253 -64.8244 -31.6244 -31.6188 -31.6169 -31.6073
   -31.5944 -31.5926 -31.5922 -31.5890 -31.5860 -31.5833 -31.5748 -31.5670
    -8.9664  -8.0761  -8.0524  -7.8906   4.1557   4.1674   4.3283   5.0711
     5.8468   6.0249   6.0858   6.4736   6.4948   6.5843   7.1733   7.5050

          k = 0.2484 0.2516 0.2500 (  5153 PWs)   bands (ev):

   -64.8304 -64.8258 -64.8257 -64.8250 -31.6262 -31.6245 -31.6234 -31.6055
   -31.5940 -31.5934 -31.5928 -31.5861 -31.5828 -31.5804 -31.5738 -31.5678
    -8.7965  -8.0396  -8.0311  -8.0227   3.9978   4.0001   4.0031   5.0889
     5.8357   5.8453   5.8550   6.6867   6.7055   6.7237   7.3528   7.3569

          k = 0.2484 0.2516-0.5000 (  5142 PWs)   bands (ev):

   -64.8282 -64.8278 -64.8258 -64.8252 -31.6277 -31.6275 -31.6209 -31.6208
   -31.5933 -31.5931 -31.5805 -31.5803 -31.5795 -31.5794 -31.5742 -31.5740
    -8.3995  -8.3994  -7.9977  -7.9976   3.8214   3.8215   4.1976   4.1977
     5.8295   5.8295   6.7401   6.7404   6.8682   6.8684   7.0158   7.0158

          k = 0.2484-0.5032 0.0000 (  5154 PWs)   bands (ev):

   -64.8286 -64.8282 -64.8253 -64.8248 -31.6184 -31.6183 -31.6088 -31.6087
   -31.6060 -31.6058 -31.5853 -31.5851 -31.5809 -31.5809 -31.5767 -31.5766
    -8.5027  -8.5022  -7.9514  -7.9512   4.4178   4.4182   4.7459   4.7463
     5.1082   5.1092   6.5286   6.5290   6.5581   6.5588   7.1002   7.1004

          k = 0.2484-0.5032 0.2500 (  5134 PWs)   bands (ev):

   -64.8281 -64.8277 -64.8258 -64.8252 -31.6281 -31.6279 -31.6201 -31.6200
   -31.5945 -31.5943 -31.5804 -31.5802 -31.5775 -31.5775 -31.5747 -31.5747
    -8.3936  -8.3931  -7.9997  -7.9996   3.8198   3.8199   4.1875   4.1879
     5.8307   5.8308   6.7347   6.7349   6.8774   6.8777   7.0048   7.0053

          k = 0.2484-0.5032-0.5000 (  5136 PWs)   bands (ev):

   -64.8270 -64.8270 -64.8269 -64.8260 -31.6309 -31.6306 -31.6306 -31.6306
   -31.5857 -31.5854 -31.5854 -31.5853 -31.5722 -31.5720 -31.5719 -31.5718
    -8.1661  -8.1659  -8.1658  -8.1657   3.6320   3.6321   3.6322   3.6323
     6.5160   6.5160   6.5166   6.5166   7.0733   7.0735   7.0735   7.0737

          k =-0.4968 0.0000 0.0000 (  5150 PWs)   bands (ev):

   -64.8295 -64.8291 -64.8244 -64.8239 -31.6101 -31.6098 -31.6064 -31.6062
   -31.6048 -31.6047 -31.5970 -31.5970 -31.5794 -31.5792 -31.5763 -31.5761
    -8.6578  -8.6572  -7.8524  -7.8524   4.8297   4.8308   4.8461   4.8472
     5.1278   5.1282   6.0047   6.0050   6.9644   6.9650   6.9944   6.9950

          k =-0.4968 0.0000 0.2500 (  5152 PWs)   bands (ev):

   -64.8288 -64.8284 -64.8252 -64.8246 -31.6179 -31.6178 -31.6118 -31.6118
   -31.6021 -31.6019 -31.5870 -31.5869 -31.5803 -31.5801 -31.5762 -31.5760
    -8.5197  -8.5191  -7.9457  -7.9456   4.4271   4.4276   4.7706   4.7710
     5.0948   5.0959   6.5518   6.5523   6.5723   6.5730   7.0979   7.0981

          k =-0.4968 0.0000-0.5000 (  5192 PWs)   bands (ev):

   -64.8270 -64.8270 -64.8269 -64.8260 -31.6199 -31.6197 -31.6196 -31.6196
   -31.5922 -31.5921 -31.5920 -31.5918 -31.5786 -31.5784 -31.5783 -31.5783
    -8.2104  -8.2103  -8.2100  -8.2099   4.3173   4.3174   4.3174   4.3175
     5.7652   5.7652   5.7662   5.7663   7.0530   7.0531   7.0533   7.0534

          k =-0.4968 0.2516 0.0000 (  5156 PWs)   bands (ev):

   -64.8288 -64.8284 -64.8252 -64.8246 -31.6161 -31.6160 -31.6115 -31.6114
   -31.6071 -31.6069 -31.5850 -31.5849 -31.5838 -31.5836 -31.5727 -31.5725
    -8.5176  -8.5170  -7.9432  -7.9431   4.4184   4.4189   4.7553   4.7557
     5.0827   5.0837   6.5660   6.5664   6.5925   6.5932   7.0861   7.0863

          k =-0.4968 0.2516 0.2500 (  5138 PWs)   bands (ev):

   -64.8282 -64.8279 -64.8257 -64.8251 -31.6277 -31.6276 -31.6213 -31.6212
   -31.5908 -31.5906 -31.5826 -31.5825 -31.5791 -31.5790 -31.5741 -31.5739
    -8.4057  -8.4052  -7.9954  -7.9953   3.8227   3.8227   4.2077   4.2080
     5.8292   5.8292   6.7449   6.7451   6.8588   6.8591   7.0261   7.0265

          k =-0.4968 0.2516-0.5000 (  5152 PWs)   bands (ev):

   -64.8270 -64.8270 -64.8269 -64.8260 -31.6318 -31.6316 -31.6316 -31.6315
   -31.5805 -31.5803 -31.5802 -31.5801 -31.5771 -31.5768 -31.5768 -31.5767
    -8.1706  -8.1705  -8.1703  -8.1702   3.6481   3.6482   3.6483   3.6484
     6.5315   6.5316   6.5320   6.5321   7.0542   7.0543   7.0544   7.0546

          k =-0.4968-0.5032 0.0000 (  5188 PWs)   bands (ev):

   -64.8270 -64.8270 -64.8269 -64.8260 -31.6186 -31.6185 -31.6183 -31.6183
   -31.5969 -31.5968 -31.5968 -31.5965 -31.5754 -31.5752 -31.5751 -31.5750
    -8.2059  -8.2056  -8.2055  -8.2052   4.2931   4.2932   4.2932   4.2933
     5.7660   5.7668   5.7671   5.7679   7.0624   7.0627   7.0627   7.0630

          k =-0.4968-0.5032 0.2500 (  5148 PWs)   bands (ev):

   -64.8270 -64.8270 -64.8269 -64.8260 -31.6317 -31.6314 -31.6314 -31.6313
   -31.5836 -31.5834 -31.5833 -31.5832 -31.5741 -31.5739 -31.5738 -31.5737
    -8.1683  -8.1681  -8.1680  -8.1678   3.6399   3.6401   3.6401   3.6403
     6.5235   6.5239   6.5241   6.5245   7.0635   7.0637   7.0637   7.0640

          k =-0.4968-0.5032-0.5000 (  5136 PWs)   bands (ev):

   -64.8270 -64.8269 -64.8269 -64.8260 -31.6394 -31.6391 -31.6391 -31.6391
   -31.5779 -31.5777 -31.5776 -31.5775 -31.5714 -31.5712 -31.5712 -31.5711
    -8.1301  -8.1299  -8.1299  -8.1299   3.2173   3.2174   3.2174   3.2174
     7.0538   7.0538   7.0539   7.0541   7.0755   7.0756   7.0757   7.0758

          k = 0.0000-0.2516 0.2500 (  5157 PWs)   bands (ev):

   -64.8314 -64.8257 -64.8254 -64.8245 -31.6226 -31.6205 -31.6170 -31.6049
   -31.5984 -31.5977 -31.5905 -31.5860 -31.5840 -31.5832 -31.5789 -31.5658
    -8.9632  -8.0639  -8.0521  -7.8989   4.1570   4.1630   4.3142   5.0715
     5.8282   6.0483   6.0791   6.4551   6.4657   6.6048   7.1870   7.5026

          k =-0.2484 0.0000 0.2500 (  5151 PWs)   bands (ev):

   -64.8314 -64.8258 -64.8254 -64.8243 -31.6242 -31.6208 -31.6152 -31.6090
   -31.5939 -31.5900 -31.5899 -31.5893 -31.5888 -31.5861 -31.5700 -31.5699
    -8.9697  -8.0766  -8.0646  -7.8827   4.1596   4.1649   4.3430   5.0707
     5.8658   6.0320   6.0623   6.5037   6.5142   6.5621   7.1591   7.5076

          k =-0.2484 0.2516 0.0000 (  5148 PWs)   bands (ev):

   -64.8314 -64.8258 -64.8253 -64.8244 -31.6244 -31.6188 -31.6169 -31.6073
   -31.5944 -31.5926 -31.5922 -31.5890 -31.5860 -31.5833 -31.5748 -31.5670
    -8.9664  -8.0761  -8.0524  -7.8906   4.1557   4.1674   4.3283   5.0711
     5.8468   6.0249   6.0858   6.4736   6.4948   6.5843   7.1733   7.5050

          k =-0.2484-0.2516 0.2500 (  5153 PWs)   bands (ev):

   -64.8304 -64.8258 -64.8257 -64.8250 -31.6262 -31.6245 -31.6234 -31.6055
   -31.5940 -31.5934 -31.5928 -31.5861 -31.5828 -31.5804 -31.5738 -31.5678
    -8.7965  -8.0396  -8.0311  -8.0227   3.9978   4.0001   4.0031   5.0889
     5.8357   5.8453   5.8550   6.6867   6.7055   6.7237   7.3528   7.3569

          k =-0.2484 0.2516-0.2500 (  5153 PWs)   bands (ev):

   -64.8304 -64.8258 -64.8257 -64.8250 -31.6262 -31.6245 -31.6234 -31.6055
   -31.5940 -31.5934 -31.5928 -31.5861 -31.5828 -31.5804 -31.5738 -31.5678
    -8.7965  -8.0396  -8.0311  -8.0227   3.9978   4.0001   4.0031   5.0889
     5.8357   5.8453   5.8550   6.6867   6.7055   6.7237   7.3528   7.3569

          k = 0.2484-0.2516-0.2500 (  5153 PWs)   bands (ev):

   -64.8304 -64.8258 -64.8257 -64.8250 -31.6262 -31.6245 -31.6234 -31.6055
   -31.5940 -31.5934 -31.5928 -31.5861 -31.5828 -31.5804 -31.5738 -31.5678
    -8.7965  -8.0396  -8.0311  -8.0227   3.9978   4.0001   4.0031   5.0889
     5.8357   5.8453   5.8550   6.6867   6.7055   6.7237   7.3528   7.3569

          k =-0.2484 0.2516 0.5000 (  5142 PWs)   bands (ev):

   -64.8282 -64.8278 -64.8258 -64.8252 -31.6277 -31.6276 -31.6209 -31.6207
   -31.5933 -31.5931 -31.5805 -31.5803 -31.5795 -31.5795 -31.5742 -31.5740
    -8.3995  -8.3994  -7.9977  -7.9976   3.8214   3.8215   4.1976   4.1977
     5.8295   5.8295   6.7401   6.7404   6.8682   6.8684   7.0158   7.0158

          k =-0.2484 0.5032 0.2500 (  5134 PWs)   bands (ev):

   -64.8281 -64.8277 -64.8258 -64.8252 -31.6281 -31.6279 -31.6201 -31.6200
   -31.5945 -31.5943 -31.5804 -31.5802 -31.5775 -31.5775 -31.5747 -31.5747
    -8.3936  -8.3931  -7.9997  -7.9996   3.8198   3.8199   4.1875   4.1879
     5.8307   5.8308   6.7347   6.7349   6.8774   6.8777   7.0048   7.0053

          k = 0.4968-0.2516 0.2500 (  5138 PWs)   bands (ev):

   -64.8282 -64.8279 -64.8257 -64.8251 -31.6277 -31.6276 -31.6213 -31.6212
   -31.5908 -31.5906 -31.5826 -31.5825 -31.5791 -31.5790 -31.5741 -31.5739
    -8.4057  -8.4052  -7.9954  -7.9953   3.8227   3.8227   4.2077   4.2080
     5.8292   5.8292   6.7449   6.7451   6.8588   6.8591   7.0261   7.0265

     highest occupied level (ev):     7.6858

!    total energy              =    -608.39254544 Ry
     Harris-Foulkes estimate   =    -608.39254544 Ry
     estimated scf accuracy    <          3.0E-11 Ry

     The total energy is the sum of the following terms:

     one-electron contribution =    -303.58612387 Ry
     hartree contribution      =     168.08295012 Ry
     xc contribution           =     -97.84705655 Ry
     ewald contribution        =    -375.04231514 Ry

     convergence has been achieved in   4 iterations

     Forces acting on atoms (cartesian axes, Ry/au):

     atom    1 type  1   force =     0.00004044   -0.00003468    0.00000027
     atom    2 type  1   force =    -0.00001535    0.00000793   -0.00000002
     atom    3 type  1   force =     0.00000329    0.00000400   -0.00000004
     atom    4 type  1   force =     0.00000683    0.00000640   -0.00000002
     atom    5 type  2   force =     0.00000424    0.00001463   -0.00000007
     atom    6 type  2   force =    -0.00001062   -0.00002117   -0.00000006
     atom    7 type  2   force =    -0.00001107    0.00001460    0.00000005
     atom    8 type  2   force =    -0.00001776    0.00000829   -0.00000011

     Total force =     0.000069     Total SCF correction =     0.000021
     SCF correction compared to forces is large: reduce conv_thr to get better values


     Computing stress (Cartesian axis) and pressure

          total   stress  (Ry/bohr**3)                   (kbar)     P=  -67.85
  -0.00053605   0.00000000  -0.00000000        -78.86      0.00     -0.00
   0.00000000  -0.00038343   0.00000000          0.00    -56.40      0.00
  -0.00000000   0.00000000  -0.00046425         -0.00      0.00    -68.29


     bfgs converged in   7 scf cycles and   6 bfgs steps
     (criteria: energy <  1.0E-05 Ry, force <  1.0E-04 Ry/Bohr)

     End of BFGS Geometry Optimization

     Final energy   =    -608.3925454402 Ry
Begin final coordinates

ATOMIC_POSITIONS (alat)
Mg      -0.001477681   0.001486406  -0.000009534
Mg      -0.001606610   0.498432869   0.500009985
Mg       0.501554843   0.001616038   0.500010001
Mg       0.501541957   0.498442557  -0.000010362
O        0.501586165   0.001591557  -0.000010216
O       -0.001590108   0.498413138  -0.000010222
O       -0.001587553   0.001588634   0.500010214
O        0.501578988   0.498428801   0.500010133
End final coordinates



     Writing output data file diamond.1.006429.70.4.save
 
     init_run     :      0.61s CPU      0.64s WALL (       1 calls)
     electrons    :     65.72s CPU     67.39s WALL (       7 calls)
     update_pot   :      0.67s CPU      0.68s WALL (       6 calls)
     forces       :      1.30s CPU      1.30s WALL (       7 calls)
     stress       :      3.04s CPU      3.06s WALL (       7 calls)

     Called by init_run:
     wfcinit      :      0.50s CPU      0.52s WALL (       1 calls)
     potinit      :      0.05s CPU      0.05s WALL (       1 calls)

     Called by electrons:
     c_bands      :     57.54s CPU     59.01s WALL (      42 calls)
     sum_band     :      7.94s CPU      8.10s WALL (      42 calls)
     v_of_rho     :      0.22s CPU      0.23s WALL (      43 calls)
     mix_rho      :      0.02s CPU      0.03s WALL (      42 calls)

     Called by c_bands:
     init_us_2    :      0.83s CPU      0.88s WALL (    3564 calls)
     cegterg      :     53.73s CPU     55.08s WALL (    1512 calls)

     Called by sum_band:

     Called by *egterg:
     h_psi        :     39.29s CPU     40.11s WALL (    5008 calls)
     g_psi        :      0.30s CPU      0.30s WALL (    3460 calls)
     cdiaghg      :      7.61s CPU      7.61s WALL (    4540 calls)

     Called by h_psi:
     h_psi:pot    :     39.13s CPU     39.90s WALL (    5008 calls)
     h_psi:calbec :      2.21s CPU      2.20s WALL (    5008 calls)
     vloc_psi     :     35.10s CPU     35.85s WALL (    5008 calls)
     add_vuspsi   :      1.82s CPU      1.83s WALL (    5008 calls)

     General routines
     calbec       :      2.93s CPU      2.93s WALL (    6268 calls)
     fft          :      0.17s CPU      0.17s WALL (     659 calls)
     fftw         :     39.53s CPU     39.08s WALL (  305734 calls)
     davcio       :      0.00s CPU      0.00s WALL (      36 calls)
 
     Parallel routines
     fft_scatter  :     10.48s CPU     10.28s WALL (  306393 calls)
 
     PWSCF        :  1m11.91s CPU     1m13.82s WALL

 
   This run was terminated on:  16:19:30  22Apr2018            

=------------------------------------------------------------------------------=
   JOB DONE.
=------------------------------------------------------------------------------=
