
     Program PWSCF v.6.1 (svn rev. 13369) starts on 22Apr2018 at 16:17:12 

     This program is part of the open-source Quantum ESPRESSO suite
     for quantum simulation of materials; please cite
         "P. Giannozzi et al., J. Phys.:Condens. Matter 21 395502 (2009);
          URL http://www.quantum-espresso.org", 
     in publications or presentations arising from this work. More details at
     http://www.quantum-espresso.org/quote

     Parallel version (MPI), running on     8 processors
     R & G space division:  proc/nbgrp/npool/nimage =       8
     Waiting for input...
     Reading input from standard input
Warning: card       &CELL ignored
Warning: card       CELL_DYNAMICS = 'BFGS' ignored
Warning: card       PRESS = 0.0D0 ignored
Warning: card       PRESS_CONV_THR = 0.01D0 ignored
Warning: card       / ignored

     Current dimensions of program PWSCF are:
     Max number of different atomic species (ntypx) = 10
     Max number of k-points (npk) =  40000
     Max angular momentum in pseudopotentials (lmaxx) =  3

     Subspace diagonalization in iterative solution of the eigenvalue problem:
     a serial algorithm will be used

 
     Parallelization info
     --------------------
     sticks:   dense  smooth     PW     G-vecs:    dense   smooth      PW
     Min         180     180     52                 5154     5154     816
     Max         181     181     53                 5157     5157     819
     Sum        1445    1445    421                41239    41239    6547
 


     bravais-lattice index     =            0
     lattice parameter (alat)  =       8.0448  a.u.
     unit-cell volume          =     520.6402 (a.u.)^3
     number of atoms/cell      =            8
     number of atomic types    =            2
     number of electrons       =        64.00
     number of Kohn-Sham states=           32
     kinetic-energy cutoff     =      70.0000  Ry
     charge density cutoff     =     280.0000  Ry
     convergence threshold     =      1.0E-08
     mixing beta               =       0.7000
     number of iterations used =            8  plain     mixing
     Exchange-correlation      = PBE ( 1  4  3  4 0 0)
     nstep                     =           50


     celldm(1)=   8.044750  celldm(2)=   0.000000  celldm(3)=   0.000000
     celldm(4)=   0.000000  celldm(5)=   0.000000  celldm(6)=   0.000000

     crystal axes: (cart. coord. in units of alat)
               a(1) = (   1.005714   0.000000   0.000000 )  
               a(2) = (   0.000000   0.994286   0.000000 )  
               a(3) = (   0.000000   0.000000   1.000033 )  

     reciprocal axes: (cart. coord. in units 2 pi/alat)
               b(1) = (  0.994318  0.000000  0.000000 )  
               b(2) = (  0.000000  1.005747  0.000000 )  
               b(3) = (  0.000000  0.000000  0.999967 )  


     PseudoPot. # 1 for Mg read from file:
     ../pseudo/Mg.pbe.UPF
     MD5 check sum: 4c04d8c6e0476e83eaecaf72fa8acc4d
     Pseudo is Norm-conserving, Zval = 10.0
     Generated using ONCVPSP code by D. R. Hamann
     Using radial grid of 1510 points,  4 beta functions with: 
                l(1) =   0
                l(2) =   0
                l(3) =   1
                l(4) =   1

     PseudoPot. # 2 for O  read from file:
     ../pseudo/O.pbe.UPF
     MD5 check sum: 3e3f909f7470e8921608ab6b1f57bbae
     Pseudo is Norm-conserving + core correction, Zval =  6.0
     Generated using ONCVPSP code by D. R. Hamann
     Using radial grid of  936 points,  5 beta functions with: 
                l(1) =   0
                l(2) =   0
                l(3) =   1
                l(4) =   1
                l(5) =   2

     atomic species   valence    mass     pseudopotential
        Mg            10.00    24.30500     Mg( 1.00)
        O              6.00    15.99940     O ( 1.00)

     No symmetry found



   Cartesian axes

     site n.     atom                  positions (alat units)
         1           Mg  tau(   1) = (   0.0000000   0.0000000   0.0000000  )
         2           Mg  tau(   2) = (   0.0000000   0.5000000   0.5000000  )
         3           Mg  tau(   3) = (   0.5000000   0.0000000   0.5000000  )
         4           Mg  tau(   4) = (   0.5000000   0.5000000   0.0000000  )
         5           O   tau(   5) = (   0.5000000   0.0000000   0.0000000  )
         6           O   tau(   6) = (   0.0000000   0.5000000   0.0000000  )
         7           O   tau(   7) = (   0.0000000   0.0000000   0.5000000  )
         8           O   tau(   8) = (   0.5000000   0.5000000   0.5000000  )

     number of k points=    36
                       cart. coord. in units 2pi/alat
        k(    1) = (   0.0000000   0.0000000   0.0000000), wk =   0.0312500
        k(    2) = (   0.0000000   0.0000000   0.2499918), wk =   0.0625000
        k(    3) = (   0.0000000   0.0000000  -0.4999837), wk =   0.0312500
        k(    4) = (   0.0000000   0.2514367   0.0000000), wk =   0.0625000
        k(    5) = (   0.0000000   0.2514367   0.2499918), wk =   0.0625000
        k(    6) = (   0.0000000   0.2514367  -0.4999837), wk =   0.0625000
        k(    7) = (   0.0000000  -0.5028734   0.0000000), wk =   0.0312500
        k(    8) = (   0.0000000  -0.5028734   0.2499918), wk =   0.0625000
        k(    9) = (   0.0000000  -0.5028734  -0.4999837), wk =   0.0312500
        k(   10) = (   0.2485796   0.0000000   0.0000000), wk =   0.0625000
        k(   11) = (   0.2485796   0.0000000   0.2499918), wk =   0.0625000
        k(   12) = (   0.2485796   0.0000000  -0.4999837), wk =   0.0625000
        k(   13) = (   0.2485796   0.2514367   0.0000000), wk =   0.0625000
        k(   14) = (   0.2485796   0.2514367   0.2499918), wk =   0.0625000
        k(   15) = (   0.2485796   0.2514367  -0.4999837), wk =   0.0625000
        k(   16) = (   0.2485796  -0.5028734   0.0000000), wk =   0.0625000
        k(   17) = (   0.2485796  -0.5028734   0.2499918), wk =   0.0625000
        k(   18) = (   0.2485796  -0.5028734  -0.4999837), wk =   0.0625000
        k(   19) = (  -0.4971592   0.0000000   0.0000000), wk =   0.0312500
        k(   20) = (  -0.4971592   0.0000000   0.2499918), wk =   0.0625000
        k(   21) = (  -0.4971592   0.0000000  -0.4999837), wk =   0.0312500
        k(   22) = (  -0.4971592   0.2514367   0.0000000), wk =   0.0625000
        k(   23) = (  -0.4971592   0.2514367   0.2499918), wk =   0.0625000
        k(   24) = (  -0.4971592   0.2514367  -0.4999837), wk =   0.0625000
        k(   25) = (  -0.4971592  -0.5028734   0.0000000), wk =   0.0312500
        k(   26) = (  -0.4971592  -0.5028734   0.2499918), wk =   0.0625000
        k(   27) = (  -0.4971592  -0.5028734  -0.4999837), wk =   0.0312500
        k(   28) = (   0.0000000  -0.2514367   0.2499918), wk =   0.0625000
        k(   29) = (  -0.2485796   0.0000000   0.2499918), wk =   0.0625000
        k(   30) = (  -0.2485796   0.2514367   0.0000000), wk =   0.0625000
        k(   31) = (  -0.2485796  -0.2514367   0.2499918), wk =   0.0625000
        k(   32) = (  -0.2485796   0.2514367  -0.2499918), wk =   0.0625000
        k(   33) = (   0.2485796  -0.2514367  -0.2499918), wk =   0.0625000
        k(   34) = (  -0.2485796   0.2514367   0.4999837), wk =   0.0625000
        k(   35) = (  -0.2485796   0.5028734   0.2499918), wk =   0.0625000
        k(   36) = (   0.4971592  -0.2514367   0.2499918), wk =   0.0625000

     Dense  grid:    41239 G-vectors     FFT dimensions: (  45,  45,  45)

     Estimated max dynamical RAM per process >      17.22MB

     Estimated total allocated dynamical RAM >     137.73MB

     Check: negative/imaginary core charge=   -0.000007    0.000000

     Initial potential from superposition of free atoms

     starting charge   63.99678, renormalised to   64.00000
     Starting wfc are   36 randomized atomic wfcs

     total cpu time spent up to now is        0.8 secs

     per-process dynamical memory:    51.3 Mb

     Self-consistent Calculation

     iteration #  1     ecut=    70.00 Ry     beta=0.70
     Davidson diagonalization with overlap
     ethr =  1.00E-02,  avg # of iterations =  2.0

     total cpu time spent up to now is        2.3 secs

     total energy              =    -607.71935677 Ry
     Harris-Foulkes estimate   =    -608.84369088 Ry
     estimated scf accuracy    <       1.56230913 Ry

     iteration #  2     ecut=    70.00 Ry     beta=0.70
     Davidson diagonalization with overlap
     ethr =  2.44E-03,  avg # of iterations =  2.9

     total cpu time spent up to now is        3.9 secs

     total energy              =    -608.10525829 Ry
     Harris-Foulkes estimate   =    -608.80308143 Ry
     estimated scf accuracy    <       1.44864739 Ry

     iteration #  3     ecut=    70.00 Ry     beta=0.70
     Davidson diagonalization with overlap
     ethr =  2.26E-03,  avg # of iterations =  2.0

     total cpu time spent up to now is        5.4 secs

     total energy              =    -608.39083110 Ry
     Harris-Foulkes estimate   =    -608.39149051 Ry
     estimated scf accuracy    <       0.00675629 Ry

     iteration #  4     ecut=    70.00 Ry     beta=0.70
     Davidson diagonalization with overlap
     ethr =  1.06E-05,  avg # of iterations =  2.0

     total cpu time spent up to now is        6.9 secs

     total energy              =    -608.39230707 Ry
     Harris-Foulkes estimate   =    -608.39235161 Ry
     estimated scf accuracy    <       0.00011074 Ry

     iteration #  5     ecut=    70.00 Ry     beta=0.70
     Davidson diagonalization with overlap
     ethr =  1.73E-07,  avg # of iterations =  1.8

     total cpu time spent up to now is        8.2 secs

     total energy              =    -608.39231466 Ry
     Harris-Foulkes estimate   =    -608.39231312 Ry
     estimated scf accuracy    <       0.00001027 Ry

     iteration #  6     ecut=    70.00 Ry     beta=0.70
     Davidson diagonalization with overlap
     ethr =  1.61E-08,  avg # of iterations =  2.0

     total cpu time spent up to now is        9.8 secs

     total energy              =    -608.39231613 Ry
     Harris-Foulkes estimate   =    -608.39231653 Ry
     estimated scf accuracy    <       0.00000086 Ry

     iteration #  7     ecut=    70.00 Ry     beta=0.70
     Davidson diagonalization with overlap
     ethr =  1.34E-09,  avg # of iterations =  2.0

     total cpu time spent up to now is       11.3 secs

     total energy              =    -608.39231617 Ry
     Harris-Foulkes estimate   =    -608.39231623 Ry
     estimated scf accuracy    <       0.00000017 Ry

     iteration #  8     ecut=    70.00 Ry     beta=0.70
     Davidson diagonalization with overlap
     ethr =  2.67E-10,  avg # of iterations =  2.0

     total cpu time spent up to now is       12.6 secs

     total energy              =    -608.39231616 Ry
     Harris-Foulkes estimate   =    -608.39231618 Ry
     estimated scf accuracy    <       0.00000004 Ry

     iteration #  9     ecut=    70.00 Ry     beta=0.70
     Davidson diagonalization with overlap
     ethr =  6.02E-11,  avg # of iterations =  2.0

     total cpu time spent up to now is       14.4 secs

     End of self-consistent calculation

          k = 0.0000 0.0000 0.0000 (  5153 PWs)   bands (ev):

   -64.8335 -64.8241 -64.8239 -64.8232 -31.6329 -31.6301 -31.6271 -31.5960
   -31.5947 -31.5938 -31.5911 -31.5902 -31.5889 -31.5680 -31.5629 -31.5599
    -9.3656  -7.9294  -7.9145  -7.8996   3.7394   3.7571   3.7768   6.3390
     6.3447   6.3743   6.3845   6.4156   6.4202   7.6581   7.6724   7.6843

          k = 0.0000 0.0000 0.2500 (  5157 PWs)   bands (ev):

   -64.8321 -64.8252 -64.8240 -64.8234 -31.6270 -31.6203 -31.6198 -31.6017
   -31.5940 -31.5931 -31.5915 -31.5911 -31.5850 -31.5772 -31.5736 -31.5670
    -9.1572  -8.1294  -7.8967  -7.8755   4.0308   4.0659   4.0944   5.8483
     5.8668   6.1419   6.1974   6.5107   6.5761   6.6588   7.4323   7.4673

          k = 0.0000 0.0000-0.5000 (  5134 PWs)   bands (ev):

   -64.8289 -64.8284 -64.8240 -64.8234 -31.6137 -31.6134 -31.6057 -31.6054
   -31.6008 -31.6008 -31.5905 -31.5905 -31.5823 -31.5821 -31.5768 -31.5766
    -8.6469  -8.6468  -7.8574  -7.8573   4.8322   4.8325   4.8614   4.8617
     5.1226   5.1229   5.9722   5.9725   6.9419   6.9421   6.9947   6.9948

          k = 0.0000 0.2514 0.0000 (  5161 PWs)   bands (ev):

   -64.8321 -64.8251 -64.8241 -64.8235 -31.6268 -31.6232 -31.6172 -31.6003
   -31.5962 -31.5924 -31.5896 -31.5893 -31.5889 -31.5741 -31.5737 -31.5706
    -9.1539  -8.1150  -7.8971  -7.8865   4.0346   4.0512   4.1044   5.8805
     5.8889   6.1342   6.1617   6.5061   6.5393   6.6464   7.4425   7.4595

          k = 0.0000 0.2514 0.2500 (  5157 PWs)   bands (ev):

   -64.8308 -64.8252 -64.8248 -64.8239 -31.6219 -31.6201 -31.6169 -31.6046
   -31.5977 -31.5969 -31.5902 -31.5857 -31.5839 -31.5830 -31.5777 -31.5654
    -8.9641  -8.0644  -8.0537  -7.8982   4.1569   4.1627   4.3154   5.0712
     5.8300   6.0484   6.0764   6.4580   6.4677   6.6027   7.1856   7.5028

          k = 0.0000 0.2514-0.5000 (  5146 PWs)   bands (ev):

   -64.8282 -64.8277 -64.8247 -64.8241 -31.6147 -31.6145 -31.6100 -31.6098
   -31.6079 -31.6078 -31.5873 -31.5870 -31.5814 -31.5813 -31.5715 -31.5713
    -8.5088  -8.5086  -7.9456  -7.9455   4.4100   4.4101   4.7369   4.7371
     5.0863   5.0865   6.5579   6.5581   6.5954   6.5956   7.0838   7.0839

          k = 0.0000-0.5029 0.0000 (  5126 PWs)   bands (ev):

   -64.8288 -64.8282 -64.8241 -64.8235 -31.6139 -31.6124 -31.6095 -31.6078
   -31.5978 -31.5957 -31.5879 -31.5878 -31.5832 -31.5822 -31.5803 -31.5792
    -8.6523  -8.6211  -7.8614  -7.8610   4.8235   4.8374   4.8724   4.8865
     5.1074   5.1276   5.9435   5.9438   6.9293   6.9560   6.9598   6.9858

          k = 0.0000-0.5029 0.2500 (  5150 PWs)   bands (ev):

   -64.8281 -64.8276 -64.8248 -64.8242 -31.6163 -31.6154 -31.6101 -31.6087
   -31.6077 -31.6066 -31.5887 -31.5875 -31.5798 -31.5794 -31.5730 -31.5728
    -8.5157  -8.4882  -7.9517  -7.9466   4.3997   4.4187   4.7216   4.7439
     5.0744   5.1218   6.5322   6.5508   6.5629   6.5966   7.0851   7.0946

          k = 0.0000-0.5029-0.5000 (  5160 PWs)   bands (ev):

   -64.8265 -64.8264 -64.8263 -64.8254 -31.6173 -31.6172 -31.6166 -31.6165
   -31.5999 -31.5996 -31.5986 -31.5983 -31.5722 -31.5720 -31.5715 -31.5714
    -8.2108  -8.2107  -8.1936  -8.1935   4.2670   4.2671   4.2756   4.2757
     5.7481   5.7484   5.7907   5.7909   7.0645   7.0647   7.0784   7.0786

          k = 0.2486 0.0000 0.0000 (  5164 PWs)   bands (ev):

   -64.8321 -64.8254 -64.8239 -64.8233 -31.6243 -31.6232 -31.6203 -31.5982
   -31.5964 -31.5953 -31.5940 -31.5876 -31.5840 -31.5819 -31.5705 -31.5670
    -9.1605  -8.1435  -7.8856  -7.8750   4.0438   4.0623   4.0844   5.8264
     5.8364   6.1783   6.2064   6.5459   6.5782   6.6692   7.4400   7.4579

          k = 0.2486 0.0000 0.2500 (  5153 PWs)   bands (ev):

   -64.8309 -64.8253 -64.8249 -64.8237 -31.6230 -31.6204 -31.6155 -31.6082
   -31.5932 -31.5902 -31.5894 -31.5891 -31.5883 -31.5855 -31.5700 -31.5693
    -8.9699  -8.0754  -8.0650  -7.8839   4.1596   4.1639   4.3411   5.0704
     5.8634   6.0344   6.0608   6.5016   6.5096   6.5654   7.1608   7.5071

          k = 0.2486 0.0000-0.5000 (  5138 PWs)   bands (ev):

   -64.8282 -64.8277 -64.8247 -64.8241 -31.6181 -31.6179 -31.6097 -31.6096
   -31.6013 -31.6010 -31.5841 -31.5840 -31.5806 -31.5804 -31.5774 -31.5772
    -8.5124  -8.5122  -7.9498  -7.9497   4.4261   4.4263   4.7639   4.7642
     5.1065   5.1068   6.5316   6.5318   6.5608   6.5610   7.1037   7.1038

          k = 0.2486 0.2514 0.0000 (  5145 PWs)   bands (ev):

   -64.8309 -64.8253 -64.8248 -64.8238 -31.6231 -31.6183 -31.6172 -31.6066
   -31.5938 -31.5921 -31.5918 -31.5882 -31.5855 -31.5831 -31.5743 -31.5666
    -8.9671  -8.0751  -8.0540  -7.8909   4.1560   4.1663   4.3275   5.0712
     5.8464   6.0280   6.0824   6.4741   6.4929   6.5856   7.1734   7.5047

          k = 0.2486 0.2514 0.2500 (  5150 PWs)   bands (ev):

   -64.8299 -64.8253 -64.8251 -64.8244 -31.6254 -31.6242 -31.6230 -31.6052
   -31.5933 -31.5928 -31.5922 -31.5854 -31.5825 -31.5802 -31.5727 -31.5676
    -8.7972  -8.0389  -8.0315  -8.0239   3.9979   3.9997   4.0026   5.0886
     5.8367   5.8450   5.8539   6.6884   6.7055   6.7214   7.3530   7.3566

          k = 0.2486 0.2514-0.5000 (  5138 PWs)   bands (ev):

   -64.8276 -64.8272 -64.8252 -64.8246 -31.6272 -31.6271 -31.6205 -31.6203
   -31.5925 -31.5922 -31.5799 -31.5795 -31.5790 -31.5790 -31.5740 -31.5738
    -8.4001  -8.3999  -7.9979  -7.9978   3.8211   3.8213   4.1974   4.1977
     5.8295   5.8296   6.7393   6.7396   6.8680   6.8686   7.0159   7.0161

          k = 0.2486-0.5029 0.0000 (  5154 PWs)   bands (ev):

   -64.8281 -64.8276 -64.8248 -64.8242 -31.6182 -31.6173 -31.6089 -31.6080
   -31.6062 -31.6047 -31.5853 -31.5841 -31.5808 -31.5804 -31.5761 -31.5759
    -8.5175  -8.4900  -7.9540  -7.9483   4.4084   4.4274   4.7354   4.7576
     5.0830   5.1305   6.5219   6.5395   6.5428   6.5778   7.0950   7.1041

          k = 0.2486-0.5029 0.2500 (  5140 PWs)   bands (ev):

   -64.8276 -64.8271 -64.8252 -64.8246 -31.6276 -31.6275 -31.6200 -31.6197
   -31.5939 -31.5936 -31.5799 -31.5793 -31.5773 -31.5772 -31.5750 -31.5747
    -8.4062  -8.3828  -7.9999  -7.9996   3.8196   3.8198   4.1772   4.2001
     5.8300   5.8306   6.7349   6.7353   6.8713   6.8813   6.9953   7.0170

          k = 0.2486-0.5029-0.5000 (  5136 PWs)   bands (ev):

   -64.8265 -64.8264 -64.8264 -64.8254 -31.6306 -31.6303 -31.6303 -31.6302
   -31.5850 -31.5847 -31.5844 -31.5842 -31.5721 -31.5719 -31.5716 -31.5715
    -8.1727  -8.1726  -8.1604  -8.1603   3.6270   3.6271   3.6386   3.6387
     6.5045   6.5046   6.5294   6.5295   7.0672   7.0673   7.0770   7.0771

          k =-0.4972 0.0000 0.0000 (  5150 PWs)   bands (ev):

   -64.8290 -64.8284 -64.8239 -64.8233 -31.6102 -31.6086 -31.6073 -31.6057
   -31.6046 -31.6028 -31.5962 -31.5962 -31.5794 -31.5784 -31.5766 -31.5757
    -8.6721  -8.6413  -7.8534  -7.8531   4.8078   4.8226   4.8557   4.8705
     5.1187   5.1362   6.0006   6.0009   6.9504   6.9771   6.9798   7.0060

          k =-0.4972 0.0000 0.2500 (  5148 PWs)   bands (ev):

   -64.8283 -64.8277 -64.8246 -64.8241 -31.6174 -31.6167 -31.6118 -31.6107
   -31.6025 -31.6010 -31.5863 -31.5859 -31.5807 -31.5796 -31.5756 -31.5754
    -8.5324  -8.5052  -7.9490  -7.9434   4.4163   4.4357   4.7580   4.7783
     5.0726   5.1189   6.5388   6.5575   6.5601   6.5921   7.0933   7.1012

          k =-0.4972 0.0000-0.5000 (  5184 PWs)   bands (ev):

   -64.8265 -64.8264 -64.8263 -64.8254 -31.6195 -31.6194 -31.6187 -31.6186
   -31.5926 -31.5923 -31.5914 -31.5911 -31.5779 -31.5777 -31.5772 -31.5771
    -8.2188  -8.2187  -8.2015  -8.2013   4.3105   4.3106   4.3181   4.3183
     5.7452   5.7454   5.7867   5.7869   7.0467   7.0469   7.0613   7.0615

          k =-0.4972 0.2514 0.0000 (  5156 PWs)   bands (ev):

   -64.8283 -64.8277 -64.8246 -64.8241 -31.6164 -31.6157 -31.6111 -31.6100
   -31.6072 -31.6058 -31.5847 -31.5842 -31.5837 -31.5827 -31.5723 -31.5721
    -8.5305  -8.5034  -7.9465  -7.9414   4.4088   4.4281   4.7447   4.7652
     5.0609   5.1072   6.5555   6.5722   6.5741   6.6077   7.0830   7.0913

          k =-0.4972 0.2514 0.2500 (  5138 PWs)   bands (ev):

   -64.8277 -64.8272 -64.8251 -64.8245 -31.6273 -31.6271 -31.6210 -31.6206
   -31.5905 -31.5903 -31.5820 -31.5818 -31.5784 -31.5783 -31.5742 -31.5735
    -8.4168  -8.3937  -7.9961  -7.9958   3.8222   3.8223   4.1957   4.2175
     5.8286   5.8292   6.7439   6.7443   6.8557   6.8642   7.0146   7.0356

          k =-0.4972 0.2514-0.5000 (  5160 PWs)   bands (ev):

   -64.8265 -64.8264 -64.8264 -64.8254 -31.6316 -31.6313 -31.6313 -31.6312
   -31.5805 -31.5802 -31.5801 -31.5798 -31.5766 -31.5764 -31.5762 -31.5762
    -8.1769  -8.1767  -8.1644  -8.1643   3.6415   3.6416   3.6528   3.6529
     6.5187   6.5188   6.5424   6.5426   7.0499   7.0500   7.0602   7.0604

          k =-0.4972-0.5029 0.0000 (  5196 PWs)   bands (ev):

   -64.8266 -64.8264 -64.8263 -64.8254 -31.6188 -31.6182 -31.6179 -31.6175
   -31.5975 -31.5963 -31.5962 -31.5950 -31.5757 -31.5752 -31.5748 -31.5744
    -8.2234  -8.2060  -8.2055  -8.1889   4.2850   4.2926   4.2934   4.3012
     5.7245   5.7661   5.7674   5.8087   7.0480   7.0625   7.0627   7.0765

          k =-0.4972-0.5029 0.2500 (  5144 PWs)   bands (ev):

   -64.8265 -64.8264 -64.8263 -64.8254 -31.6313 -31.6310 -31.6309 -31.6309
   -31.5832 -31.5827 -31.5826 -31.5822 -31.5738 -31.5736 -31.5733 -31.5731
    -8.1810  -8.1685  -8.1681  -8.1564   3.6286   3.6396   3.6403   3.6515
     6.4993   6.5235   6.5242   6.5479   7.0534   7.0638   7.0638   7.0735

          k =-0.4972-0.5029-0.5000 (  5136 PWs)   bands (ev):

   -64.8264 -64.8264 -64.8264 -64.8254 -31.6390 -31.6387 -31.6387 -31.6386
   -31.5771 -31.5768 -31.5768 -31.5767 -31.5713 -31.5711 -31.5710 -31.5709
    -8.1307  -8.1306  -8.1302  -8.1302   3.2172   3.2172   3.2174   3.2174
     7.0546   7.0547   7.0550   7.0551   7.0739   7.0740   7.0743   7.0745

          k = 0.0000-0.2514 0.2500 (  5157 PWs)   bands (ev):

   -64.8308 -64.8252 -64.8248 -64.8239 -31.6219 -31.6201 -31.6169 -31.6046
   -31.5977 -31.5969 -31.5902 -31.5857 -31.5839 -31.5830 -31.5777 -31.5654
    -8.9641  -8.0644  -8.0537  -7.8982   4.1569   4.1627   4.3154   5.0712
     5.8300   6.0484   6.0764   6.4580   6.4677   6.6027   7.1856   7.5028

          k =-0.2486 0.0000 0.2500 (  5153 PWs)   bands (ev):

   -64.8309 -64.8253 -64.8249 -64.8237 -31.6230 -31.6204 -31.6155 -31.6082
   -31.5932 -31.5902 -31.5894 -31.5891 -31.5883 -31.5855 -31.5700 -31.5693
    -8.9699  -8.0754  -8.0650  -7.8839   4.1596   4.1639   4.3411   5.0704
     5.8634   6.0344   6.0608   6.5016   6.5096   6.5654   7.1608   7.5071

          k =-0.2486 0.2514 0.0000 (  5145 PWs)   bands (ev):

   -64.8309 -64.8253 -64.8248 -64.8238 -31.6231 -31.6183 -31.6172 -31.6066
   -31.5938 -31.5921 -31.5918 -31.5882 -31.5856 -31.5831 -31.5743 -31.5666
    -8.9671  -8.0751  -8.0540  -7.8909   4.1560   4.1663   4.3275   5.0712
     5.8464   6.0280   6.0824   6.4741   6.4929   6.5856   7.1734   7.5047

          k =-0.2486-0.2514 0.2500 (  5150 PWs)   bands (ev):

   -64.8299 -64.8253 -64.8251 -64.8244 -31.6254 -31.6242 -31.6230 -31.6052
   -31.5933 -31.5928 -31.5922 -31.5854 -31.5825 -31.5802 -31.5727 -31.5676
    -8.7972  -8.0389  -8.0315  -8.0239   3.9979   3.9997   4.0026   5.0886
     5.8367   5.8450   5.8539   6.6884   6.7055   6.7214   7.3530   7.3566

          k =-0.2486 0.2514-0.2500 (  5150 PWs)   bands (ev):

   -64.8299 -64.8253 -64.8251 -64.8244 -31.6255 -31.6242 -31.6230 -31.6052
   -31.5933 -31.5929 -31.5922 -31.5854 -31.5825 -31.5802 -31.5727 -31.5676
    -8.7972  -8.0389  -8.0315  -8.0239   3.9979   3.9997   4.0026   5.0886
     5.8367   5.8450   5.8539   6.6884   6.7055   6.7214   7.3530   7.3566

          k = 0.2486-0.2514-0.2500 (  5150 PWs)   bands (ev):

   -64.8299 -64.8253 -64.8251 -64.8244 -31.6255 -31.6242 -31.6230 -31.6052
   -31.5933 -31.5929 -31.5922 -31.5854 -31.5825 -31.5802 -31.5727 -31.5676
    -8.7972  -8.0389  -8.0315  -8.0239   3.9979   3.9997   4.0026   5.0886
     5.8367   5.8450   5.8539   6.6884   6.7055   6.7214   7.3530   7.3566

          k =-0.2486 0.2514 0.5000 (  5138 PWs)   bands (ev):

   -64.8276 -64.8272 -64.8252 -64.8246 -31.6273 -31.6270 -31.6204 -31.6204
   -31.5925 -31.5922 -31.5797 -31.5797 -31.5791 -31.5789 -31.5740 -31.5738
    -8.4001  -8.3999  -7.9979  -7.9978   3.8210   3.8213   4.1975   4.1976
     5.8295   5.8296   6.7394   6.7395   6.8682   6.8685   7.0159   7.0161

          k =-0.2486 0.5029 0.2500 (  5140 PWs)   bands (ev):

   -64.8276 -64.8271 -64.8252 -64.8246 -31.6276 -31.6275 -31.6200 -31.6197
   -31.5939 -31.5936 -31.5799 -31.5793 -31.5773 -31.5772 -31.5750 -31.5747
    -8.4062  -8.3828  -7.9999  -7.9996   3.8196   3.8198   4.1772   4.2001
     5.8300   5.8306   6.7349   6.7353   6.8713   6.8813   6.9953   7.0170

          k = 0.4972-0.2514 0.2500 (  5138 PWs)   bands (ev):

   -64.8277 -64.8272 -64.8251 -64.8245 -31.6273 -31.6271 -31.6210 -31.6206
   -31.5905 -31.5903 -31.5820 -31.5818 -31.5784 -31.5783 -31.5742 -31.5735
    -8.4168  -8.3937  -7.9961  -7.9958   3.8222   3.8223   4.1957   4.2175
     5.8286   5.8292   6.7439   6.7443   6.8557   6.8642   7.0146   7.0356

     highest occupied level (ev):     7.6843

!    total energy              =    -608.39231617 Ry
     Harris-Foulkes estimate   =    -608.39231617 Ry
     estimated scf accuracy    <          3.5E-09 Ry

     The total energy is the sum of the following terms:

     one-electron contribution =    -303.63534382 Ry
     hartree contribution      =     168.10777666 Ry
     xc contribution           =     -97.84755003 Ry
     ewald contribution        =    -375.01719897 Ry

     convergence has been achieved in   9 iterations

     Forces acting on atoms (cartesian axes, Ry/au):

     atom    1 type  1   force =    -0.00291655    0.00334443   -0.00001763
     atom    2 type  1   force =    -0.00291800   -0.00329931    0.00001702
     atom    3 type  1   force =     0.00286853    0.00334632    0.00001717
     atom    4 type  1   force =     0.00283097   -0.00326682   -0.00001778
     atom    5 type  2   force =     0.00341980    0.00377115   -0.00002003
     atom    6 type  2   force =    -0.00335958   -0.00382617   -0.00001999
     atom    7 type  2   force =    -0.00335762    0.00376951    0.00002053
     atom    8 type  2   force =     0.00343245   -0.00383911    0.00002070

     Total force =     0.013456     Total SCF correction =     0.000060


     Computing stress (Cartesian axis) and pressure

          total   stress  (Ry/bohr**3)                   (kbar)     P=  -67.62
  -0.00052604   0.00000001  -0.00000000        -77.38      0.00     -0.00
   0.00000001  -0.00038917  -0.00000000          0.00    -57.25     -0.00
  -0.00000000  -0.00000000  -0.00046389         -0.00     -0.00    -68.24


     BFGS Geometry Optimization

     number of scf cycles    =   1
     number of bfgs steps    =   0

     energy   new            =    -608.3923161684 Ry

     new trust radius        =       0.0051498462 bohr
     new conv_thr            =       0.0000000100 Ry


ATOMIC_POSITIONS (alat)
Mg      -0.000362540   0.000415728  -0.000002191
Mg      -0.000362721   0.499589881   0.500002116
Mg       0.500356572   0.000415963   0.500002135
Mg       0.500351903   0.499593920  -0.000002210
O        0.500425097   0.000468771  -0.000002490
O       -0.000417612   0.499524389  -0.000002485
O       -0.000417368   0.000468568   0.500002552
O        0.500426669   0.499522780   0.500002574



     Writing output data file diamond.1.005714.70.4.save
     NEW-OLD atomic charge density approx. for the potential

     Check: negative/imaginary core charge=   -0.000007    0.000000

     total cpu time spent up to now is       15.2 secs

     per-process dynamical memory:    52.1 Mb

     Self-consistent Calculation

     iteration #  1     ecut=    70.00 Ry     beta=0.70
     Davidson diagonalization with overlap
     ethr =  1.00E-06,  avg # of iterations =  3.0

     Threshold (ethr) on eigenvalues was too large:
     Diagonalizing with lowered threshold

     Davidson diagonalization with overlap
     ethr =  5.27E-08,  avg # of iterations =  1.1

     total cpu time spent up to now is       18.7 secs

     total energy              =    -608.39245805 Ry
     Harris-Foulkes estimate   =    -608.39248273 Ry
     estimated scf accuracy    <       0.00003361 Ry

     iteration #  2     ecut=    70.00 Ry     beta=0.70
     Davidson diagonalization with overlap
     ethr =  5.25E-08,  avg # of iterations =  2.3

     total cpu time spent up to now is       20.2 secs

     total energy              =    -608.39246827 Ry
     Harris-Foulkes estimate   =    -608.39247177 Ry
     estimated scf accuracy    <       0.00000583 Ry

     iteration #  3     ecut=    70.00 Ry     beta=0.70
     Davidson diagonalization with overlap
     ethr =  9.11E-09,  avg # of iterations =  2.0

     total cpu time spent up to now is       21.6 secs

     total energy              =    -608.39246952 Ry
     Harris-Foulkes estimate   =    -608.39246951 Ry
     estimated scf accuracy    <       0.00000004 Ry

     iteration #  4     ecut=    70.00 Ry     beta=0.70
     Davidson diagonalization with overlap
     ethr =  5.97E-11,  avg # of iterations =  2.8

     total cpu time spent up to now is       23.4 secs

     End of self-consistent calculation

          k = 0.0000 0.0000 0.0000 (  5153 PWs)   bands (ev):

   -64.8339 -64.8246 -64.8244 -64.8237 -31.6333 -31.6304 -31.6275 -31.5964
   -31.5951 -31.5942 -31.5915 -31.5906 -31.5893 -31.5684 -31.5633 -31.5602
    -9.3654  -7.9294  -7.9144  -7.8996   3.7394   3.7573   3.7768   6.3391
     6.3446   6.3745   6.3846   6.4156   6.4202   7.6583   7.6724   7.6845

          k = 0.0000 0.0000 0.2500 (  5157 PWs)   bands (ev):

   -64.8325 -64.8257 -64.8245 -64.8238 -31.6273 -31.6206 -31.6201 -31.6021
   -31.5944 -31.5935 -31.5919 -31.5915 -31.5854 -31.5775 -31.5740 -31.5674
    -9.1569  -8.1293  -7.8967  -7.8754   4.0309   4.0659   4.0947   5.8484
     5.8669   6.1423   6.1978   6.5104   6.5759   6.6588   7.4323   7.4674

          k = 0.0000 0.0000-0.5000 (  5134 PWs)   bands (ev):

   -64.8293 -64.8288 -64.8245 -64.8239 -31.6140 -31.6138 -31.6060 -31.6057
   -31.6013 -31.6013 -31.5908 -31.5908 -31.5827 -31.5825 -31.5772 -31.5770
    -8.6467  -8.6466  -7.8573  -7.8573   4.8324   4.8326   4.8616   4.8618
     5.1225   5.1228   5.9726   5.9729   6.9417   6.9419   6.9945   6.9946

          k = 0.0000 0.2514 0.0000 (  5161 PWs)   bands (ev):

   -64.8325 -64.8255 -64.8246 -64.8239 -31.6271 -31.6236 -31.6176 -31.6007
   -31.5966 -31.5927 -31.5901 -31.5897 -31.5892 -31.5745 -31.5741 -31.5710
    -9.1537  -8.1150  -7.8970  -7.8863   4.0347   4.0515   4.1044   5.8803
     5.8889   6.1343   6.1618   6.5062   6.5393   6.6465   7.4424   7.4595

          k = 0.0000 0.2514 0.2500 (  5157 PWs)   bands (ev):

   -64.8313 -64.8256 -64.8253 -64.8243 -31.6222 -31.6204 -31.6173 -31.6050
   -31.5980 -31.5973 -31.5905 -31.5861 -31.5843 -31.5834 -31.5781 -31.5658
    -8.9639  -8.0642  -8.0536  -7.8981   4.1571   4.1628   4.3156   5.0713
     5.8301   6.0486   6.0764   6.4581   6.4676   6.6025   7.1855   7.5028

          k = 0.0000 0.2514-0.5000 (  5146 PWs)   bands (ev):

   -64.8286 -64.8281 -64.8252 -64.8246 -31.6150 -31.6148 -31.6102 -31.6100
   -31.6085 -31.6084 -31.5877 -31.5874 -31.5818 -31.5817 -31.5719 -31.5717
    -8.5085  -8.5084  -7.9455  -7.9455   4.4101   4.4102   4.7371   4.7373
     5.0863   5.0865   6.5590   6.5592   6.5944   6.5945   7.0838   7.0838

          k = 0.0000-0.5029 0.0000 (  5126 PWs)   bands (ev):

   -64.8292 -64.8287 -64.8245 -64.8240 -31.6141 -31.6130 -31.6097 -31.6084
   -31.5979 -31.5964 -31.5882 -31.5881 -31.5835 -31.5828 -31.5805 -31.5797
    -8.6471  -8.6260  -7.8613  -7.8610   4.8313   4.8454   4.8647   4.8788
     5.1106   5.1243   5.9437   5.9440   6.9343   6.9549   6.9607   6.9809

          k = 0.0000-0.5029 0.2500 (  5150 PWs)   bands (ev):

   -64.8285 -64.8281 -64.8252 -64.8246 -31.6165 -31.6158 -31.6100 -31.6090
   -31.6081 -31.6073 -31.5889 -31.5880 -31.5801 -31.5798 -31.5733 -31.5732
    -8.5111  -8.4925  -7.9508  -7.9473   4.4029   4.4159   4.7254   4.7404
     5.0818   5.1141   6.5364   6.5487   6.5671   6.5903   7.0867   7.0932

          k = 0.0000-0.5029-0.5000 (  5160 PWs)   bands (ev):

   -64.8269 -64.8268 -64.8268 -64.8259 -31.6176 -31.6174 -31.6170 -31.6170
   -31.6001 -31.5998 -31.5992 -31.5989 -31.5725 -31.5723 -31.5720 -31.5719
    -8.2079  -8.2078  -8.1962  -8.1961   4.2685   4.2687   4.2742   4.2743
     5.7549   5.7551   5.7838   5.7840   7.0669   7.0671   7.0762   7.0764

          k = 0.2486 0.0000 0.0000 (  5164 PWs)   bands (ev):

   -64.8326 -64.8259 -64.8243 -64.8238 -31.6247 -31.6235 -31.6207 -31.5986
   -31.5967 -31.5957 -31.5943 -31.5880 -31.5843 -31.5823 -31.5709 -31.5674
    -9.1602  -8.1435  -7.8855  -7.8749   4.0441   4.0624   4.0845   5.8264
     5.8362   6.1785   6.2066   6.5459   6.5783   6.6693   7.4400   7.4578

          k = 0.2486 0.0000 0.2500 (  5153 PWs)   bands (ev):

   -64.8313 -64.8257 -64.8253 -64.8241 -31.6233 -31.6207 -31.6158 -31.6086
   -31.5936 -31.5905 -31.5897 -31.5895 -31.5888 -31.5859 -31.5703 -31.5696
    -8.9697  -8.0754  -8.0649  -7.8838   4.1596   4.1641   4.3412   5.0706
     5.8635   6.0343   6.0610   6.5016   6.5102   6.5648   7.1607   7.5071

          k = 0.2486 0.0000-0.5000 (  5138 PWs)   bands (ev):

   -64.8286 -64.8281 -64.8252 -64.8246 -31.6185 -31.6183 -31.6100 -31.6099
   -31.6017 -31.6014 -31.5844 -31.5844 -31.5810 -31.5808 -31.5778 -31.5776
    -8.5122  -8.5120  -7.9497  -7.9497   4.4263   4.4264   4.7642   4.7644
     5.1065   5.1067   6.5332   6.5335   6.5592   6.5594   7.1036   7.1037

          k = 0.2486 0.2514 0.0000 (  5145 PWs)   bands (ev):

   -64.8313 -64.8257 -64.8252 -64.8242 -31.6235 -31.6187 -31.6175 -31.6070
   -31.5942 -31.5925 -31.5921 -31.5886 -31.5859 -31.5835 -31.5747 -31.5670
    -8.9668  -8.0750  -8.0539  -7.8908   4.1561   4.1663   4.3279   5.0711
     5.8466   6.0281   6.0824   6.4745   6.4932   6.5848   7.1733   7.5048

          k = 0.2486 0.2514 0.2500 (  5150 PWs)   bands (ev):

   -64.8303 -64.8257 -64.8256 -64.8249 -31.6258 -31.6246 -31.6233 -31.6055
   -31.5937 -31.5932 -31.5926 -31.5857 -31.5828 -31.5806 -31.5731 -31.5680
    -8.7969  -8.0388  -8.0314  -8.0238   3.9979   3.9999   4.0026   5.0887
     5.8367   5.8451   5.8539   6.6885   6.7054   6.7215   7.3530   7.3566

          k = 0.2486 0.2514-0.5000 (  5138 PWs)   bands (ev):

   -64.8281 -64.8277 -64.8257 -64.8250 -31.6276 -31.6274 -31.6208 -31.6207
   -31.5929 -31.5926 -31.5802 -31.5799 -31.5794 -31.5794 -31.5744 -31.5742
    -8.3998  -8.3997  -7.9978  -7.9978   3.8213   3.8213   4.1975   4.1977
     5.8296   5.8296   6.7397   6.7399   6.8681   6.8684   7.0157   7.0158

          k = 0.2486-0.5029 0.0000 (  5154 PWs)   bands (ev):

   -64.8286 -64.8281 -64.8252 -64.8246 -31.6185 -31.6178 -31.6091 -31.6085
   -31.6064 -31.6053 -31.5855 -31.5846 -31.5811 -31.5808 -31.5765 -31.5763
    -8.5129  -8.4943  -7.9530  -7.9491   4.4114   4.4244   4.7391   4.7540
     5.0908   5.1231   6.5248   6.5368   6.5484   6.5721   7.0964   7.1026

          k = 0.2486-0.5029 0.2500 (  5140 PWs)   bands (ev):

   -64.8281 -64.8276 -64.8257 -64.8251 -31.6280 -31.6278 -31.6203 -31.6201
   -31.5942 -31.5940 -31.5802 -31.5797 -31.5777 -31.5776 -31.5754 -31.5751
    -8.4023  -8.3864  -7.9997  -7.9995   3.8198   3.8199   4.1810   4.1964
     5.8302   5.8307   6.7350   6.7353   6.8729   6.8798   6.9988   7.0135

          k = 0.2486-0.5029-0.5000 (  5136 PWs)   bands (ev):

   -64.8269 -64.8268 -64.8268 -64.8258 -31.6309 -31.6307 -31.6306 -31.6306
   -31.5853 -31.5851 -31.5848 -31.5847 -31.5724 -31.5723 -31.5720 -31.5719
    -8.1706  -8.1705  -8.1623  -8.1622   3.6290   3.6291   3.6367   3.6368
     6.5085   6.5086   6.5254   6.5255   7.0689   7.0690   7.0755   7.0756

          k =-0.4972 0.0000 0.0000 (  5150 PWs)   bands (ev):

   -64.8294 -64.8289 -64.8243 -64.8238 -31.6104 -31.6092 -31.6073 -31.6061
   -31.6049 -31.6035 -31.5966 -31.5966 -31.5796 -31.5789 -31.5769 -31.5762
    -8.6675  -8.6455  -7.8533  -7.8530   4.8148   4.8294   4.8491   4.8637
     5.1212   5.1336   6.0008   6.0011   6.9545   6.9755   6.9813   7.0018

          k =-0.4972 0.0000 0.2500 (  5148 PWs)   bands (ev):

   -64.8287 -64.8282 -64.8251 -64.8245 -31.6177 -31.6171 -31.6120 -31.6112
   -31.6027 -31.6016 -31.5866 -31.5863 -31.5809 -31.5801 -31.5760 -31.5758
    -8.5283  -8.5089  -7.9481  -7.9440   4.4192   4.4332   4.7612   4.7755
     5.0789   5.1121   6.5435   6.5563   6.5626   6.5862   7.0944   7.1002

          k =-0.4972 0.0000-0.5000 (  5184 PWs)   bands (ev):

   -64.8270 -64.8269 -64.8268 -64.8259 -31.6198 -31.6196 -31.6191 -31.6190
   -31.5928 -31.5926 -31.5919 -31.5916 -31.5782 -31.5780 -31.5776 -31.5776
    -8.2162  -8.2161  -8.2038  -8.2037   4.3118   4.3120   4.3171   4.3172
     5.7510   5.7512   5.7807   5.7809   7.0489   7.0491   7.0593   7.0595

          k =-0.4972 0.2514 0.0000 (  5156 PWs)   bands (ev):

   -64.8287 -64.8282 -64.8251 -64.8245 -31.6166 -31.6161 -31.6114 -31.6105
   -31.6074 -31.6064 -31.5850 -31.5847 -31.5840 -31.5832 -31.5727 -31.5725
    -8.5265  -8.5071  -7.9457  -7.9421   4.4115   4.4255   4.7478   4.7622
     5.0677   5.1009   6.5580   6.5699   6.5788   6.6028   7.0841   7.0901

          k =-0.4972 0.2514 0.2500 (  5138 PWs)   bands (ev):

   -64.8281 -64.8277 -64.8256 -64.8250 -31.6276 -31.6275 -31.6213 -31.6210
   -31.5909 -31.5907 -31.5823 -31.5822 -31.5788 -31.5787 -31.5745 -31.5740
    -8.4133  -8.3968  -7.9959  -7.9957   3.8223   3.8224   4.1989   4.2143
     5.8288   5.8293   6.7441   6.7444   6.8569   6.8630   7.0175   7.0325

          k =-0.4972 0.2514-0.5000 (  5160 PWs)   bands (ev):

   -64.8269 -64.8268 -64.8268 -64.8258 -31.6319 -31.6317 -31.6316 -31.6315
   -31.5808 -31.5806 -31.5805 -31.5803 -31.5770 -31.5768 -31.5766 -31.5766
    -8.1749  -8.1748  -8.1660  -8.1660   3.6432   3.6433   3.6511   3.6512
     6.5221   6.5222   6.5391   6.5392   7.0515   7.0517   7.0588   7.0590

          k =-0.4972-0.5029 0.0000 (  5196 PWs)   bands (ev):

   -64.8270 -64.8269 -64.8268 -64.8258 -31.6190 -31.6185 -31.6183 -31.6180
   -31.5976 -31.5967 -31.5966 -31.5957 -31.5759 -31.5756 -31.5753 -31.5750
    -8.2179  -8.2059  -8.2056  -8.1939   4.2876   4.2929   4.2932   4.2986
     5.7374   5.7665   5.7672   5.7961   7.0526   7.0624   7.0628   7.0723

          k =-0.4972-0.5029 0.2500 (  5144 PWs)   bands (ev):

   -64.8269 -64.8269 -64.8268 -64.8258 -31.6316 -31.6314 -31.6313 -31.6313
   -31.5834 -31.5831 -31.5830 -31.5827 -31.5741 -31.5739 -31.5737 -31.5735
    -8.1770  -8.1684  -8.1682  -8.1599   3.6322   3.6400   3.6400   3.6479
     6.5068   6.5237   6.5241   6.5407   7.0567   7.0636   7.0640   7.0705

          k =-0.4972-0.5029-0.5000 (  5136 PWs)   bands (ev):

   -64.8269 -64.8269 -64.8268 -64.8258 -31.6393 -31.6391 -31.6390 -31.6390
   -31.5775 -31.5772 -31.5772 -31.5771 -31.5717 -31.5714 -31.5714 -31.5713
    -8.1304  -8.1303  -8.1302  -8.1301   3.2172   3.2173   3.2173   3.2174
     7.0548   7.0548   7.0550   7.0551   7.0741   7.0742   7.0744   7.0745

          k = 0.0000-0.2514 0.2500 (  5157 PWs)   bands (ev):

   -64.8313 -64.8256 -64.8253 -64.8243 -31.6222 -31.6204 -31.6173 -31.6050
   -31.5980 -31.5973 -31.5905 -31.5861 -31.5843 -31.5834 -31.5781 -31.5658
    -8.9639  -8.0642  -8.0536  -7.8981   4.1571   4.1628   4.3156   5.0713
     5.8301   6.0486   6.0764   6.4581   6.4676   6.6025   7.1855   7.5028

          k =-0.2486 0.0000 0.2500 (  5153 PWs)   bands (ev):

   -64.8313 -64.8257 -64.8253 -64.8241 -31.6233 -31.6207 -31.6158 -31.6086
   -31.5936 -31.5905 -31.5897 -31.5895 -31.5888 -31.5859 -31.5703 -31.5696
    -8.9697  -8.0754  -8.0649  -7.8838   4.1596   4.1641   4.3412   5.0706
     5.8635   6.0343   6.0610   6.5016   6.5102   6.5648   7.1607   7.5071

          k =-0.2486 0.2514 0.0000 (  5145 PWs)   bands (ev):

   -64.8313 -64.8257 -64.8252 -64.8242 -31.6235 -31.6187 -31.6175 -31.6070
   -31.5942 -31.5925 -31.5921 -31.5886 -31.5859 -31.5835 -31.5747 -31.5670
    -8.9668  -8.0750  -8.0539  -7.8908   4.1561   4.1663   4.3279   5.0711
     5.8466   6.0281   6.0824   6.4745   6.4932   6.5848   7.1733   7.5048

          k =-0.2486-0.2514 0.2500 (  5150 PWs)   bands (ev):

   -64.8303 -64.8257 -64.8256 -64.8249 -31.6258 -31.6246 -31.6233 -31.6055
   -31.5937 -31.5932 -31.5926 -31.5857 -31.5828 -31.5806 -31.5731 -31.5680
    -8.7969  -8.0388  -8.0314  -8.0238   3.9979   3.9999   4.0026   5.0887
     5.8367   5.8451   5.8539   6.6885   6.7054   6.7215   7.3530   7.3566

          k =-0.2486 0.2514-0.2500 (  5150 PWs)   bands (ev):

   -64.8303 -64.8257 -64.8256 -64.8249 -31.6258 -31.6246 -31.6234 -31.6055
   -31.5937 -31.5932 -31.5926 -31.5857 -31.5829 -31.5806 -31.5731 -31.5680
    -8.7969  -8.0388  -8.0314  -8.0238   3.9979   3.9999   4.0026   5.0887
     5.8367   5.8451   5.8539   6.6885   6.7054   6.7215   7.3530   7.3566

          k = 0.2486-0.2514-0.2500 (  5150 PWs)   bands (ev):

   -64.8303 -64.8257 -64.8256 -64.8249 -31.6258 -31.6246 -31.6234 -31.6055
   -31.5937 -31.5932 -31.5926 -31.5857 -31.5829 -31.5806 -31.5731 -31.5680
    -8.7969  -8.0388  -8.0314  -8.0238   3.9979   3.9999   4.0026   5.0887
     5.8367   5.8451   5.8539   6.6885   6.7054   6.7215   7.3530   7.3566

          k =-0.2486 0.2514 0.5000 (  5138 PWs)   bands (ev):

   -64.8281 -64.8277 -64.8257 -64.8250 -31.6276 -31.6274 -31.6208 -31.6207
   -31.5929 -31.5926 -31.5801 -31.5800 -31.5795 -31.5793 -31.5744 -31.5742
    -8.3998  -8.3997  -7.9978  -7.9977   3.8212   3.8214   4.1975   4.1976
     5.8296   5.8296   6.7397   6.7399   6.8682   6.8683   7.0157   7.0158

          k =-0.2486 0.5029 0.2500 (  5140 PWs)   bands (ev):

   -64.8281 -64.8276 -64.8257 -64.8251 -31.6280 -31.6278 -31.6203 -31.6201
   -31.5942 -31.5940 -31.5802 -31.5797 -31.5777 -31.5776 -31.5754 -31.5751
    -8.4023  -8.3864  -7.9997  -7.9995   3.8198   3.8199   4.1810   4.1964
     5.8302   5.8307   6.7350   6.7353   6.8729   6.8798   6.9988   7.0135

          k = 0.4972-0.2514 0.2500 (  5138 PWs)   bands (ev):

   -64.8281 -64.8277 -64.8256 -64.8250 -31.6276 -31.6275 -31.6213 -31.6210
   -31.5909 -31.5907 -31.5823 -31.5822 -31.5788 -31.5787 -31.5745 -31.5740
    -8.4133  -8.3968  -7.9959  -7.9957   3.8223   3.8224   4.1989   4.2143
     5.8288   5.8293   6.7441   6.7444   6.8569   6.8630   7.0175   7.0325

     highest occupied level (ev):     7.6845

!    total energy              =    -608.39246953 Ry
     Harris-Foulkes estimate   =    -608.39246954 Ry
     estimated scf accuracy    <          5.7E-09 Ry

     The total energy is the sum of the following terms:

     one-electron contribution =    -303.60843460 Ry
     hartree contribution      =     168.09438760 Ry
     xc contribution           =     -97.84735655 Ry
     ewald contribution        =    -375.03106598 Ry

     convergence has been achieved in   4 iterations

     Forces acting on atoms (cartesian axes, Ry/au):

     atom    1 type  1   force =    -0.00212479    0.00230353   -0.00001267
     atom    2 type  1   force =    -0.00218238   -0.00232217    0.00001268
     atom    3 type  1   force =     0.00213320    0.00236931    0.00001267
     atom    4 type  1   force =     0.00211261   -0.00230558   -0.00001298
     atom    5 type  2   force =     0.00236921    0.00251406   -0.00001399
     atom    6 type  2   force =    -0.00234376   -0.00253136   -0.00001400
     atom    7 type  2   force =    -0.00234363    0.00251306    0.00001413
     atom    8 type  2   force =     0.00237954   -0.00254084    0.00001416

     Total force =     0.009364     Total SCF correction =     0.000541


     Computing stress (Cartesian axis) and pressure

          total   stress  (Ry/bohr**3)                   (kbar)     P=  -67.65
  -0.00052652   0.00000001  -0.00000000        -77.45      0.00     -0.00
   0.00000001  -0.00038998   0.00000000          0.00    -57.37      0.00
  -0.00000000   0.00000000  -0.00046313         -0.00      0.00    -68.13


     number of scf cycles    =   2
     number of bfgs steps    =   1

     energy   old            =    -608.3923161684 Ry
     energy   new            =    -608.3924695328 Ry

     CASE: energy  _new < energy  _old

     new trust radius        =       0.0056648308 bohr
     new conv_thr            =       0.0000000015 Ry


ATOMIC_POSITIONS (alat)
Mg      -0.000792233   0.000881655  -0.000004754
Mg      -0.000804021   0.499120218   0.500004679
Mg       0.500787935   0.000895150   0.500004698
Mg       0.500779098   0.499127616  -0.000004834
O        0.500904301   0.000977341  -0.000005320
O       -0.000891655   0.499012306  -0.000005317
O       -0.000891386   0.000976936   0.500005410
O        0.500907961   0.499008778   0.500005438



     Writing output data file diamond.1.005714.70.4.save
     NEW-OLD atomic charge density approx. for the potential

     Check: negative/imaginary core charge=   -0.000007    0.000000

     total cpu time spent up to now is       24.2 secs

     per-process dynamical memory:    52.1 Mb

     Self-consistent Calculation

     iteration #  1     ecut=    70.00 Ry     beta=0.70
     Davidson diagonalization with overlap
     ethr =  1.00E-06,  avg # of iterations =  3.0

     Threshold (ethr) on eigenvalues was too large:
     Diagonalizing with lowered threshold

     Davidson diagonalization with overlap
     ethr =  6.53E-08,  avg # of iterations =  1.1

     total cpu time spent up to now is       27.8 secs

     total energy              =    -608.39256290 Ry
     Harris-Foulkes estimate   =    -608.39259345 Ry
     estimated scf accuracy    <       0.00004162 Ry

     iteration #  2     ecut=    70.00 Ry     beta=0.70
     Davidson diagonalization with overlap
     ethr =  6.50E-08,  avg # of iterations =  2.3

     total cpu time spent up to now is       29.2 secs

     total energy              =    -608.39257558 Ry
     Harris-Foulkes estimate   =    -608.39257993 Ry
     estimated scf accuracy    <       0.00000726 Ry

     iteration #  3     ecut=    70.00 Ry     beta=0.70
     Davidson diagonalization with overlap
     ethr =  1.13E-08,  avg # of iterations =  2.0

     total cpu time spent up to now is       30.7 secs

     total energy              =    -608.39257714 Ry
     Harris-Foulkes estimate   =    -608.39257712 Ry
     estimated scf accuracy    <       0.00000005 Ry

     iteration #  4     ecut=    70.00 Ry     beta=0.70
     Davidson diagonalization with overlap
     ethr =  7.58E-11,  avg # of iterations =  2.8

     total cpu time spent up to now is       32.4 secs

     total energy              =    -608.39257715 Ry
     Harris-Foulkes estimate   =    -608.39257716 Ry
     estimated scf accuracy    <          6.9E-09 Ry

     iteration #  5     ecut=    70.00 Ry     beta=0.70
     Davidson diagonalization with overlap
     ethr =  1.08E-11,  avg # of iterations =  2.0

     total cpu time spent up to now is       33.9 secs

     End of self-consistent calculation

          k = 0.0000 0.0000 0.0000 (  5153 PWs)   bands (ev):

   -64.8341 -64.8248 -64.8245 -64.8238 -31.6334 -31.6306 -31.6276 -31.5965
   -31.5952 -31.5943 -31.5917 -31.5907 -31.5894 -31.5686 -31.5634 -31.5604
    -9.3650  -7.9291  -7.9141  -7.8993   3.7396   3.7577   3.7769   6.3393
     6.3447   6.3747   6.3849   6.4157   6.4204   7.6586   7.6725   7.6848

          k = 0.0000 0.0000 0.2500 (  5157 PWs)   bands (ev):

   -64.8327 -64.8259 -64.8247 -64.8240 -31.6274 -31.6207 -31.6202 -31.6022
   -31.5945 -31.5936 -31.5920 -31.5916 -31.5855 -31.5777 -31.5741 -31.5675
    -9.1566  -8.1290  -7.8964  -7.8752   4.0310   4.0660   4.0950   5.8487
     5.8671   6.1426   6.1983   6.5104   6.5759   6.6590   7.4325   7.4676

          k = 0.0000 0.0000-0.5000 (  5134 PWs)   bands (ev):

   -64.8295 -64.8290 -64.8246 -64.8241 -31.6141 -31.6139 -31.6060 -31.6058
   -31.6015 -31.6015 -31.5910 -31.5909 -31.5829 -31.5826 -31.5774 -31.5771
    -8.6464  -8.6463  -7.8571  -7.8570   4.8327   4.8328   4.8618   4.8620
     5.1226   5.1229   5.9730   5.9734   6.9418   6.9419   6.9946   6.9947

          k = 0.0000 0.2514 0.0000 (  5161 PWs)   bands (ev):

   -64.8327 -64.8257 -64.8247 -64.8241 -31.6273 -31.6237 -31.6177 -31.6009
   -31.5967 -31.5928 -31.5902 -31.5898 -31.5893 -31.5746 -31.5743 -31.5712
    -9.1533  -8.1148  -7.8967  -7.8860   4.0349   4.0519   4.1045   5.8803
     5.8891   6.1346   6.1621   6.5065   6.5395   6.6467   7.4425   7.4597

          k = 0.0000 0.2514 0.2500 (  5157 PWs)   bands (ev):

   -64.8315 -64.8258 -64.8254 -64.8245 -31.6224 -31.6205 -31.6174 -31.6051
   -31.5982 -31.5974 -31.5907 -31.5863 -31.5844 -31.5836 -31.5783 -31.5659
    -8.9635  -8.0639  -8.0534  -7.8979   4.1574   4.1630   4.3158   5.0715
     5.8303   6.0489   6.0764   6.4584   6.4678   6.6025   7.1857   7.5031

          k = 0.0000 0.2514-0.5000 (  5146 PWs)   bands (ev):

   -64.8288 -64.8283 -64.8253 -64.8247 -31.6151 -31.6149 -31.6101 -31.6099
   -31.6089 -31.6088 -31.5878 -31.5876 -31.5819 -31.5818 -31.5721 -31.5719
    -8.5082  -8.5081  -7.9453  -7.9452   4.4103   4.4104   4.7374   4.7376
     5.0864   5.0865   6.5600   6.5602   6.5938   6.5939   7.0839   7.0840

          k = 0.0000-0.5029 0.0000 (  5126 PWs)   bands (ev):

   -64.8294 -64.8289 -64.8247 -64.8242 -31.6140 -31.6134 -31.6095 -31.6089
   -31.5977 -31.5969 -31.5883 -31.5882 -31.5835 -31.5831 -31.5805 -31.5800
    -8.6413  -8.6311  -7.8609  -7.8608   4.8401   4.8543   4.8563   4.8705
     5.1143   5.1208   5.9440   5.9443   6.9398   6.9497   6.9661   6.9758

          k = 0.0000-0.5029 0.2500 (  5150 PWs)   bands (ev):

   -64.8287 -64.8282 -64.8254 -64.8248 -31.6165 -31.6161 -31.6097 -31.6092
   -31.6082 -31.6078 -31.5889 -31.5884 -31.5802 -31.5800 -31.5735 -31.5734
    -8.5060  -8.4970  -7.9496  -7.9479   4.4064   4.4128   4.7297   4.7366
     5.0901   5.1058   6.5406   6.5464   6.5725   6.5838   7.0886   7.0918

          k = 0.0000-0.5029-0.5000 (  5160 PWs)   bands (ev):

   -64.8271 -64.8270 -64.8270 -64.8260 -31.6176 -31.6174 -31.6172 -31.6172
   -31.6000 -31.5998 -31.5995 -31.5993 -31.5726 -31.5724 -31.5722 -31.5721
    -8.2046  -8.2045  -8.1990  -8.1988   4.2703   4.2705   4.2728   4.2729
     5.7625   5.7626   5.7765   5.7766   7.0696   7.0698   7.0740   7.0742

          k = 0.2486 0.0000 0.0000 (  5164 PWs)   bands (ev):

   -64.8327 -64.8260 -64.8245 -64.8239 -31.6248 -31.6237 -31.6208 -31.5987
   -31.5968 -31.5958 -31.5945 -31.5882 -31.5845 -31.5824 -31.5710 -31.5675
    -9.1598  -8.1432  -7.8852  -7.8746   4.0445   4.0625   4.0846   5.8266
     5.8363   6.1788   6.2069   6.5460   6.5786   6.6696   7.4401   7.4580

          k = 0.2486 0.0000 0.2500 (  5153 PWs)   bands (ev):

   -64.8315 -64.8259 -64.8255 -64.8243 -31.6234 -31.6209 -31.6159 -31.6087
   -31.5938 -31.5907 -31.5898 -31.5896 -31.5890 -31.5861 -31.5705 -31.5698
    -8.9693  -8.0751  -8.0646  -7.8835   4.1598   4.1644   4.3413   5.0708
     5.8637   6.0344   6.0613   6.5017   6.5107   6.5646   7.1608   7.5074

          k = 0.2486 0.0000-0.5000 (  5138 PWs)   bands (ev):

   -64.8288 -64.8283 -64.8253 -64.8247 -31.6186 -31.6184 -31.6101 -31.6100
   -31.6019 -31.6016 -31.5846 -31.5845 -31.5812 -31.5809 -31.5779 -31.5778
    -8.5118  -8.5117  -7.9495  -7.9494   4.4265   4.4266   4.7645   4.7647
     5.1067   5.1068   6.5346   6.5348   6.5583   6.5584   7.1038   7.1039

          k = 0.2486 0.2514 0.0000 (  5145 PWs)   bands (ev):

   -64.8315 -64.8259 -64.8254 -64.8244 -31.6236 -31.6188 -31.6176 -31.6071
   -31.5944 -31.5926 -31.5922 -31.5888 -31.5861 -31.5837 -31.5749 -31.5672
    -8.9664  -8.0748  -8.0537  -7.8906   4.1563   4.1665   4.3283   5.0712
     5.8469   6.0283   6.0826   6.4749   6.4937   6.5845   7.1734   7.5051

          k = 0.2486 0.2514 0.2500 (  5150 PWs)   bands (ev):

   -64.8305 -64.8259 -64.8258 -64.8250 -31.6259 -31.6247 -31.6235 -31.6057
   -31.5939 -31.5934 -31.5928 -31.5859 -31.5830 -31.5808 -31.5733 -31.5682
    -8.7965  -8.0386  -8.0311  -8.0235   3.9981   4.0001   4.0028   5.0889
     5.8369   5.8453   5.8540   6.6887   6.7055   6.7217   7.3532   7.3568

          k = 0.2486 0.2514-0.5000 (  5138 PWs)   bands (ev):

   -64.8283 -64.8278 -64.8258 -64.8252 -31.6277 -31.6275 -31.6209 -31.6208
   -31.5930 -31.5928 -31.5803 -31.5801 -31.5796 -31.5796 -31.5745 -31.5743
    -8.3995  -8.3994  -7.9976  -7.9975   3.8214   3.8215   4.1976   4.1978
     5.8298   5.8298   6.7401   6.7404   6.8683   6.8685   7.0158   7.0159

          k = 0.2486-0.5029 0.0000 (  5154 PWs)   bands (ev):

   -64.8287 -64.8282 -64.8254 -64.8248 -31.6184 -31.6181 -31.6091 -31.6087
   -31.6063 -31.6057 -31.5855 -31.5850 -31.5812 -31.5810 -31.5767 -31.5765
    -8.5078  -8.4988  -7.9517  -7.9499   4.4148   4.4213   4.7432   4.7502
     5.0994   5.1151   6.5281   6.5339   6.5547   6.5661   7.0982   7.1012

          k = 0.2486-0.5029 0.2500 (  5140 PWs)   bands (ev):

   -64.8282 -64.8278 -64.8259 -64.8253 -31.6281 -31.6279 -31.6204 -31.6202
   -31.5944 -31.5942 -31.5802 -31.5799 -31.5779 -31.5778 -31.5755 -31.5753
    -8.3978  -8.3902  -7.9994  -7.9993   3.8200   3.8200   4.1852   4.1924
     5.8306   5.8308   6.7353   6.7355   6.8748   6.8782   7.0028   7.0098

          k = 0.2486-0.5029-0.5000 (  5136 PWs)   bands (ev):

   -64.8271 -64.8270 -64.8270 -64.8260 -31.6310 -31.6308 -31.6308 -31.6307
   -31.5854 -31.5851 -31.5851 -31.5849 -31.5726 -31.5724 -31.5722 -31.5722
    -8.1681  -8.1680  -8.1641  -8.1640   3.6312   3.6313   3.6348   3.6349
     6.5131   6.5131   6.5213   6.5213   7.0709   7.0710   7.0740   7.0741

          k =-0.4972 0.0000 0.0000 (  5150 PWs)   bands (ev):

   -64.8296 -64.8291 -64.8245 -64.8240 -31.6103 -31.6096 -31.6071 -31.6064
   -31.6048 -31.6040 -31.5967 -31.5967 -31.5797 -31.5792 -31.5769 -31.5764
    -8.6622  -8.6502  -7.8529  -7.8528   4.8228   4.8373   4.8416   4.8561
     5.1242   5.1308   6.0011   6.0014   6.9595   6.9708   6.9862   6.9973

          k =-0.4972 0.0000 0.2500 (  5148 PWs)   bands (ev):

   -64.8288 -64.8284 -64.8252 -64.8247 -31.6177 -31.6174 -31.6119 -31.6114
   -31.6027 -31.6020 -31.5867 -31.5865 -31.5809 -31.5804 -31.5761 -31.5760
    -8.5236  -8.5130  -7.9469  -7.9447   4.4226   4.4304   4.7648   4.7724
     5.0865   5.1046   6.5480   6.5545   6.5669   6.5799   7.0960   7.0991

          k =-0.4972 0.0000-0.5000 (  5184 PWs)   bands (ev):

   -64.8271 -64.8270 -64.8270 -64.8260 -31.6198 -31.6196 -31.6194 -31.6193
   -31.5928 -31.5925 -31.5922 -31.5920 -31.5783 -31.5781 -31.5778 -31.5778
    -8.2130  -8.2129  -8.2063  -8.2062   4.3133   4.3135   4.3160   4.3161
     5.7579   5.7580   5.7741   5.7742   7.0516   7.0518   7.0571   7.0573

          k =-0.4972 0.2514 0.0000 (  5156 PWs)   bands (ev):

   -64.8288 -64.8284 -64.8252 -64.8247 -31.6166 -31.6163 -31.6113 -31.6108
   -31.6073 -31.6067 -31.5851 -31.5849 -31.5840 -31.5835 -31.5729 -31.5727
    -8.5217  -8.5112  -7.9446  -7.9426   4.4148   4.4225   4.7514   4.7589
     5.0755   5.0937   6.5610   6.5674   6.5845   6.5975   7.0856   7.0889

          k =-0.4972 0.2514 0.2500 (  5138 PWs)   bands (ev):

   -64.8283 -64.8279 -64.8258 -64.8252 -31.6277 -31.6276 -31.6214 -31.6212
   -31.5910 -31.5908 -31.5825 -31.5824 -31.5789 -31.5788 -31.5746 -31.5742
    -8.4092  -8.4003  -7.9956  -7.9955   3.8225   3.8226   4.2027   4.2108
     5.8292   5.8294   6.7443   6.7446   6.8584   6.8619   7.0212   7.0292

          k =-0.4972 0.2514-0.5000 (  5160 PWs)   bands (ev):

   -64.8271 -64.8270 -64.8270 -64.8260 -31.6320 -31.6318 -31.6318 -31.6317
   -31.5809 -31.5807 -31.5807 -31.5805 -31.5771 -31.5769 -31.5768 -31.5768
    -8.1726  -8.1725  -8.1678  -8.1677   3.6452   3.6453   3.6494   3.6495
     6.5262   6.5262   6.5354   6.5355   7.0535   7.0536   7.0574   7.0575

          k =-0.4972-0.5029 0.0000 (  5196 PWs)   bands (ev):

   -64.8271 -64.8270 -64.8270 -64.8260 -31.6189 -31.6187 -31.6184 -31.6183
   -31.5974 -31.5968 -31.5968 -31.5962 -31.5759 -31.5757 -31.5754 -31.5753
    -8.2117  -8.2059  -8.2051  -8.1994   4.2907   4.2931   4.2933   4.2958
     5.7519   5.7659   5.7681   5.7821   7.0578   7.0624   7.0631   7.0677

          k =-0.4972-0.5029 0.2500 (  5144 PWs)   bands (ev):

   -64.8271 -64.8270 -64.8270 -64.8260 -31.6317 -31.6315 -31.6314 -31.6314
   -31.5835 -31.5832 -31.5831 -31.5830 -31.5742 -31.5740 -31.5739 -31.5738
    -8.1725  -8.1684  -8.1677  -8.1637   3.6362   3.6399   3.6404   3.6440
     6.5153   6.5235   6.5247   6.5328   7.0604   7.0636   7.0642   7.0674

          k =-0.4972-0.5029-0.5000 (  5136 PWs)   bands (ev):

   -64.8270 -64.8270 -64.8270 -64.8260 -31.6394 -31.6392 -31.6392 -31.6391
   -31.5776 -31.5774 -31.5773 -31.5773 -31.5718 -31.5716 -31.5716 -31.5715
    -8.1301  -8.1299  -8.1299  -8.1299   3.2173   3.2174   3.2174   3.2174
     7.0550   7.0551   7.0552   7.0553   7.0744   7.0745   7.0746   7.0747

          k = 0.0000-0.2514 0.2500 (  5157 PWs)   bands (ev):

   -64.8315 -64.8258 -64.8254 -64.8245 -31.6224 -31.6205 -31.6174 -31.6051
   -31.5982 -31.5974 -31.5907 -31.5863 -31.5844 -31.5836 -31.5783 -31.5659
    -8.9635  -8.0639  -8.0534  -7.8979   4.1574   4.1630   4.3158   5.0715
     5.8303   6.0489   6.0764   6.4584   6.4678   6.6025   7.1857   7.5031

          k =-0.2486 0.0000 0.2500 (  5153 PWs)   bands (ev):

   -64.8315 -64.8259 -64.8255 -64.8243 -31.6234 -31.6209 -31.6159 -31.6087
   -31.5938 -31.5907 -31.5898 -31.5896 -31.5890 -31.5861 -31.5705 -31.5698
    -8.9693  -8.0751  -8.0646  -7.8835   4.1598   4.1644   4.3413   5.0708
     5.8637   6.0344   6.0613   6.5017   6.5107   6.5646   7.1608   7.5074

          k =-0.2486 0.2514 0.0000 (  5145 PWs)   bands (ev):

   -64.8315 -64.8259 -64.8254 -64.8244 -31.6236 -31.6188 -31.6176 -31.6071
   -31.5944 -31.5926 -31.5922 -31.5888 -31.5861 -31.5837 -31.5749 -31.5672
    -8.9664  -8.0748  -8.0537  -7.8906   4.1563   4.1665   4.3283   5.0712
     5.8469   6.0283   6.0826   6.4749   6.4936   6.5845   7.1734   7.5051

          k =-0.2486-0.2514 0.2500 (  5150 PWs)   bands (ev):

   -64.8305 -64.8259 -64.8258 -64.8250 -31.6259 -31.6247 -31.6235 -31.6057
   -31.5939 -31.5934 -31.5928 -31.5859 -31.5830 -31.5808 -31.5733 -31.5682
    -8.7965  -8.0386  -8.0311  -8.0235   3.9981   4.0001   4.0028   5.0889
     5.8369   5.8453   5.8540   6.6887   6.7055   6.7217   7.3532   7.3568

          k =-0.2486 0.2514-0.2500 (  5150 PWs)   bands (ev):

   -64.8305 -64.8259 -64.8258 -64.8250 -31.6259 -31.6247 -31.6235 -31.6056
   -31.5938 -31.5934 -31.5928 -31.5859 -31.5830 -31.5808 -31.5733 -31.5682
    -8.7965  -8.0386  -8.0311  -8.0235   3.9981   4.0001   4.0028   5.0889
     5.8369   5.8453   5.8540   6.6887   6.7055   6.7217   7.3532   7.3568

          k = 0.2486-0.2514-0.2500 (  5150 PWs)   bands (ev):

   -64.8305 -64.8259 -64.8258 -64.8250 -31.6259 -31.6247 -31.6235 -31.6056
   -31.5938 -31.5934 -31.5928 -31.5859 -31.5830 -31.5808 -31.5733 -31.5682
    -8.7965  -8.0386  -8.0311  -8.0235   3.9981   4.0001   4.0028   5.0889
     5.8369   5.8453   5.8540   6.6887   6.7055   6.7217   7.3532   7.3568

          k =-0.2486 0.2514 0.5000 (  5138 PWs)   bands (ev):

   -64.8283 -64.8278 -64.8258 -64.8252 -31.6277 -31.6275 -31.6209 -31.6208
   -31.5930 -31.5927 -31.5803 -31.5801 -31.5796 -31.5795 -31.5745 -31.5744
    -8.3995  -8.3994  -7.9976  -7.9975   3.8214   3.8215   4.1976   4.1978
     5.8298   5.8298   6.7401   6.7404   6.8683   6.8684   7.0158   7.0159

          k =-0.2486 0.5029 0.2500 (  5140 PWs)   bands (ev):

   -64.8282 -64.8278 -64.8259 -64.8253 -31.6281 -31.6279 -31.6204 -31.6202
   -31.5944 -31.5942 -31.5802 -31.5799 -31.5779 -31.5778 -31.5755 -31.5753
    -8.3978  -8.3902  -7.9994  -7.9993   3.8200   3.8200   4.1852   4.1924
     5.8306   5.8308   6.7353   6.7355   6.8748   6.8782   7.0028   7.0098

          k = 0.4972-0.2514 0.2500 (  5138 PWs)   bands (ev):

   -64.8283 -64.8279 -64.8258 -64.8252 -31.6277 -31.6276 -31.6214 -31.6212
   -31.5910 -31.5908 -31.5825 -31.5824 -31.5789 -31.5788 -31.5746 -31.5742
    -8.4092  -8.4003  -7.9956  -7.9955   3.8225   3.8226   4.2027   4.2108
     5.8292   5.8294   6.7443   6.7446   6.8584   6.8619   7.0212   7.0292

     highest occupied level (ev):     7.6848

!    total energy              =    -608.39257715 Ry
     Harris-Foulkes estimate   =    -608.39257716 Ry
     estimated scf accuracy    <          6.5E-10 Ry

     The total energy is the sum of the following terms:

     one-electron contribution =    -303.58834117 Ry
     hartree contribution      =     168.08394114 Ry
     xc contribution           =     -97.84699791 Ry
     ewald contribution        =    -375.04117921 Ry

     convergence has been achieved in   5 iterations

     Forces acting on atoms (cartesian axes, Ry/au):

     atom    1 type  1   force =    -0.00117838    0.00112867   -0.00000667
     atom    2 type  1   force =    -0.00128608   -0.00120391    0.00000706
     atom    3 type  1   force =     0.00124203    0.00124561    0.00000705
     atom    4 type  1   force =     0.00123632   -0.00120085   -0.00000728
     atom    5 type  2   force =     0.00120659    0.00115291   -0.00000678
     atom    6 type  2   force =    -0.00121500   -0.00113816   -0.00000679
     atom    7 type  2   force =    -0.00121253    0.00115107    0.00000672
     atom    8 type  2   force =     0.00120705   -0.00113534    0.00000669

     Total force =     0.004788     Total SCF correction =     0.000255


     Computing stress (Cartesian axis) and pressure

          total   stress  (Ry/bohr**3)                   (kbar)     P=  -67.85
  -0.00052815   0.00000000  -0.00000000        -77.69      0.00     -0.00
   0.00000000  -0.00039173   0.00000000          0.00    -57.63      0.00
  -0.00000000   0.00000000  -0.00046380         -0.00      0.00    -68.23


     number of scf cycles    =   3
     number of bfgs steps    =   2

     energy   old            =    -608.3924695328 Ry
     energy   new            =    -608.3925771548 Ry

     CASE: energy  _new < energy  _old

     new trust radius        =       0.0056878927 bohr
     new conv_thr            =       0.0000000011 Ry


ATOMIC_POSITIONS (alat)
Mg      -0.001264814   0.001356501  -0.000007482
Mg      -0.001308515   0.498624868   0.500007505
Mg       0.501277260   0.001404907   0.500007521
Mg       0.501265280   0.498634410  -0.000007741
O        0.501404253   0.001475737  -0.000008183
O       -0.001391622   0.498516193  -0.000008185
O       -0.001390714   0.001474783   0.500008270
O        0.501408873   0.498512602   0.500008295



     Writing output data file diamond.1.005714.70.4.save
     NEW-OLD atomic charge density approx. for the potential

     Check: negative/imaginary core charge=   -0.000007    0.000000

     total cpu time spent up to now is       34.8 secs

     per-process dynamical memory:    52.1 Mb

     Self-consistent Calculation

     iteration #  1     ecut=    70.00 Ry     beta=0.70
     Davidson diagonalization with overlap
     ethr =  1.00E-06,  avg # of iterations =  3.0

     Threshold (ethr) on eigenvalues was too large:
     Diagonalizing with lowered threshold

     Davidson diagonalization with overlap
     ethr =  6.85E-08,  avg # of iterations =  1.1

     total cpu time spent up to now is       38.4 secs

     total energy              =    -608.39260058 Ry
     Harris-Foulkes estimate   =    -608.39263258 Ry
     estimated scf accuracy    <       0.00004364 Ry

     iteration #  2     ecut=    70.00 Ry     beta=0.70
     Davidson diagonalization with overlap
     ethr =  6.82E-08,  avg # of iterations =  2.2

     total cpu time spent up to now is       39.8 secs

     total energy              =    -608.39261389 Ry
     Harris-Foulkes estimate   =    -608.39261845 Ry
     estimated scf accuracy    <       0.00000761 Ry

     iteration #  3     ecut=    70.00 Ry     beta=0.70
     Davidson diagonalization with overlap
     ethr =  1.19E-08,  avg # of iterations =  2.0

     total cpu time spent up to now is       41.3 secs

     total energy              =    -608.39261553 Ry
     Harris-Foulkes estimate   =    -608.39261550 Ry
     estimated scf accuracy    <       0.00000005 Ry

     iteration #  4     ecut=    70.00 Ry     beta=0.70
     Davidson diagonalization with overlap
     ethr =  7.80E-11,  avg # of iterations =  2.5

     total cpu time spent up to now is       42.9 secs

     total energy              =    -608.39261554 Ry
     Harris-Foulkes estimate   =    -608.39261554 Ry
     estimated scf accuracy    <          3.1E-09 Ry

     iteration #  5     ecut=    70.00 Ry     beta=0.70
     Davidson diagonalization with overlap
     ethr =  4.87E-12,  avg # of iterations =  2.0

     total cpu time spent up to now is       44.5 secs

     End of self-consistent calculation

          k = 0.0000 0.0000 0.0000 (  5153 PWs)   bands (ev):

   -64.8341 -64.8248 -64.8245 -64.8239 -31.6334 -31.6306 -31.6276 -31.5966
   -31.5952 -31.5944 -31.5917 -31.5907 -31.5894 -31.5686 -31.5635 -31.5604
    -9.3649  -7.9291  -7.9141  -7.8993   3.7396   3.7577   3.7770   6.3393
     6.3447   6.3748   6.3849   6.4157   6.4205   7.6587   7.6725   7.6849

          k = 0.0000 0.0000 0.2500 (  5157 PWs)   bands (ev):

   -64.8327 -64.8259 -64.8247 -64.8240 -31.6274 -31.6208 -31.6203 -31.6023
   -31.5945 -31.5936 -31.5921 -31.5917 -31.5856 -31.5778 -31.5742 -31.5676
    -9.1565  -8.1289  -7.8964  -7.8751   4.0310   4.0660   4.0950   5.8487
     5.8671   6.1427   6.1984   6.5103   6.5759   6.6590   7.4325   7.4676

          k = 0.0000 0.0000-0.5000 (  5134 PWs)   bands (ev):

   -64.8295 -64.8291 -64.8246 -64.8241 -31.6141 -31.6139 -31.6060 -31.6058
   -31.6016 -31.6015 -31.5910 -31.5909 -31.5829 -31.5827 -31.5774 -31.5772
    -8.6463  -8.6462  -7.8570  -7.8570   4.8328   4.8328   4.8619   4.8619
     5.1226   5.1229   5.9732   5.9735   6.9418   6.9418   6.9946   6.9946

          k = 0.0000 0.2514 0.0000 (  5161 PWs)   bands (ev):

   -64.8327 -64.8257 -64.8248 -64.8242 -31.6273 -31.6238 -31.6177 -31.6009
   -31.5967 -31.5928 -31.5903 -31.5898 -31.5894 -31.5746 -31.5743 -31.5712
    -9.1532  -8.1147  -7.8967  -7.8860   4.0349   4.0520   4.1046   5.8803
     5.8891   6.1346   6.1621   6.5065   6.5395   6.6467   7.4425   7.4597

          k = 0.0000 0.2514 0.2500 (  5157 PWs)   bands (ev):

   -64.8315 -64.8258 -64.8255 -64.8246 -31.6224 -31.6206 -31.6174 -31.6051
   -31.5982 -31.5975 -31.5907 -31.5863 -31.5844 -31.5836 -31.5783 -31.5659
    -8.9634  -8.0639  -8.0534  -7.8978   4.1575   4.1630   4.3158   5.0716
     5.8303   6.0489   6.0764   6.4584   6.4677   6.6025   7.1857   7.5031

          k = 0.0000 0.2514-0.5000 (  5146 PWs)   bands (ev):

   -64.8288 -64.8284 -64.8254 -64.8248 -31.6151 -31.6150 -31.6100 -31.6097
   -31.6091 -31.6090 -31.5879 -31.5876 -31.5819 -31.5819 -31.5721 -31.5719
    -8.5081  -8.5080  -7.9452  -7.9452   4.4103   4.4104   4.7375   4.7377
     5.0864   5.0865   6.5603   6.5606   6.5935   6.5935   7.0839   7.0840

          k = 0.0000-0.5029 0.0000 (  5126 PWs)   bands (ev):

   -64.8294 -64.8290 -64.8247 -64.8242 -31.6138 -31.6136 -31.6093 -31.6091
   -31.5974 -31.5973 -31.5883 -31.5882 -31.5834 -31.5832 -31.5804 -31.5802
    -8.6365  -8.6359  -7.8608  -7.8608   4.8478   4.8486   4.8621   4.8629
     5.1172   5.1179   5.9440   5.9443   6.9444   6.9451   6.9706   6.9713

          k = 0.0000-0.5029 0.2500 (  5150 PWs)   bands (ev):

   -64.8287 -64.8283 -64.8254 -64.8249 -31.6164 -31.6163 -31.6095 -31.6092
   -31.6082 -31.6081 -31.5888 -31.5885 -31.5802 -31.5801 -31.5735 -31.5734
    -8.5017  -8.5012  -7.9488  -7.9486   4.4096   4.4098   4.7328   4.7336
     5.0975   5.0983   6.5436   6.5441   6.5775   6.5782   7.0901   7.0902

          k = 0.0000-0.5029-0.5000 (  5160 PWs)   bands (ev):

   -64.8271 -64.8271 -64.8270 -64.8261 -31.6176 -31.6174 -31.6173 -31.6173
   -31.5999 -31.5997 -31.5997 -31.5994 -31.5726 -31.5724 -31.5723 -31.5722
    -8.2019  -8.2018  -8.2015  -8.2015   4.2714   4.2715   4.2718   4.2720
     5.7691   5.7692   5.7699   5.7700   7.0716   7.0718   7.0721   7.0722

          k = 0.2486 0.0000 0.0000 (  5164 PWs)   bands (ev):

   -64.8328 -64.8261 -64.8245 -64.8240 -31.6248 -31.6237 -31.6208 -31.5988
   -31.5969 -31.5959 -31.5945 -31.5882 -31.5845 -31.5825 -31.5711 -31.5676
    -9.1598  -8.1432  -7.8851  -7.8746   4.0446   4.0626   4.0846   5.8266
     5.8362   6.1788   6.2070   6.5460   6.5786   6.6696   7.4401   7.4580

          k = 0.2486 0.0000 0.2500 (  5153 PWs)   bands (ev):

   -64.8315 -64.8259 -64.8255 -64.8244 -31.6234 -31.6209 -31.6160 -31.6087
   -31.5938 -31.5907 -31.5898 -31.5896 -31.5891 -31.5861 -31.5705 -31.5698
    -8.9692  -8.0751  -8.0645  -7.8835   4.1598   4.1645   4.3414   5.0708
     5.8638   6.0344   6.0613   6.5017   6.5109   6.5645   7.1608   7.5074

          k = 0.2486 0.0000-0.5000 (  5138 PWs)   bands (ev):

   -64.8288 -64.8284 -64.8254 -64.8248 -31.6186 -31.6184 -31.6101 -31.6101
   -31.6019 -31.6016 -31.5846 -31.5846 -31.5812 -31.5810 -31.5780 -31.5778
    -8.5117  -8.5117  -7.9495  -7.9494   4.4265   4.4266   4.7645   4.7647
     5.1067   5.1067   6.5349   6.5352   6.5580   6.5580   7.1038   7.1039

          k = 0.2486 0.2514 0.0000 (  5145 PWs)   bands (ev):

   -64.8315 -64.8259 -64.8254 -64.8245 -31.6236 -31.6188 -31.6176 -31.6072
   -31.5944 -31.5926 -31.5922 -31.5888 -31.5861 -31.5837 -31.5749 -31.5672
    -8.9663  -8.0747  -8.0536  -7.8905   4.1563   4.1665   4.3284   5.0712
     5.8470   6.0283   6.0827   6.4749   6.4938   6.5843   7.1734   7.5051

          k = 0.2486 0.2514 0.2500 (  5150 PWs)   bands (ev):

   -64.8305 -64.8259 -64.8258 -64.8251 -31.6259 -31.6247 -31.6235 -31.6057
   -31.5939 -31.5934 -31.5928 -31.5859 -31.5830 -31.5808 -31.5733 -31.5682
    -8.7965  -8.0386  -8.0310  -8.0235   3.9981   4.0001   4.0028   5.0889
     5.8369   5.8453   5.8541   6.6888   6.7055   6.7217   7.3532   7.3568

          k = 0.2486 0.2514-0.5000 (  5138 PWs)   bands (ev):

   -64.8283 -64.8279 -64.8258 -64.8253 -31.6277 -31.6275 -31.6209 -31.6208
   -31.5930 -31.5928 -31.5803 -31.5801 -31.5796 -31.5796 -31.5746 -31.5744
    -8.3994  -8.3993  -7.9975  -7.9975   3.8214   3.8215   4.1977   4.1978
     5.8298   5.8298   6.7402   6.7405   6.8683   6.8685   7.0158   7.0158

          k = 0.2486-0.5029 0.0000 (  5154 PWs)   bands (ev):

   -64.8287 -64.8283 -64.8254 -64.8249 -31.6184 -31.6182 -31.6089 -31.6089
   -31.6061 -31.6059 -31.5854 -31.5851 -31.5811 -31.5811 -31.5767 -31.5766
    -8.5035  -8.5029  -7.9508  -7.9507   4.4180   4.4181   4.7463   4.7471
     5.1069   5.1077   6.5308   6.5313   6.5600   6.5608   7.0996   7.0997

          k = 0.2486-0.5029 0.2500 (  5140 PWs)   bands (ev):

   -64.8282 -64.8278 -64.8259 -64.8253 -31.6281 -31.6280 -31.6204 -31.6203
   -31.5944 -31.5942 -31.5802 -31.5800 -31.5779 -31.5778 -31.5755 -31.5754
    -8.3942  -8.3937  -7.9994  -7.9993   3.8200   3.8201   4.1885   4.1892
     5.8307   5.8308   6.7353   6.7355   6.8764   6.8766   7.0060   7.0065

          k = 0.2486-0.5029-0.5000 (  5136 PWs)   bands (ev):

   -64.8271 -64.8270 -64.8270 -64.8261 -31.6310 -31.6308 -31.6308 -31.6308
   -31.5853 -31.5851 -31.5851 -31.5850 -31.5726 -31.5724 -31.5723 -31.5722
    -8.1662  -8.1661  -8.1659  -8.1659   3.6328   3.6329   3.6332   3.6333
     6.5169   6.5169   6.5174   6.5175   7.0723   7.0724   7.0726   7.0728

          k =-0.4972 0.0000 0.0000 (  5150 PWs)   bands (ev):

   -64.8296 -64.8292 -64.8245 -64.8240 -31.6101 -31.6098 -31.6069 -31.6066
   -31.6046 -31.6044 -31.5967 -31.5967 -31.5796 -31.5794 -31.5768 -31.5766
    -8.6568  -8.6555  -7.8529  -7.8528   4.8312   4.8333   4.8457   4.8478
     5.1272   5.1278   6.0011   6.0014   6.9646   6.9656   6.9913   6.9923

          k =-0.4972 0.0000 0.2500 (  5148 PWs)   bands (ev):

   -64.8288 -64.8284 -64.8253 -64.8247 -31.6176 -31.6175 -31.6117 -31.6116
   -31.6025 -31.6022 -31.5867 -31.5866 -31.5808 -31.5806 -31.5762 -31.5760
    -8.5188  -8.5177  -7.9458  -7.9456   4.4260   4.4270   4.7684   4.7689
     5.0945   5.0965   6.5513   6.5519   6.5724   6.5737   7.0974   7.0978

          k =-0.4972 0.0000-0.5000 (  5184 PWs)   bands (ev):

   -64.8271 -64.8271 -64.8270 -64.8261 -31.6197 -31.6195 -31.6194 -31.6194
   -31.5926 -31.5924 -31.5924 -31.5921 -31.5782 -31.5781 -31.5779 -31.5779
    -8.2100  -8.2099  -8.2093  -8.2092   4.3146   4.3147   4.3147   4.3149
     5.7651   5.7652   5.7669   5.7669   7.0542   7.0543   7.0546   7.0548

          k =-0.4972 0.2514 0.0000 (  5156 PWs)   bands (ev):

   -64.8288 -64.8284 -64.8253 -64.8247 -31.6166 -31.6164 -31.6112 -31.6110
   -31.6072 -31.6069 -31.5851 -31.5850 -31.5839 -31.5837 -31.5729 -31.5727
    -8.5169  -8.5159  -7.9437  -7.9435   4.4181   4.4192   4.7549   4.7554
     5.0836   5.0856   6.5639   6.5645   6.5903   6.5916   7.0870   7.0875

          k =-0.4972 0.2514 0.2500 (  5138 PWs)   bands (ev):

   -64.8283 -64.8279 -64.8258 -64.8252 -31.6278 -31.6276 -31.6213 -31.6213
   -31.5911 -31.5908 -31.5825 -31.5824 -31.5790 -31.5789 -31.5745 -31.5743
    -8.4052  -8.4042  -7.9956  -7.9955   3.8225   3.8226   4.2065   4.2070
     5.8293   5.8294   6.7444   6.7446   6.8598   6.8604   7.0248   7.0256

          k =-0.4972 0.2514-0.5000 (  5160 PWs)   bands (ev):

   -64.8271 -64.8270 -64.8270 -64.8261 -31.6320 -31.6318 -31.6318 -31.6317
   -31.5809 -31.5807 -31.5806 -31.5805 -31.5772 -31.5769 -31.5769 -31.5768
    -8.1704  -8.1703  -8.1699  -8.1698   3.6471   3.6473   3.6474   3.6475
     6.5303   6.5304   6.5313   6.5313   7.0553   7.0554   7.0556   7.0558

          k =-0.4972-0.5029 0.0000 (  5196 PWs)   bands (ev):

   -64.8271 -64.8271 -64.8270 -64.8261 -31.6188 -31.6186 -31.6185 -31.6184
   -31.5970 -31.5969 -31.5968 -31.5966 -31.5758 -31.5757 -31.5755 -31.5755
    -8.2060  -8.2056  -8.2053  -8.2050   4.2929   4.2930   4.2934   4.2936
     5.7658   5.7665   5.7675   5.7683   7.0623   7.0627   7.0628   7.0632

          k =-0.4972-0.5029 0.2500 (  5144 PWs)   bands (ev):

   -64.8271 -64.8270 -64.8270 -64.8261 -31.6317 -31.6315 -31.6314 -31.6314
   -31.5834 -31.5832 -31.5832 -31.5831 -31.5742 -31.5740 -31.5739 -31.5738
    -8.1684  -8.1681  -8.1679  -8.1676   3.6398   3.6400   3.6402   3.6405
     6.5234   6.5238   6.5244   6.5248   7.0636   7.0639   7.0639   7.0643

          k =-0.4972-0.5029-0.5000 (  5136 PWs)   bands (ev):

   -64.8271 -64.8270 -64.8270 -64.8261 -31.6394 -31.6392 -31.6392 -31.6392
   -31.5776 -31.5774 -31.5774 -31.5773 -31.5718 -31.5716 -31.5716 -31.5715
    -8.1300  -8.1299  -8.1299  -8.1298   3.2173   3.2174   3.2174   3.2174
     7.0551   7.0552   7.0552   7.0554   7.0744   7.0745   7.0746   7.0747

          k = 0.0000-0.2514 0.2500 (  5157 PWs)   bands (ev):

   -64.8315 -64.8258 -64.8255 -64.8246 -31.6224 -31.6206 -31.6174 -31.6051
   -31.5982 -31.5975 -31.5907 -31.5863 -31.5844 -31.5836 -31.5783 -31.5659
    -8.9634  -8.0639  -8.0534  -7.8978   4.1575   4.1630   4.3158   5.0716
     5.8303   6.0489   6.0764   6.4584   6.4677   6.6025   7.1857   7.5031

          k =-0.2486 0.0000 0.2500 (  5153 PWs)   bands (ev):

   -64.8315 -64.8259 -64.8255 -64.8244 -31.6234 -31.6209 -31.6160 -31.6087
   -31.5938 -31.5907 -31.5898 -31.5896 -31.5891 -31.5861 -31.5705 -31.5698
    -8.9692  -8.0751  -8.0645  -7.8835   4.1598   4.1645   4.3414   5.0708
     5.8638   6.0344   6.0613   6.5017   6.5109   6.5645   7.1608   7.5074

          k =-0.2486 0.2514 0.0000 (  5145 PWs)   bands (ev):

   -64.8315 -64.8259 -64.8254 -64.8245 -31.6236 -31.6188 -31.6176 -31.6072
   -31.5944 -31.5926 -31.5922 -31.5888 -31.5861 -31.5837 -31.5749 -31.5672
    -8.9663  -8.0747  -8.0536  -7.8905   4.1563   4.1665   4.3284   5.0712
     5.8470   6.0283   6.0827   6.4749   6.4938   6.5843   7.1734   7.5051

          k =-0.2486-0.2514 0.2500 (  5150 PWs)   bands (ev):

   -64.8305 -64.8259 -64.8258 -64.8251 -31.6259 -31.6247 -31.6235 -31.6057
   -31.5939 -31.5934 -31.5928 -31.5859 -31.5830 -31.5808 -31.5733 -31.5682
    -8.7965  -8.0386  -8.0310  -8.0235   3.9981   4.0001   4.0028   5.0889
     5.8369   5.8453   5.8541   6.6888   6.7055   6.7217   7.3532   7.3568

          k =-0.2486 0.2514-0.2500 (  5150 PWs)   bands (ev):

   -64.8305 -64.8259 -64.8258 -64.8251 -31.6259 -31.6247 -31.6235 -31.6057
   -31.5939 -31.5934 -31.5928 -31.5859 -31.5830 -31.5808 -31.5733 -31.5682
    -8.7965  -8.0386  -8.0310  -8.0235   3.9981   4.0001   4.0028   5.0889
     5.8369   5.8453   5.8541   6.6888   6.7055   6.7217   7.3532   7.3568

          k = 0.2486-0.2514-0.2500 (  5150 PWs)   bands (ev):

   -64.8305 -64.8259 -64.8258 -64.8251 -31.6259 -31.6247 -31.6235 -31.6057
   -31.5939 -31.5934 -31.5928 -31.5859 -31.5830 -31.5808 -31.5733 -31.5682
    -8.7965  -8.0386  -8.0310  -8.0235   3.9981   4.0001   4.0028   5.0889
     5.8369   5.8453   5.8541   6.6888   6.7055   6.7217   7.3532   7.3568

          k =-0.2486 0.2514 0.5000 (  5138 PWs)   bands (ev):

   -64.8283 -64.8279 -64.8258 -64.8253 -31.6277 -31.6276 -31.6209 -31.6208
   -31.5930 -31.5928 -31.5803 -31.5801 -31.5796 -31.5796 -31.5746 -31.5744
    -8.3994  -8.3993  -7.9975  -7.9975   3.8214   3.8215   4.1977   4.1978
     5.8298   5.8298   6.7402   6.7405   6.8683   6.8685   7.0158   7.0158

          k =-0.2486 0.5029 0.2500 (  5140 PWs)   bands (ev):

   -64.8282 -64.8278 -64.8259 -64.8253 -31.6281 -31.6280 -31.6204 -31.6203
   -31.5944 -31.5942 -31.5802 -31.5800 -31.5779 -31.5778 -31.5755 -31.5754
    -8.3942  -8.3937  -7.9994  -7.9993   3.8200   3.8201   4.1885   4.1892
     5.8307   5.8308   6.7353   6.7355   6.8764   6.8766   7.0060   7.0065

          k = 0.4972-0.2514 0.2500 (  5138 PWs)   bands (ev):

   -64.8283 -64.8279 -64.8258 -64.8252 -31.6278 -31.6276 -31.6213 -31.6213
   -31.5911 -31.5908 -31.5825 -31.5824 -31.5790 -31.5789 -31.5745 -31.5743
    -8.4052  -8.4042  -7.9956  -7.9955   3.8225   3.8226   4.2065   4.2070
     5.8293   5.8294   6.7444   6.7446   6.8598   6.8604   7.0248   7.0256

     highest occupied level (ev):     7.6849

!    total energy              =    -608.39261554 Ry
     Harris-Foulkes estimate   =    -608.39261554 Ry
     estimated scf accuracy    <          4.3E-10 Ry

     The total energy is the sum of the following terms:

     one-electron contribution =    -303.58034143 Ry
     hartree contribution      =     168.07992249 Ry
     xc contribution           =     -97.84692050 Ry
     ewald contribution        =    -375.04527610 Ry

     convergence has been achieved in   5 iterations

     Forces acting on atoms (cartesian axes, Ry/au):

     atom    1 type  1   force =    -0.00012625   -0.00007607   -0.00000019
     atom    2 type  1   force =    -0.00025982   -0.00002915    0.00000084
     atom    3 type  1   force =     0.00022976    0.00005762    0.00000083
     atom    4 type  1   force =     0.00023465   -0.00003454   -0.00000095
     atom    5 type  2   force =    -0.00000266   -0.00016839    0.00000040
     atom    6 type  2   force =    -0.00003025    0.00020001    0.00000039
     atom    7 type  2   force =    -0.00002915   -0.00017212   -0.00000062
     atom    8 type  2   force =    -0.00001629    0.00022263   -0.00000070

     Total force =     0.000593     Total SCF correction =     0.000234
     SCF correction compared to forces is large: reduce conv_thr to get better values


     Computing stress (Cartesian axis) and pressure

          total   stress  (Ry/bohr**3)                   (kbar)     P=  -67.89
  -0.00052858   0.00000000  -0.00000000        -77.76      0.00     -0.00
   0.00000000  -0.00039210   0.00000000          0.00    -57.68      0.00
  -0.00000000   0.00000000  -0.00046380         -0.00      0.00    -68.23


     number of scf cycles    =   4
     number of bfgs steps    =   3

     energy   old            =    -608.3925771548 Ry
     energy   new            =    -608.3926155406 Ry

     CASE: energy  _new < energy  _old

     new trust radius        =       0.0003061034 bohr
     new conv_thr            =       0.0000000003 Ry


ATOMIC_POSITIONS (alat)
Mg      -0.001284997   0.001351555  -0.000007532
Mg      -0.001345639   0.498616523   0.500007637
Mg       0.501310497   0.001416933   0.500007651
Mg       0.501299091   0.498625419  -0.000007887
O        0.501408700   0.001459579  -0.000008161
O       -0.001400163   0.498536300  -0.000008164
O       -0.001399113   0.001458154   0.500008221
O        0.501411624   0.498535538   0.500008235



     Writing output data file diamond.1.005714.70.4.save
     NEW-OLD atomic charge density approx. for the potential

     Check: negative/imaginary core charge=   -0.000007    0.000000

     total cpu time spent up to now is       45.3 secs

     per-process dynamical memory:    52.1 Mb

     Self-consistent Calculation

     iteration #  1     ecut=    70.00 Ry     beta=0.70
     Davidson diagonalization with overlap
     ethr =  1.00E-06,  avg # of iterations =  2.0

     Threshold (ethr) on eigenvalues was too large:
     Diagonalizing with lowered threshold

     Davidson diagonalization with overlap
[...]
O       -0.001406135   0.001431597   0.500008132
O        0.501408544   0.498571282   0.500008121



     Writing output data file diamond.1.005714.70.4.save
     NEW-OLD atomic charge density approx. for the potential

     Check: negative/imaginary core charge=   -0.000007    0.000000

     total cpu time spent up to now is       52.7 secs

     per-process dynamical memory:    52.1 Mb

     Self-consistent Calculation

     iteration #  1     ecut=    70.00 Ry     beta=0.70
     Davidson diagonalization with overlap
     ethr =  1.00E-06,  avg # of iterations =  2.0

     Threshold (ethr) on eigenvalues was too large:
     Diagonalizing with lowered threshold

     Davidson diagonalization with overlap
     ethr =  4.52E-11,  avg # of iterations =  3.7

     total cpu time spent up to now is       56.3 secs

     total energy              =    -608.39261605 Ry
     Harris-Foulkes estimate   =    -608.39261609 Ry
     estimated scf accuracy    <       0.00000006 Ry

     iteration #  2     ecut=    70.00 Ry     beta=0.70
     Davidson diagonalization with overlap
     ethr =  9.01E-11,  avg # of iterations =  2.2

     total cpu time spent up to now is       57.8 secs

     total energy              =    -608.39261607 Ry
     Harris-Foulkes estimate   =    -608.39261608 Ry
     estimated scf accuracy    <       0.00000001 Ry

     iteration #  3     ecut=    70.00 Ry     beta=0.70
     Davidson diagonalization with overlap
     ethr =  1.63E-11,  avg # of iterations =  2.0

     total cpu time spent up to now is       59.3 secs

     total energy              =    -608.39261607 Ry
     Harris-Foulkes estimate   =    -608.39261607 Ry
     estimated scf accuracy    <          3.6E-10 Ry

     iteration #  4     ecut=    70.00 Ry     beta=0.70
     Davidson diagonalization with overlap
     ethr =  5.59E-13,  avg # of iterations =  3.0

     total cpu time spent up to now is       60.9 secs

     total energy              =    -608.39261607 Ry
     Harris-Foulkes estimate   =    -608.39261607 Ry
     estimated scf accuracy    <          1.3E-10 Ry

     iteration #  5     ecut=    70.00 Ry     beta=0.70
     Davidson diagonalization with overlap
     ethr =  2.07E-13,  avg # of iterations =  2.7

     total cpu time spent up to now is       62.5 secs

     End of self-consistent calculation

          k = 0.0000 0.0000 0.0000 (  5153 PWs)   bands (ev):

   -64.8341 -64.8248 -64.8245 -64.8239 -31.6334 -31.6306 -31.6276 -31.5966
   -31.5952 -31.5944 -31.5917 -31.5907 -31.5894 -31.5686 -31.5635 -31.5604
    -9.3650  -7.9291  -7.9141  -7.8993   3.7396   3.7577   3.7770   6.3393
     6.3447   6.3748   6.3849   6.4157   6.4205   7.6587   7.6725   7.6849

          k = 0.0000 0.0000 0.2500 (  5157 PWs)   bands (ev):

   -64.8327 -64.8259 -64.8247 -64.8240 -31.6274 -31.6208 -31.6203 -31.6023
   -31.5945 -31.5936 -31.5921 -31.5917 -31.5856 -31.5778 -31.5741 -31.5676
    -9.1565  -8.1289  -7.8964  -7.8751   4.0310   4.0660   4.0950   5.8487
     5.8671   6.1427   6.1984   6.5103   6.5759   6.6590   7.4325   7.4676

          k = 0.0000 0.0000-0.5000 (  5134 PWs)   bands (ev):

   -64.8295 -64.8291 -64.8246 -64.8241 -31.6141 -31.6139 -31.6060 -31.6058
   -31.6016 -31.6015 -31.5910 -31.5909 -31.5829 -31.5827 -31.5774 -31.5772
    -8.6463  -8.6462  -7.8570  -7.8570   4.8328   4.8328   4.8619   4.8620
     5.1226   5.1229   5.9731   5.9735   6.9418   6.9418   6.9946   6.9946

          k = 0.0000 0.2514 0.0000 (  5161 PWs)   bands (ev):

   -64.8327 -64.8257 -64.8248 -64.8242 -31.6273 -31.6238 -31.6177 -31.6009
   -31.5967 -31.5928 -31.5903 -31.5898 -31.5894 -31.5746 -31.5743 -31.5712
    -9.1532  -8.1147  -7.8967  -7.8860   4.0349   4.0520   4.1046   5.8803
     5.8891   6.1346   6.1621   6.5065   6.5395   6.6467   7.4425   7.4597

          k = 0.0000 0.2514 0.2500 (  5157 PWs)   bands (ev):

   -64.8315 -64.8258 -64.8255 -64.8245 -31.6224 -31.6206 -31.6174 -31.6051
   -31.5982 -31.5975 -31.5907 -31.5863 -31.5844 -31.5836 -31.5783 -31.5659
    -8.9634  -8.0639  -8.0534  -7.8978   4.1575   4.1630   4.3158   5.0716
     5.8303   6.0489   6.0764   6.4584   6.4677   6.6025   7.1857   7.5031

          k = 0.0000 0.2514-0.5000 (  5146 PWs)   bands (ev):

   -64.8288 -64.8284 -64.8253 -64.8248 -31.6151 -31.6150 -31.6100 -31.6097
   -31.6091 -31.6090 -31.5879 -31.5876 -31.5819 -31.5819 -31.5721 -31.5719
    -8.5081  -8.5080  -7.9453  -7.9452   4.4103   4.4104   4.7374   4.7377
     5.0864   5.0865   6.5603   6.5606   6.5935   6.5935   7.0839   7.0840

          k = 0.0000-0.5029 0.0000 (  5126 PWs)   bands (ev):

   -64.8294 -64.8290 -64.8247 -64.8242 -31.6138 -31.6136 -31.6093 -31.6091
   -31.5974 -31.5973 -31.5883 -31.5882 -31.5834 -31.5832 -31.5804 -31.5802
    -8.6363  -8.6361  -7.8608  -7.8608   4.8480   4.8484   4.8623   4.8626
     5.1174   5.1177   5.9440   5.9443   6.9447   6.9448   6.9709   6.9710

          k = 0.0000-0.5029 0.2500 (  5150 PWs)   bands (ev):

   -64.8287 -64.8283 -64.8254 -64.8249 -31.6164 -31.6163 -31.6095 -31.6092
   -31.6082 -31.6082 -31.5888 -31.5885 -31.5802 -31.5801 -31.5735 -31.5734
    -8.5015  -8.5014  -7.9488  -7.9487   4.4096   4.4098   4.7331   4.7333
     5.0977   5.0980   6.5437   6.5440   6.5778   6.5779   7.0901   7.0902

          k = 0.0000-0.5029-0.5000 (  5160 PWs)   bands (ev):

   -64.8271 -64.8271 -64.8270 -64.8261 -31.6176 -31.6174 -31.6173 -31.6173
   -31.5999 -31.5997 -31.5997 -31.5994 -31.5726 -31.5724 -31.5723 -31.5722
    -8.2018  -8.2017  -8.2016  -8.2016   4.2716   4.2716   4.2717   4.2719
     5.7693   5.7693   5.7697   5.7697   7.0718   7.0719   7.0719   7.0721

          k = 0.2486 0.0000 0.0000 (  5164 PWs)   bands (ev):

   -64.8328 -64.8261 -64.8245 -64.8240 -31.6248 -31.6237 -31.6208 -31.5988
   -31.5969 -31.5959 -31.5945 -31.5882 -31.5845 -31.5825 -31.5711 -31.5676
    -9.1598  -8.1432  -7.8851  -7.8746   4.0446   4.0626   4.0846   5.8266
     5.8362   6.1788   6.2070   6.5460   6.5786   6.6696   7.4401   7.4580

          k = 0.2486 0.0000 0.2500 (  5153 PWs)   bands (ev):

   -64.8315 -64.8259 -64.8255 -64.8244 -31.6234 -31.6209 -31.6160 -31.6087
   -31.5938 -31.5907 -31.5898 -31.5896 -31.5891 -31.5861 -31.5705 -31.5698
    -8.9692  -8.0751  -8.0645  -7.8835   4.1598   4.1645   4.3414   5.0708
     5.8638   6.0343   6.0613   6.5017   6.5109   6.5645   7.1608   7.5074

          k = 0.2486 0.0000-0.5000 (  5138 PWs)   bands (ev):

   -64.8288 -64.8284 -64.8254 -64.8248 -31.6186 -31.6184 -31.6101 -31.6101
   -31.6019 -31.6016 -31.5846 -31.5846 -31.5812 -31.5810 -31.5780 -31.5778
    -8.5117  -8.5117  -7.9495  -7.9494   4.4265   4.4266   4.7645   4.7647
     5.1067   5.1067   6.5349   6.5352   6.5580   6.5580   7.1038   7.1038

          k = 0.2486 0.2514 0.0000 (  5145 PWs)   bands (ev):

   -64.8315 -64.8259 -64.8254 -64.8245 -31.6236 -31.6188 -31.6176 -31.6072
   -31.5944 -31.5926 -31.5922 -31.5888 -31.5861 -31.5837 -31.5749 -31.5672
    -8.9663  -8.0747  -8.0536  -7.8905   4.1563   4.1665   4.3284   5.0712
     5.8470   6.0283   6.0827   6.4749   6.4938   6.5843   7.1733   7.5051

          k = 0.2486 0.2514 0.2500 (  5150 PWs)   bands (ev):

   -64.8305 -64.8259 -64.8258 -64.8251 -31.6259 -31.6247 -31.6235 -31.6057
   -31.5939 -31.5934 -31.5928 -31.5859 -31.5830 -31.5808 -31.5733 -31.5682
    -8.7965  -8.0386  -8.0310  -8.0235   3.9981   4.0001   4.0028   5.0889
     5.8369   5.8453   5.8541   6.6887   6.7054   6.7217   7.3532   7.3568

          k = 0.2486 0.2514-0.5000 (  5138 PWs)   bands (ev):

   -64.8283 -64.8279 -64.8258 -64.8253 -31.6277 -31.6275 -31.6209 -31.6208
   -31.5930 -31.5928 -31.5803 -31.5801 -31.5796 -31.5796 -31.5746 -31.5744
    -8.3994  -8.3993  -7.9976  -7.9975   3.8214   3.8215   4.1977   4.1978
     5.8298   5.8298   6.7402   6.7405   6.8683   6.8684   7.0158   7.0158

          k = 0.2486-0.5029 0.0000 (  5154 PWs)   bands (ev):

   -64.8287 -64.8283 -64.8254 -64.8249 -31.6184 -31.6182 -31.6089 -31.6089
   -31.6061 -31.6059 -31.5854 -31.5851 -31.5811 -31.5811 -31.5767 -31.5766
    -8.5033  -8.5031  -7.9508  -7.9507   4.4180   4.4182   4.7466   4.7468
     5.1072   5.1075   6.5309   6.5311   6.5603   6.5605   7.0996   7.0997

          k = 0.2486-0.5029 0.2500 (  5140 PWs)   bands (ev):

   -64.8282 -64.8278 -64.8259 -64.8253 -31.6281 -31.6280 -31.6204 -31.6203
   -31.5944 -31.5942 -31.5802 -31.5800 -31.5779 -31.5778 -31.5755 -31.5754
    -8.3940  -8.3939  -7.9994  -7.9993   3.8200   3.8201   4.1888   4.1889
     5.8307   5.8308   6.7353   6.7355   6.8764   6.8766   7.0062   7.0063

          k = 0.2486-0.5029-0.5000 (  5136 PWs)   bands (ev):

   -64.8271 -64.8270 -64.8270 -64.8261 -31.6310 -31.6308 -31.6308 -31.6307
   -31.5853 -31.5851 -31.5851 -31.5850 -31.5726 -31.5724 -31.5723 -31.5722
    -8.1662  -8.1660  -8.1660  -8.1660   3.6329   3.6330   3.6330   3.6331
     6.5170   6.5171   6.5173   6.5173   7.0724   7.0725   7.0725   7.0727

          k =-0.4972 0.0000 0.0000 (  5150 PWs)   bands (ev):

   -64.8296 -64.8292 -64.8245 -64.8240 -31.6101 -31.6098 -31.6069 -31.6066
   -31.6045 -31.6044 -31.5967 -31.5967 -31.5796 -31.5794 -31.5768 -31.5766
    -8.6566  -8.6558  -7.8529  -7.8528   4.8316   4.8329   4.8461   4.8474
     5.1273   5.1277   6.0011   6.0014   6.9648   6.9654   6.9914   6.9921

          k =-0.4972 0.0000 0.2500 (  5148 PWs)   bands (ev):

   -64.8288 -64.8284 -64.8253 -64.8247 -31.6176 -31.6175 -31.6117 -31.6116
   -31.6025 -31.6022 -31.5867 -31.5866 -31.5808 -31.5806 -31.5761 -31.5760
    -8.5186  -8.5179  -7.9458  -7.9457   4.4262   4.4268   4.7685   4.7688
     5.0949   5.0961   6.5514   6.5518   6.5727   6.5735   7.0974   7.0977

          k =-0.4972 0.0000-0.5000 (  5184 PWs)   bands (ev):

   -64.8271 -64.8271 -64.8270 -64.8261 -31.6197 -31.6195 -31.6194 -31.6194
   -31.5926 -31.5924 -31.5924 -31.5921 -31.5782 -31.5781 -31.5779 -31.5779
    -8.2099  -8.2098  -8.2094  -8.2093   4.3146   4.3147   4.3147   4.3149
     5.7654   5.7655   5.7665   5.7666   7.0542   7.0544   7.0546   7.0547

          k =-0.4972 0.2514 0.0000 (  5156 PWs)   bands (ev):

   -64.8288 -64.8284 -64.8253 -64.8247 -31.6165 -31.6164 -31.6111 -31.6111
   -31.6072 -31.6069 -31.5850 -31.5850 -31.5839 -31.5837 -31.5729 -31.5727
    -8.5167  -8.5161  -7.9436  -7.9435   4.4183   4.4189   4.7550   4.7553
     5.0840   5.0853   6.5640   6.5644   6.5906   6.5914   7.0871   7.0874

          k =-0.4972 0.2514 0.2500 (  5138 PWs)   bands (ev):

   -64.8283 -64.8279 -64.8258 -64.8252 -31.6278 -31.6276 -31.6213 -31.6213
   -31.5911 -31.5908 -31.5825 -31.5824 -31.5790 -31.5789 -31.5745 -31.5743
    -8.4050  -8.4044  -7.9956  -7.9955   3.8225   3.8226   4.2066   4.2069
     5.8293   5.8294   6.7444   6.7446   6.8599   6.8603   7.0250   7.0254

          k =-0.4972 0.2514-0.5000 (  5160 PWs)   bands (ev):

   -64.8271 -64.8270 -64.8270 -64.8261 -31.6320 -31.6318 -31.6318 -31.6317
   -31.5809 -31.5807 -31.5806 -31.5805 -31.5772 -31.5769 -31.5769 -31.5768
    -8.1703  -8.1702  -8.1700  -8.1699   3.6472   3.6473   3.6474   3.6474
     6.5305   6.5306   6.5311   6.5312   7.0553   7.0555   7.0556   7.0557

          k =-0.4972-0.5029 0.0000 (  5196 PWs)   bands (ev):

   -64.8271 -64.8271 -64.8270 -64.8261 -31.6188 -31.6186 -31.6185 -31.6184
   -31.5970 -31.5969 -31.5968 -31.5966 -31.5758 -31.5757 -31.5755 -31.5755
    -8.2058  -8.2057  -8.2053  -8.2052   4.2931   4.2931   4.2932   4.2934
     5.7663   5.7666   5.7675   5.7677   7.0625   7.0627   7.0628   7.0630

          k =-0.4972-0.5029 0.2500 (  5144 PWs)   bands (ev):

   -64.8271 -64.8270 -64.8270 -64.8261 -31.6317 -31.6315 -31.6314 -31.6314
   -31.5834 -31.5832 -31.5832 -31.5831 -31.5742 -31.5740 -31.5739 -31.5738
    -8.1682  -8.1681  -8.1679  -8.1678   3.6400   3.6401   3.6402   3.6403
     6.5237   6.5238   6.5244   6.5245   7.0637   7.0639   7.0640   7.0641

          k =-0.4972-0.5029-0.5000 (  5136 PWs)   bands (ev):

   -64.8271 -64.8270 -64.8270 -64.8261 -31.6394 -31.6392 -31.6392 -31.6392
   -31.5776 -31.5774 -31.5774 -31.5773 -31.5718 -31.5716 -31.5716 -31.5715
    -8.1300  -8.1299  -8.1299  -8.1299   3.2173   3.2174   3.2174   3.2174
     7.0551   7.0551   7.0552   7.0554   7.0744   7.0745   7.0746   7.0747

          k = 0.0000-0.2514 0.2500 (  5157 PWs)   bands (ev):

   -64.8315 -64.8258 -64.8255 -64.8245 -31.6224 -31.6206 -31.6174 -31.6051
   -31.5982 -31.5975 -31.5907 -31.5863 -31.5844 -31.5836 -31.5783 -31.5659
    -8.9634  -8.0639  -8.0534  -7.8978   4.1575   4.1630   4.3158   5.0716
     5.8303   6.0489   6.0764   6.4584   6.4677   6.6025   7.1857   7.5031

          k =-0.2486 0.0000 0.2500 (  5153 PWs)   bands (ev):

   -64.8315 -64.8259 -64.8255 -64.8244 -31.6234 -31.6209 -31.6160 -31.6087
   -31.5938 -31.5907 -31.5898 -31.5896 -31.5891 -31.5861 -31.5705 -31.5698
    -8.9692  -8.0751  -8.0645  -7.8835   4.1598   4.1645   4.3414   5.0708
     5.8638   6.0343   6.0613   6.5017   6.5109   6.5645   7.1608   7.5074

          k =-0.2486 0.2514 0.0000 (  5145 PWs)   bands (ev):

   -64.8315 -64.8259 -64.8254 -64.8245 -31.6236 -31.6188 -31.6176 -31.6071
   -31.5944 -31.5926 -31.5922 -31.5888 -31.5861 -31.5837 -31.5749 -31.5672
    -8.9663  -8.0747  -8.0536  -7.8905   4.1563   4.1665   4.3284   5.0712
     5.8470   6.0283   6.0827   6.4749   6.4938   6.5843   7.1733   7.5051

          k =-0.2486-0.2514 0.2500 (  5150 PWs)   bands (ev):

   -64.8305 -64.8259 -64.8258 -64.8251 -31.6259 -31.6247 -31.6235 -31.6057
   -31.5939 -31.5934 -31.5928 -31.5859 -31.5830 -31.5808 -31.5733 -31.5682
    -8.7965  -8.0386  -8.0310  -8.0235   3.9981   4.0001   4.0028   5.0889
     5.8369   5.8453   5.8541   6.6887   6.7054   6.7217   7.3532   7.3568

          k =-0.2486 0.2514-0.2500 (  5150 PWs)   bands (ev):

   -64.8305 -64.8259 -64.8258 -64.8251 -31.6259 -31.6247 -31.6235 -31.6057
   -31.5939 -31.5934 -31.5928 -31.5859 -31.5830 -31.5808 -31.5733 -31.5682
    -8.7965  -8.0386  -8.0310  -8.0235   3.9981   4.0001   4.0028   5.0889
     5.8369   5.8453   5.8541   6.6887   6.7054   6.7217   7.3532   7.3568

          k = 0.2486-0.2514-0.2500 (  5150 PWs)   bands (ev):

   -64.8305 -64.8259 -64.8258 -64.8251 -31.6259 -31.6247 -31.6235 -31.6057
   -31.5939 -31.5934 -31.5928 -31.5859 -31.5830 -31.5808 -31.5733 -31.5682
    -8.7965  -8.0386  -8.0310  -8.0235   3.9981   4.0001   4.0028   5.0889
     5.8369   5.8453   5.8541   6.6887   6.7054   6.7217   7.3532   7.3568

          k =-0.2486 0.2514 0.5000 (  5138 PWs)   bands (ev):

   -64.8283 -64.8279 -64.8258 -64.8253 -31.6277 -31.6276 -31.6209 -31.6208
   -31.5930 -31.5928 -31.5803 -31.5801 -31.5796 -31.5796 -31.5746 -31.5744
    -8.3994  -8.3993  -7.9976  -7.9975   3.8214   3.8215   4.1977   4.1978
     5.8298   5.8298   6.7402   6.7405   6.8683   6.8684   7.0158   7.0158

          k =-0.2486 0.5029 0.2500 (  5140 PWs)   bands (ev):

   -64.8282 -64.8278 -64.8259 -64.8253 -31.6281 -31.6280 -31.6204 -31.6203
   -31.5944 -31.5942 -31.5802 -31.5800 -31.5779 -31.5778 -31.5755 -31.5754
    -8.3940  -8.3939  -7.9994  -7.9993   3.8200   3.8201   4.1888   4.1889
     5.8307   5.8308   6.7353   6.7355   6.8764   6.8766   7.0062   7.0063

          k = 0.4972-0.2514 0.2500 (  5138 PWs)   bands (ev):

   -64.8283 -64.8279 -64.8258 -64.8252 -31.6278 -31.6276 -31.6213 -31.6213
   -31.5911 -31.5908 -31.5825 -31.5824 -31.5790 -31.5789 -31.5745 -31.5743
    -8.4050  -8.4044  -7.9956  -7.9955   3.8225   3.8226   4.2066   4.2069
     5.8293   5.8294   6.7444   6.7446   6.8599   6.8603   7.0250   7.0254

     highest occupied level (ev):     7.6849

!    total energy              =    -608.39261607 Ry
     Harris-Foulkes estimate   =    -608.39261607 Ry
     estimated scf accuracy    <          3.4E-12 Ry

     The total energy is the sum of the following terms:

     one-electron contribution =    -303.58027967 Ry
     hartree contribution      =     168.07990241 Ry
     xc contribution           =     -97.84692513 Ry
     ewald contribution        =    -375.04531368 Ry

     convergence has been achieved in   5 iterations

     Forces acting on atoms (cartesian axes, Ry/au):

     atom    1 type  1   force =    -0.00001235   -0.00006234    0.00000015
     atom    2 type  1   force =    -0.00009752    0.00000459    0.00000024
     atom    3 type  1   force =     0.00007853    0.00001207    0.00000023
     atom    4 type  1   force =     0.00008247    0.00000224   -0.00000030
     atom    5 type  2   force =    -0.00000402   -0.00004611    0.00000010
     atom    6 type  2   force =    -0.00001299    0.00005332    0.00000010
     atom    7 type  2   force =    -0.00001091   -0.00004543   -0.00000018
     atom    8 type  2   force =    -0.00002322    0.00008167   -0.00000032

     Total force =     0.000203     Total SCF correction =     0.000007


     Computing stress (Cartesian axis) and pressure

          total   stress  (Ry/bohr**3)                   (kbar)     P=  -67.89
  -0.00052856   0.00000000  -0.00000000        -77.75      0.00     -0.00
   0.00000000  -0.00039208   0.00000000          0.00    -57.68      0.00
  -0.00000000   0.00000000  -0.00046378         -0.00      0.00    -68.22


     bfgs converged in   6 scf cycles and   5 bfgs steps
     (criteria: energy <  1.0E-05 Ry, force <  1.0E-04 Ry/Bohr)

     End of BFGS Geometry Optimization

     Final energy   =    -608.3926160720 Ry
Begin final coordinates

ATOMIC_POSITIONS (alat)
Mg      -0.001300626   0.001339345  -0.000007548
Mg      -0.001386960   0.498609862   0.500007774
Mg       0.501346319   0.001429214   0.500007787
Mg       0.501335944   0.498617842  -0.000008044
O        0.501409668   0.001434212  -0.000008109
O       -0.001406755   0.498566647  -0.000008113
O       -0.001406135   0.001431597   0.500008132
O        0.501408544   0.498571282   0.500008121
End final coordinates



     Writing output data file diamond.1.005714.70.4.save
 
     init_run     :      0.62s CPU      0.64s WALL (       1 calls)
     electrons    :     56.15s CPU     57.59s WALL (       6 calls)
     update_pot   :      0.56s CPU      0.56s WALL (       5 calls)
     forces       :      1.17s CPU      1.17s WALL (       6 calls)
     stress       :      2.59s CPU      2.60s WALL (       6 calls)

     Called by init_run:
     wfcinit      :      0.51s CPU      0.52s WALL (       1 calls)
     potinit      :      0.05s CPU      0.05s WALL (       1 calls)

     Called by electrons:
     c_bands      :     49.10s CPU     50.38s WALL (      36 calls)
     sum_band     :      6.83s CPU      6.97s WALL (      36 calls)
     v_of_rho     :      0.19s CPU      0.19s WALL (      37 calls)
     mix_rho      :      0.02s CPU      0.03s WALL (      36 calls)

     Called by c_bands:
     init_us_2    :      0.71s CPU      0.76s WALL (    3060 calls)
     cegterg      :     45.83s CPU     46.99s WALL (    1296 calls)

     Called by sum_band:

     Called by *egterg:
     h_psi        :     33.62s CPU     34.34s WALL (    4248 calls)
     g_psi        :      0.25s CPU      0.26s WALL (    2916 calls)
     cdiaghg      :      6.43s CPU      6.43s WALL (    3852 calls)

     Called by h_psi:
     h_psi:pot    :     33.49s CPU     34.17s WALL (    4248 calls)
     h_psi:calbec :      1.90s CPU      1.90s WALL (    4248 calls)
     vloc_psi     :     30.03s CPU     30.69s WALL (    4248 calls)
     add_vuspsi   :      1.55s CPU      1.56s WALL (    4248 calls)

     General routines
     calbec       :      2.52s CPU      2.52s WALL (    5328 calls)
     fft          :      0.15s CPU      0.15s WALL (     566 calls)
     fftw         :     33.92s CPU     33.58s WALL (  261690 calls)
     davcio       :      0.00s CPU      0.01s WALL (      36 calls)
 
     Parallel routines
     fft_scatter  :      8.97s CPU      8.80s WALL (  262256 calls)
 
     PWSCF        :  1m 1.58s CPU     1m 3.24s WALL

 
   This run was terminated on:  16:18:15  22Apr2018            

=------------------------------------------------------------------------------=
   JOB DONE.
=------------------------------------------------------------------------------=
