
     Program PWSCF v.6.1 (svn rev. 13369) starts on 22Apr2018 at 16:16: 8 

     This program is part of the open-source Quantum ESPRESSO suite
     for quantum simulation of materials; please cite
         "P. Giannozzi et al., J. Phys.:Condens. Matter 21 395502 (2009);
          URL http://www.quantum-espresso.org", 
     in publications or presentations arising from this work. More details at
     http://www.quantum-espresso.org/quote

     Parallel version (MPI), running on     8 processors
     R & G space division:  proc/nbgrp/npool/nimage =       8
     Waiting for input...
     Reading input from standard input
Warning: card       &CELL ignored
Warning: card       CELL_DYNAMICS = 'BFGS' ignored
Warning: card       PRESS = 0.0D0 ignored
Warning: card       PRESS_CONV_THR = 0.01D0 ignored
Warning: card       / ignored

     Current dimensions of program PWSCF are:
     Max number of different atomic species (ntypx) = 10
     Max number of k-points (npk) =  40000
     Max angular momentum in pseudopotentials (lmaxx) =  3

     Subspace diagonalization in iterative solution of the eigenvalue problem:
     a serial algorithm will be used

 
     Parallelization info
     --------------------
     sticks:   dense  smooth     PW     G-vecs:    dense   smooth      PW
     Min         180     180     52                 5154     5154     816
     Max         181     181     53                 5157     5157     819
     Sum        1445    1445    421                41239    41239    6547
 


     bravais-lattice index     =            0
     lattice parameter (alat)  =       8.0448  a.u.
     unit-cell volume          =     520.6402 (a.u.)^3
     number of atoms/cell      =            8
     number of atomic types    =            2
     number of electrons       =        64.00
     number of Kohn-Sham states=           32
     kinetic-energy cutoff     =      70.0000  Ry
     charge density cutoff     =     280.0000  Ry
     convergence threshold     =      1.0E-08
     mixing beta               =       0.7000
     number of iterations used =            8  plain     mixing
     Exchange-correlation      = PBE ( 1  4  3  4 0 0)
     nstep                     =           50


     celldm(1)=   8.044750  celldm(2)=   0.000000  celldm(3)=   0.000000
     celldm(4)=   0.000000  celldm(5)=   0.000000  celldm(6)=   0.000000

     crystal axes: (cart. coord. in units of alat)
               a(1) = (   1.005000   0.000000   0.000000 )  
               a(2) = (   0.000000   0.995000   0.000000 )  
               a(3) = (   0.000000   0.000000   1.000025 )  

     reciprocal axes: (cart. coord. in units 2 pi/alat)
               b(1) = (  0.995025  0.000000  0.000000 )  
               b(2) = (  0.000000  1.005025  0.000000 )  
               b(3) = (  0.000000  0.000000  0.999975 )  


     PseudoPot. # 1 for Mg read from file:
     ../pseudo/Mg.pbe.UPF
     MD5 check sum: 4c04d8c6e0476e83eaecaf72fa8acc4d
     Pseudo is Norm-conserving, Zval = 10.0
     Generated using ONCVPSP code by D. R. Hamann
     Using radial grid of 1510 points,  4 beta functions with: 
                l(1) =   0
                l(2) =   0
                l(3) =   1
                l(4) =   1

     PseudoPot. # 2 for O  read from file:
     ../pseudo/O.pbe.UPF
     MD5 check sum: 3e3f909f7470e8921608ab6b1f57bbae
     Pseudo is Norm-conserving + core correction, Zval =  6.0
     Generated using ONCVPSP code by D. R. Hamann
     Using radial grid of  936 points,  5 beta functions with: 
                l(1) =   0
                l(2) =   0
                l(3) =   1
                l(4) =   1
                l(5) =   2

     atomic species   valence    mass     pseudopotential
        Mg            10.00    24.30500     Mg( 1.00)
        O              6.00    15.99940     O ( 1.00)

     No symmetry found



   Cartesian axes

     site n.     atom                  positions (alat units)
         1           Mg  tau(   1) = (   0.0000000   0.0000000   0.0000000  )
         2           Mg  tau(   2) = (   0.0000000   0.5000000   0.5000000  )
         3           Mg  tau(   3) = (   0.5000000   0.0000000   0.5000000  )
         4           Mg  tau(   4) = (   0.5000000   0.5000000   0.0000000  )
         5           O   tau(   5) = (   0.5000000   0.0000000   0.0000000  )
         6           O   tau(   6) = (   0.0000000   0.5000000   0.0000000  )
         7           O   tau(   7) = (   0.0000000   0.0000000   0.5000000  )
         8           O   tau(   8) = (   0.5000000   0.5000000   0.5000000  )

     number of k points=    36
                       cart. coord. in units 2pi/alat
        k(    1) = (   0.0000000   0.0000000   0.0000000), wk =   0.0312500
        k(    2) = (   0.0000000   0.0000000   0.2499938), wk =   0.0625000
        k(    3) = (   0.0000000   0.0000000  -0.4999875), wk =   0.0312500
        k(    4) = (   0.0000000   0.2512563   0.0000000), wk =   0.0625000
        k(    5) = (   0.0000000   0.2512563   0.2499938), wk =   0.0625000
        k(    6) = (   0.0000000   0.2512563  -0.4999875), wk =   0.0625000
        k(    7) = (   0.0000000  -0.5025126   0.0000000), wk =   0.0312500
        k(    8) = (   0.0000000  -0.5025126   0.2499938), wk =   0.0625000
        k(    9) = (   0.0000000  -0.5025126  -0.4999875), wk =   0.0312500
        k(   10) = (   0.2487562   0.0000000   0.0000000), wk =   0.0625000
        k(   11) = (   0.2487562   0.0000000   0.2499938), wk =   0.0625000
        k(   12) = (   0.2487562   0.0000000  -0.4999875), wk =   0.0625000
        k(   13) = (   0.2487562   0.2512563   0.0000000), wk =   0.0625000
        k(   14) = (   0.2487562   0.2512563   0.2499938), wk =   0.0625000
        k(   15) = (   0.2487562   0.2512563  -0.4999875), wk =   0.0625000
        k(   16) = (   0.2487562  -0.5025126   0.0000000), wk =   0.0625000
        k(   17) = (   0.2487562  -0.5025126   0.2499938), wk =   0.0625000
        k(   18) = (   0.2487562  -0.5025126  -0.4999875), wk =   0.0625000
        k(   19) = (  -0.4975124   0.0000000   0.0000000), wk =   0.0312500
        k(   20) = (  -0.4975124   0.0000000   0.2499938), wk =   0.0625000
        k(   21) = (  -0.4975124   0.0000000  -0.4999875), wk =   0.0312500
        k(   22) = (  -0.4975124   0.2512563   0.0000000), wk =   0.0625000
        k(   23) = (  -0.4975124   0.2512563   0.2499938), wk =   0.0625000
        k(   24) = (  -0.4975124   0.2512563  -0.4999875), wk =   0.0625000
        k(   25) = (  -0.4975124  -0.5025126   0.0000000), wk =   0.0312500
        k(   26) = (  -0.4975124  -0.5025126   0.2499938), wk =   0.0625000
        k(   27) = (  -0.4975124  -0.5025126  -0.4999875), wk =   0.0312500
        k(   28) = (   0.0000000  -0.2512563   0.2499938), wk =   0.0625000
        k(   29) = (  -0.2487562   0.0000000   0.2499938), wk =   0.0625000
        k(   30) = (  -0.2487562   0.2512563   0.0000000), wk =   0.0625000
        k(   31) = (  -0.2487562  -0.2512563   0.2499938), wk =   0.0625000
        k(   32) = (  -0.2487562   0.2512563  -0.2499938), wk =   0.0625000
        k(   33) = (   0.2487562  -0.2512563  -0.2499938), wk =   0.0625000
        k(   34) = (  -0.2487562   0.2512563   0.4999875), wk =   0.0625000
        k(   35) = (  -0.2487562   0.5025126   0.2499938), wk =   0.0625000
        k(   36) = (   0.4975124  -0.2512563   0.2499938), wk =   0.0625000

     Dense  grid:    41239 G-vectors     FFT dimensions: (  45,  45,  45)

     Estimated max dynamical RAM per process >      17.22MB

     Estimated total allocated dynamical RAM >     137.73MB

     Check: negative/imaginary core charge=   -0.000007    0.000000

     Initial potential from superposition of free atoms

     starting charge   63.99678, renormalised to   64.00000
     Starting wfc are   36 randomized atomic wfcs

     total cpu time spent up to now is        0.8 secs

     per-process dynamical memory:    51.3 Mb

     Self-consistent Calculation

     iteration #  1     ecut=    70.00 Ry     beta=0.70
     Davidson diagonalization with overlap
     ethr =  1.00E-02,  avg # of iterations =  2.0

     total cpu time spent up to now is        2.3 secs

     total energy              =    -607.72099543 Ry
     Harris-Foulkes estimate   =    -608.84388118 Ry
     estimated scf accuracy    <       1.56045505 Ry

     iteration #  2     ecut=    70.00 Ry     beta=0.70
     Davidson diagonalization with overlap
     ethr =  2.44E-03,  avg # of iterations =  2.9

     total cpu time spent up to now is        3.9 secs

     total energy              =    -608.10593910 Ry
     Harris-Foulkes estimate   =    -608.80217736 Ry
     estimated scf accuracy    <       1.44500250 Ry

     iteration #  3     ecut=    70.00 Ry     beta=0.70
     Davidson diagonalization with overlap
     ethr =  2.26E-03,  avg # of iterations =  2.0

     total cpu time spent up to now is        5.4 secs

     total energy              =    -608.39097111 Ry
     Harris-Foulkes estimate   =    -608.39164370 Ry
     estimated scf accuracy    <       0.00676675 Ry

     iteration #  4     ecut=    70.00 Ry     beta=0.70
     Davidson diagonalization with overlap
     ethr =  1.06E-05,  avg # of iterations =  2.0

     total cpu time spent up to now is        6.9 secs

     total energy              =    -608.39245087 Ry
     Harris-Foulkes estimate   =    -608.39249430 Ry
     estimated scf accuracy    <       0.00010882 Ry

     iteration #  5     ecut=    70.00 Ry     beta=0.70
     Davidson diagonalization with overlap
     ethr =  1.70E-07,  avg # of iterations =  1.9

     total cpu time spent up to now is        8.2 secs

     total energy              =    -608.39245855 Ry
     Harris-Foulkes estimate   =    -608.39245688 Ry
     estimated scf accuracy    <       0.00001015 Ry

     iteration #  6     ecut=    70.00 Ry     beta=0.70
     Davidson diagonalization with overlap
     ethr =  1.59E-08,  avg # of iterations =  2.0

     total cpu time spent up to now is        9.9 secs

     total energy              =    -608.39245996 Ry
     Harris-Foulkes estimate   =    -608.39246039 Ry
     estimated scf accuracy    <       0.00000095 Ry

     iteration #  7     ecut=    70.00 Ry     beta=0.70
     Davidson diagonalization with overlap
     ethr =  1.48E-09,  avg # of iterations =  2.0

     total cpu time spent up to now is       11.3 secs

     total energy              =    -608.39246001 Ry
     Harris-Foulkes estimate   =    -608.39246009 Ry
     estimated scf accuracy    <       0.00000022 Ry

     iteration #  8     ecut=    70.00 Ry     beta=0.70
     Davidson diagonalization with overlap
     ethr =  3.49E-10,  avg # of iterations =  2.0

     total cpu time spent up to now is       12.7 secs

     total energy              =    -608.39246000 Ry
     Harris-Foulkes estimate   =    -608.39246003 Ry
     estimated scf accuracy    <       0.00000005 Ry

     iteration #  9     ecut=    70.00 Ry     beta=0.70
     Davidson diagonalization with overlap
     ethr =  7.81E-11,  avg # of iterations =  2.0

     total cpu time spent up to now is       14.4 secs

     End of self-consistent calculation

          k = 0.0000 0.0000 0.0000 (  5153 PWs)   bands (ev):

   -64.8337 -64.8243 -64.8241 -64.8234 -31.6327 -31.6302 -31.6276 -31.5958
   -31.5946 -31.5938 -31.5914 -31.5906 -31.5895 -31.5678 -31.5630 -31.5604
    -9.3654  -7.9274  -7.9144  -7.9013   3.7417   3.7573   3.7745   6.3442
     6.3491   6.3751   6.3840   6.4112   6.4152   7.6600   7.6724   7.6829

          k = 0.0000 0.0000 0.2500 (  5157 PWs)   bands (ev):

   -64.8322 -64.8254 -64.8242 -64.8235 -31.6267 -31.6208 -31.6199 -31.6014
   -31.5941 -31.5937 -31.5918 -31.5909 -31.5855 -31.5773 -31.5734 -31.5675
    -9.1569  -8.1292  -7.8952  -7.8766   4.0330   4.0637   4.0946   5.8495
     5.8658   6.1456   6.1942   6.5147   6.5719   6.6588   7.4346   7.4653

          k = 0.0000 0.0000-0.5000 (  5134 PWs)   bands (ev):

   -64.8290 -64.8286 -64.8242 -64.8236 -31.6134 -31.6131 -31.6062 -31.6059
   -31.6010 -31.6010 -31.5906 -31.5906 -31.5822 -31.5819 -31.5773 -31.5771
    -8.6467  -8.6465  -7.8572  -7.8571   4.8341   4.8343   4.8598   4.8600
     5.1226   5.1229   5.9724   5.9728   6.9452   6.9453   6.9914   6.9915

          k = 0.0000 0.2513 0.0000 (  5161 PWs)   bands (ev):

   -64.8322 -64.8253 -64.8243 -64.8236 -31.6266 -31.6234 -31.6177 -31.6002
   -31.5965 -31.5921 -31.5901 -31.5894 -31.5893 -31.5746 -31.5735 -31.5708
    -9.1541  -8.1166  -7.8955  -7.8862   4.0364   4.0509   4.1033   5.8776
     5.8851   6.1388   6.1629   6.5107   6.5398   6.6480   7.4434   7.4585

          k = 0.0000 0.2513 0.2500 (  5155 PWs)   bands (ev):

   -64.8310 -64.8253 -64.8250 -64.8240 -31.6217 -31.6201 -31.6177 -31.6049
   -31.5974 -31.5961 -31.5904 -31.5859 -31.5844 -31.5834 -31.5775 -31.5658
    -8.9643  -8.0642  -8.0549  -7.8971   4.1576   4.1625   4.3171   5.0713
     5.8322   6.0493   6.0741   6.4614   6.4698   6.6003   7.1841   7.5032

          k = 0.0000 0.2513-0.5000 (  5146 PWs)   bands (ev):

   -64.8283 -64.8279 -64.8249 -64.8243 -31.6150 -31.6148 -31.6098 -31.6096
   -31.6081 -31.6080 -31.5871 -31.5869 -31.5817 -31.5817 -31.5720 -31.5718
    -8.5088  -8.5086  -7.9457  -7.9456   4.4111   4.4112   4.7387   4.7390
     5.0875   5.0877   6.5568   6.5571   6.5928   6.5929   7.0852   7.0853

          k = 0.0000-0.5025 0.0000 (  5126 PWs)   bands (ev):

   -64.8290 -64.8284 -64.8243 -64.8237 -31.6133 -31.6120 -31.6092 -31.6077
   -31.5986 -31.5968 -31.5883 -31.5882 -31.5830 -31.5821 -31.5806 -31.5797
    -8.6514  -8.6241  -7.8607  -7.8604   4.8265   4.8392   4.8692   4.8821
     5.1093   5.1268   5.9473   5.9476   6.9343   6.9576   6.9608   6.9836

          k = 0.0000-0.5025 0.2500 (  5150 PWs)   bands (ev):

   -64.8283 -64.8278 -64.8249 -64.8243 -31.6164 -31.6156 -31.6098 -31.6087
   -31.6079 -31.6070 -31.5881 -31.5871 -31.5803 -31.5799 -31.5734 -31.5733
    -8.5148  -8.4908  -7.9510  -7.9466   4.4022   4.4188   4.7254   4.7448
     5.0771   5.1186   6.5345   6.5506   6.5644   6.5941   7.0863   7.0946

          k = 0.0000-0.5025-0.5000 (  5168 PWs)   bands (ev):

   -64.8267 -64.8266 -64.8265 -64.8256 -31.6176 -31.6175 -31.6169 -31.6169
   -31.5996 -31.5993 -31.5985 -31.5982 -31.5729 -31.5728 -31.5723 -31.5722
    -8.2100  -8.2099  -8.1950  -8.1949   4.2703   4.2704   4.2778   4.2779
     5.7506   5.7508   5.7878   5.7879   7.0643   7.0645   7.0766   7.0767

          k = 0.2488 0.0000 0.0000 (  5164 PWs)   bands (ev):

   -64.8323 -64.8256 -64.8241 -64.8235 -31.6241 -31.6233 -31.6208 -31.5982
   -31.5961 -31.5952 -31.5944 -31.5879 -31.5846 -31.5817 -31.5707 -31.5676
    -9.1598  -8.1416  -7.8855  -7.8762   4.0445   4.0606   4.0857   5.8304
     5.8392   6.1774   6.2020   6.5457   6.5738   6.6680   7.4414   7.4570

          k = 0.2488 0.0000 0.2500 (  5155 PWs)   bands (ev):

   -64.8310 -64.8254 -64.8250 -64.8239 -31.6228 -31.6205 -31.6160 -31.6082
   -31.5932 -31.5906 -31.5897 -31.5892 -31.5883 -31.5857 -31.5708 -31.5693
    -8.9693  -8.0739  -8.0648  -7.8846   4.1598   4.1637   4.3395   5.0706
     5.8614   6.0371   6.0603   6.4995   6.5067   6.5675   7.1624   7.5069

          k = 0.2488 0.0000-0.5000 (  5142 PWs)   bands (ev):

   -64.8283 -64.8279 -64.8249 -64.8243 -31.6181 -31.6179 -31.6098 -31.6097
   -31.6022 -31.6020 -31.5841 -31.5840 -31.5811 -31.5809 -31.5773 -31.5771
    -8.5119  -8.5118  -7.9494  -7.9493   4.4252   4.4253   4.7624   4.7626
     5.1050   5.1052   6.5340   6.5343   6.5624   6.5626   7.1025   7.1026

          k = 0.2488 0.2513 0.0000 (  5147 PWs)   bands (ev):

   -64.8310 -64.8254 -64.8250 -64.8240 -31.6230 -31.6186 -31.6175 -31.6067
   -31.5937 -31.5923 -31.5921 -31.5878 -31.5860 -31.5836 -31.5745 -31.5670
    -8.9668  -8.0736  -8.0551  -7.8908   4.1567   4.1658   4.3278   5.0712
     5.8466   6.0315   6.0791   6.4756   6.4921   6.5851   7.1734   7.5049

          k = 0.2488 0.2513 0.2500 (  5152 PWs)   bands (ev):

   -64.8300 -64.8254 -64.8253 -64.8246 -31.6254 -31.6245 -31.6232 -31.6053
   -31.5934 -31.5930 -31.5924 -31.5853 -31.5828 -31.5809 -31.5726 -31.5681
    -8.7970  -8.0378  -8.0313  -8.0246   3.9982   3.9998   4.0023   5.0887
     5.8379   5.8451   5.8529   6.6906   6.7055   6.7194   7.3533   7.3565

          k = 0.2488 0.2513-0.5000 (  5138 PWs)   bands (ev):

   -64.8278 -64.8274 -64.8254 -64.8247 -31.6273 -31.6272 -31.6206 -31.6204
   -31.5926 -31.5923 -31.5798 -31.5795 -31.5792 -31.5792 -31.5745 -31.5743
    -8.3999  -8.3997  -7.9977  -7.9976   3.8212   3.8213   4.1975   4.1977
     5.8297   5.8298   6.7395   6.7398   6.8682   6.8687   7.0158   7.0160

          k = 0.2488-0.5025 0.0000 (  5158 PWs)   bands (ev):

   -64.8283 -64.8278 -64.8249 -64.8243 -31.6181 -31.6173 -31.6090 -31.6082
   -31.6062 -31.6049 -31.5853 -31.5842 -31.5818 -31.5813 -31.5762 -31.5760
    -8.5164  -8.4924  -7.9530  -7.9481   4.4097   4.4264   4.7375   4.7568
     5.0847   5.1262   6.5251   6.5405   6.5470   6.5775   7.0949   7.1028

          k = 0.2488-0.5025 0.2500 (  5140 PWs)   bands (ev):

   -64.8278 -64.8273 -64.8254 -64.8248 -31.6277 -31.6275 -31.6202 -31.6200
   -31.5937 -31.5934 -31.5798 -31.5792 -31.5777 -31.5777 -31.5754 -31.5752
    -8.4052  -8.3847  -7.9994  -7.9992   3.8199   3.8201   4.1799   4.1999
     5.8302   5.8307   6.7357   6.7360   6.8711   6.8798   6.9979   7.0169

          k = 0.2488-0.5025-0.5000 (  5136 PWs)   bands (ev):

   -64.8266 -64.8266 -64.8265 -64.8256 -31.6307 -31.6305 -31.6305 -31.6304
   -31.5847 -31.5845 -31.5841 -31.5840 -31.5726 -31.5724 -31.5722 -31.5721
    -8.1720  -8.1719  -8.1613  -8.1612   3.6287   3.6288   3.6388   3.6389
     6.5071   6.5072   6.5289   6.5290   7.0669   7.0670   7.0755   7.0756

          k =-0.4975 0.0000 0.0000 (  5150 PWs)   bands (ev):

   -64.8292 -64.8286 -64.8241 -64.8235 -31.6102 -31.6088 -31.6076 -31.6061
   -31.6044 -31.6028 -31.5960 -31.5960 -31.5795 -31.5787 -31.5771 -31.5763
    -8.6687  -8.6418  -7.8537  -7.8534   4.8129   4.8257   4.8549   4.8677
     5.1192   5.1346   5.9972   5.9974   6.9527   6.9760   6.9784   7.0013

          k =-0.4975 0.0000 0.2500 (  5148 PWs)   bands (ev):

   -64.8284 -64.8279 -64.8248 -64.8242 -31.6174 -31.6167 -31.6116 -31.6107
   -31.6033 -31.6020 -31.5859 -31.5854 -31.5812 -31.5802 -31.5756 -31.5754
    -8.5294  -8.5056  -7.9486  -7.9437   4.4167   4.4337   4.7572   4.7750
     5.0752   5.1159   6.5406   6.5567   6.5615   6.5900   7.0934   7.1004

          k =-0.4975 0.0000-0.5000 (  5176 PWs)   bands (ev):

   -64.8267 -64.8266 -64.8265 -64.8256 -31.6191 -31.6189 -31.6184 -31.6183
   -31.5930 -31.5928 -31.5920 -31.5917 -31.5777 -31.5776 -31.5771 -31.5770
    -8.2170  -8.2169  -8.2018  -8.2017   4.3085   4.3086   4.3152   4.3154
     5.7480   5.7482   5.7844   5.7846   7.0489   7.0491   7.0616   7.0618

          k =-0.4975 0.2513 0.0000 (  5156 PWs)   bands (ev):

   -64.8284 -64.8279 -64.8248 -64.8242 -31.6163 -31.6156 -31.6110 -31.6101
   -31.6071 -31.6059 -31.5847 -31.5843 -31.5839 -31.5830 -31.5731 -31.5729
    -8.5278  -8.5041  -7.9465  -7.9420   4.4102   4.4270   4.7455   4.7635
     5.0653   5.1060   6.5546   6.5692   6.5742   6.6037   7.0843   7.0916

          k =-0.4975 0.2513 0.2500 (  5134 PWs)   bands (ev):

   -64.8279 -64.8274 -64.8253 -64.8247 -31.6272 -31.6270 -31.6210 -31.6207
   -31.5908 -31.5906 -31.5817 -31.5816 -31.5784 -31.5783 -31.5746 -31.5740
    -8.4145  -8.3942  -7.9961  -7.9959   3.8222   3.8223   4.1960   4.2151
     5.8290   5.8294   6.7436   6.7439   6.8574   6.8649   7.0148   7.0332

          k =-0.4975 0.2513-0.5000 (  5164 PWs)   bands (ev):

   -64.8266 -64.8266 -64.8265 -64.8256 -31.6317 -31.6315 -31.6314 -31.6313
   -31.5810 -31.5807 -31.5806 -31.5803 -31.5767 -31.5765 -31.5763 -31.5763
    -8.1757  -8.1755  -8.1648  -8.1647   3.6413   3.6414   3.6512   3.6513
     6.5193   6.5194   6.5402   6.5403   7.0517   7.0519   7.0608   7.0610

          k =-0.4975-0.5025 0.0000 (  5196 PWs)   bands (ev):

   -64.8267 -64.8266 -64.8265 -64.8256 -31.6188 -31.6183 -31.6180 -31.6176
   -31.5975 -31.5965 -31.5964 -31.5953 -31.5758 -31.5754 -31.5751 -31.5747
    -8.2210  -8.2059  -8.2055  -8.1909   4.2861   4.2928   4.2934   4.3003
     5.7299   5.7664   5.7674   5.8036   7.0501   7.0627   7.0629   7.0750

          k =-0.4975-0.5025 0.2500 (  5144 PWs)   bands (ev):

   -64.8267 -64.8266 -64.8265 -64.8256 -31.6313 -31.6310 -31.6309 -31.6309
   -31.5831 -31.5827 -31.5826 -31.5822 -31.5742 -31.5740 -31.5737 -31.5736
    -8.1793  -8.1683  -8.1680  -8.1577   3.6301   3.6398   3.6403   3.6501
     6.5025   6.5237   6.5243   6.5451   7.0549   7.0639   7.0640   7.0724

          k =-0.4975-0.5025-0.5000 (  5136 PWs)   bands (ev):

   -64.8266 -64.8266 -64.8266 -64.8256 -31.6391 -31.6388 -31.6388 -31.6388
   -31.5769 -31.5767 -31.5767 -31.5766 -31.5718 -31.5715 -31.5715 -31.5714
    -8.1305  -8.1303  -8.1301  -8.1300   3.2172   3.2173   3.2174   3.2174
     7.0560   7.0561   7.0563   7.0564   7.0730   7.0731   7.0733   7.0734

          k = 0.0000-0.2513 0.2500 (  5155 PWs)   bands (ev):

   -64.8310 -64.8253 -64.8250 -64.8240 -31.6217 -31.6201 -31.6177 -31.6049
   -31.5974 -31.5961 -31.5904 -31.5859 -31.5844 -31.5834 -31.5775 -31.5658
    -8.9643  -8.0642  -8.0549  -7.8971   4.1576   4.1625   4.3171   5.0713
     5.8322   6.0493   6.0741   6.4614   6.4698   6.6003   7.1841   7.5032

          k =-0.2488 0.0000 0.2500 (  5155 PWs)   bands (ev):

   -64.8310 -64.8254 -64.8250 -64.8239 -31.6228 -31.6205 -31.6160 -31.6082
   -31.5932 -31.5906 -31.5897 -31.5892 -31.5883 -31.5857 -31.5708 -31.5693
    -8.9693  -8.0739  -8.0648  -7.8846   4.1598   4.1637   4.3395   5.0706
     5.8614   6.0371   6.0603   6.4995   6.5067   6.5675   7.1624   7.5069

          k =-0.2488 0.2513 0.0000 (  5147 PWs)   bands (ev):

   -64.8310 -64.8254 -64.8250 -64.8240 -31.6230 -31.6186 -31.6175 -31.6067
   -31.5937 -31.5923 -31.5921 -31.5878 -31.5860 -31.5836 -31.5745 -31.5670
    -8.9668  -8.0736  -8.0551  -7.8908   4.1567   4.1658   4.3278   5.0712
     5.8466   6.0315   6.0791   6.4756   6.4921   6.5851   7.1734   7.5049

          k =-0.2488-0.2513 0.2500 (  5152 PWs)   bands (ev):

   -64.8300 -64.8254 -64.8253 -64.8246 -31.6254 -31.6245 -31.6232 -31.6053
   -31.5934 -31.5930 -31.5924 -31.5853 -31.5828 -31.5809 -31.5726 -31.5681
    -8.7970  -8.0378  -8.0313  -8.0246   3.9982   3.9998   4.0023   5.0887
     5.8379   5.8451   5.8529   6.6906   6.7055   6.7194   7.3533   7.3565

          k =-0.2488 0.2513-0.2500 (  5152 PWs)   bands (ev):

   -64.8300 -64.8254 -64.8253 -64.8246 -31.6254 -31.6245 -31.6232 -31.6053
   -31.5934 -31.5930 -31.5924 -31.5853 -31.5828 -31.5809 -31.5727 -31.5681
    -8.7970  -8.0378  -8.0313  -8.0246   3.9982   3.9998   4.0023   5.0887
     5.8379   5.8451   5.8529   6.6906   6.7055   6.7194   7.3533   7.3565

          k = 0.2488-0.2513-0.2500 (  5152 PWs)   bands (ev):

   -64.8300 -64.8254 -64.8253 -64.8246 -31.6254 -31.6245 -31.6232 -31.6053
   -31.5934 -31.5930 -31.5924 -31.5853 -31.5828 -31.5809 -31.5727 -31.5681
    -8.7970  -8.0378  -8.0313  -8.0246   3.9982   3.9998   4.0023   5.0887
     5.8379   5.8451   5.8529   6.6906   6.7055   6.7194   7.3533   7.3565

          k =-0.2488 0.2513 0.5000 (  5138 PWs)   bands (ev):

   -64.8278 -64.8274 -64.8254 -64.8247 -31.6274 -31.6271 -31.6205 -31.6205
   -31.5926 -31.5923 -31.5797 -31.5796 -31.5793 -31.5791 -31.5745 -31.5743
    -8.3999  -8.3997  -7.9977  -7.9976   3.8211   3.8214   4.1975   4.1977
     5.8297   5.8298   6.7396   6.7398   6.8683   6.8685   7.0159   7.0160

          k =-0.2488 0.5025 0.2500 (  5140 PWs)   bands (ev):

   -64.8278 -64.8273 -64.8254 -64.8248 -31.6277 -31.6275 -31.6202 -31.6200
   -31.5937 -31.5934 -31.5798 -31.5792 -31.5777 -31.5777 -31.5754 -31.5752
    -8.4052  -8.3847  -7.9994  -7.9992   3.8200   3.8201   4.1799   4.1999
     5.8302   5.8307   6.7357   6.7360   6.8711   6.8798   6.9979   7.0169

          k = 0.4975-0.2513 0.2500 (  5134 PWs)   bands (ev):

   -64.8279 -64.8274 -64.8253 -64.8247 -31.6272 -31.6270 -31.6210 -31.6207
   -31.5908 -31.5906 -31.5817 -31.5816 -31.5784 -31.5783 -31.5746 -31.5740
    -8.4145  -8.3942  -7.9961  -7.9959   3.8222   3.8223   4.1960   4.2151
     5.8290   5.8294   6.7436   6.7439   6.8574   6.8649   7.0148   7.0332

     highest occupied level (ev):     7.6829

!    total energy              =    -608.39246001 Ry
     Harris-Foulkes estimate   =    -608.39246001 Ry
     estimated scf accuracy    <          2.7E-09 Ry

     The total energy is the sum of the following terms:

     one-electron contribution =    -303.61727524 Ry
     hartree contribution      =     168.09853014 Ry
     xc contribution           =     -97.84727852 Ry
     ewald contribution        =    -375.02643639 Ry

     convergence has been achieved in   9 iterations

     Forces acting on atoms (cartesian axes, Ry/au):

     atom    1 type  1   force =    -0.00257398    0.00290035   -0.00001449
     atom    2 type  1   force =    -0.00257531   -0.00285805    0.00001390
     atom    3 type  1   force =     0.00252936    0.00290252    0.00001391
     atom    4 type  1   force =     0.00250339   -0.00283648   -0.00001405
     atom    5 type  2   force =     0.00301235    0.00327439   -0.00001577
     atom    6 type  2   force =    -0.00296065   -0.00332197   -0.00001582
     atom    7 type  2   force =    -0.00296052    0.00327414    0.00001601
     atom    8 type  2   force =     0.00302535   -0.00333490    0.00001630

     Total force =     0.011761     Total SCF correction =     0.000050


     Computing stress (Cartesian axis) and pressure

          total   stress  (Ry/bohr**3)                   (kbar)     P=  -67.70
  -0.00051805   0.00000001  -0.00000000        -76.21      0.00     -0.00
   0.00000001  -0.00039872   0.00000000          0.00    -58.65      0.00
  -0.00000000   0.00000000  -0.00046381         -0.00      0.00    -68.23


     BFGS Geometry Optimization

     number of scf cycles    =   1
     number of bfgs steps    =   0

     energy   new            =    -608.3924600076 Ry

     new trust radius        =       0.0045027327 bohr
     new conv_thr            =       0.0000000100 Ry


ATOMIC_POSITIONS (alat)
Mg      -0.000319958   0.000360528  -0.000001802
Mg      -0.000320123   0.499644731   0.500001728
Mg       0.500314412   0.000360797   0.500001730
Mg       0.500311183   0.499647413  -0.000001746
O        0.500374450   0.000407022  -0.000001960
O       -0.000368022   0.499587064  -0.000001967
O       -0.000368007   0.000406990   0.500001990
O        0.500376065   0.499585456   0.500002027



     Writing output data file diamond.1.005.70.4.save
     NEW-OLD atomic charge density approx. for the potential

     Check: negative/imaginary core charge=   -0.000007    0.000000

     total cpu time spent up to now is       15.3 secs

     per-process dynamical memory:    52.1 Mb

     Self-consistent Calculation

     iteration #  1     ecut=    70.00 Ry     beta=0.70
     Davidson diagonalization with overlap
     ethr =  1.00E-06,  avg # of iterations =  3.0

     Threshold (ethr) on eigenvalues was too large:
     Diagonalizing with lowered threshold

     Davidson diagonalization with overlap
     ethr =  4.01E-08,  avg # of iterations =  1.1

     total cpu time spent up to now is       18.7 secs

     total energy              =    -608.39256849 Ry
     Harris-Foulkes estimate   =    -608.39258732 Ry
     estimated scf accuracy    <       0.00002565 Ry

     iteration #  2     ecut=    70.00 Ry     beta=0.70
     Davidson diagonalization with overlap
     ethr =  4.01E-08,  avg # of iterations =  2.3

     total cpu time spent up to now is       20.2 secs

     total energy              =    -608.39257628 Ry
     Harris-Foulkes estimate   =    -608.39257894 Ry
     estimated scf accuracy    <       0.00000443 Ry

     iteration #  3     ecut=    70.00 Ry     beta=0.70
     Davidson diagonalization with overlap
     ethr =  6.92E-09,  avg # of iterations =  2.0

     total cpu time spent up to now is       21.7 secs

     total energy              =    -608.39257723 Ry
     Harris-Foulkes estimate   =    -608.39257722 Ry
     estimated scf accuracy    <       0.00000003 Ry

     iteration #  4     ecut=    70.00 Ry     beta=0.70
     Davidson diagonalization with overlap
     ethr =  4.50E-11,  avg # of iterations =  2.7

     total cpu time spent up to now is       23.4 secs

     End of self-consistent calculation

          k = 0.0000 0.0000 0.0000 (  5153 PWs)   bands (ev):

   -64.8341 -64.8247 -64.8245 -64.8238 -31.6330 -31.6305 -31.6280 -31.5961
   -31.5949 -31.5941 -31.5918 -31.5910 -31.5898 -31.5681 -31.5634 -31.5607
    -9.3652  -7.9273  -7.9142  -7.9013   3.7418   3.7575   3.7745   6.3442
     6.3490   6.3752   6.3841   6.4112   6.4152   7.6602   7.6724   7.6830

          k = 0.0000 0.0000 0.2500 (  5157 PWs)   bands (ev):

   -64.8326 -64.8258 -64.8246 -64.8239 -31.6270 -31.6211 -31.6202 -31.6018
   -31.5944 -31.5940 -31.5921 -31.5913 -31.5858 -31.5777 -31.5737 -31.5679
    -9.1568  -8.1291  -7.8951  -7.8766   4.0331   4.0637   4.0948   5.8496
     5.8659   6.1459   6.1945   6.5145   6.5718   6.6588   7.4347   7.4653

          k = 0.0000 0.0000-0.5000 (  5134 PWs)   bands (ev):

   -64.8294 -64.8290 -64.8246 -64.8240 -31.6137 -31.6134 -31.6064 -31.6062
   -31.6014 -31.6014 -31.5909 -31.5909 -31.5825 -31.5823 -31.5777 -31.5774
    -8.6466  -8.6464  -7.8572  -7.8570   4.8343   4.8344   4.8599   4.8601
     5.1225   5.1229   5.9727   5.9731   6.9451   6.9452   6.9913   6.9914

          k = 0.0000 0.2513 0.0000 (  5161 PWs)   bands (ev):

   -64.8326 -64.8257 -64.8247 -64.8240 -31.6269 -31.6237 -31.6180 -31.6005
   -31.5968 -31.5924 -31.5904 -31.5897 -31.5896 -31.5750 -31.5738 -31.5711
    -9.1539  -8.1166  -7.8955  -7.8861   4.0365   4.0512   4.1033   5.8774
     5.8851   6.1389   6.1630   6.5108   6.5398   6.6481   7.4434   7.4584

          k = 0.0000 0.2513 0.2500 (  5155 PWs)   bands (ev):

   -64.8314 -64.8257 -64.8254 -64.8244 -31.6220 -31.6204 -31.6180 -31.6053
   -31.5977 -31.5964 -31.5907 -31.5862 -31.5847 -31.5838 -31.5778 -31.5661
    -8.9641  -8.0641  -8.0548  -7.8971   4.1578   4.1625   4.3172   5.0714
     5.8323   6.0494   6.0740   6.4615   6.4698   6.6002   7.1840   7.5032

          k = 0.0000 0.2513-0.5000 (  5146 PWs)   bands (ev):

   -64.8287 -64.8283 -64.8253 -64.8247 -31.6153 -31.6151 -31.6099 -31.6097
   -31.6086 -31.6085 -31.5874 -31.5872 -31.5821 -31.5820 -31.5723 -31.5721
    -8.5086  -8.5084  -7.9457  -7.9455   4.4112   4.4113   4.7389   4.7391
     5.0875   5.0877   6.5577   6.5580   6.5920   6.5921   7.0851   7.0852

          k = 0.0000-0.5025 0.0000 (  5126 PWs)   bands (ev):

   -64.8294 -64.8288 -64.8246 -64.8241 -31.6134 -31.6125 -31.6093 -31.6082
   -31.5987 -31.5974 -31.5885 -31.5885 -31.5832 -31.5826 -31.5808 -31.5802
    -8.6469  -8.6284  -7.8606  -7.8604   4.8333   4.8462   4.8625   4.8754
     5.1121   5.1240   5.9474   5.9478   6.9385   6.9566   6.9617   6.9794

          k = 0.0000-0.5025 0.2500 (  5150 PWs)   bands (ev):

   -64.8287 -64.8282 -64.8253 -64.8247 -31.6166 -31.6161 -31.6098 -31.6089
   -31.6083 -31.6076 -31.5883 -31.5876 -31.5805 -31.5802 -31.5737 -31.5736
    -8.5109  -8.4945  -7.9502  -7.9472   4.4049   4.4163   4.7287   4.7417
     5.0835   5.1119   6.5381   6.5488   6.5683   6.5886   7.0877   7.0933

          k = 0.0000-0.5025-0.5000 (  5168 PWs)   bands (ev):

   -64.8270 -64.8270 -64.8269 -64.8260 -31.6178 -31.6177 -31.6173 -31.6172
   -31.5998 -31.5995 -31.5990 -31.5987 -31.5732 -31.5730 -31.5727 -31.5726
    -8.2075  -8.2074  -8.1973  -8.1972   4.2717   4.2718   4.2766   4.2767
     5.7565   5.7566   5.7818   5.7820   7.0664   7.0666   7.0747   7.0748

          k = 0.2488 0.0000 0.0000 (  5164 PWs)   bands (ev):

   -64.8327 -64.8259 -64.8245 -64.8239 -31.6244 -31.6236 -31.6211 -31.5985
   -31.5964 -31.5955 -31.5947 -31.5883 -31.5849 -31.5820 -31.5710 -31.5679
    -9.1596  -8.1415  -7.8854  -7.8761   4.0448   4.0607   4.0857   5.8304
     5.8390   6.1776   6.2022   6.5456   6.5739   6.6680   7.4413   7.4569

          k = 0.2488 0.0000 0.2500 (  5155 PWs)   bands (ev):

   -64.8314 -64.8258 -64.8254 -64.8243 -31.6231 -31.6208 -31.6163 -31.6085
   -31.5936 -31.5910 -31.5900 -31.5895 -31.5887 -31.5861 -31.5711 -31.5697
    -8.9691  -8.0739  -8.0647  -7.8845   4.1599   4.1639   4.3396   5.0707
     5.8615   6.0370   6.0604   6.4995   6.5071   6.5671   7.1624   7.5070

          k = 0.2488 0.0000-0.5000 (  5142 PWs)   bands (ev):

   -64.8287 -64.8283 -64.8253 -64.8247 -31.6184 -31.6182 -31.6100 -31.6100
   -31.6026 -31.6023 -31.5844 -31.5843 -31.5815 -31.5812 -31.5776 -31.5774
    -8.5118  -8.5116  -7.9494  -7.9492   4.4253   4.4254   4.7626   4.7628
     5.1050   5.1052   6.5353   6.5355   6.5612   6.5613   7.1025   7.1025

          k = 0.2488 0.2513 0.0000 (  5147 PWs)   bands (ev):

   -64.8314 -64.8258 -64.8254 -64.8243 -31.6233 -31.6190 -31.6178 -31.6071
   -31.5941 -31.5927 -31.5924 -31.5882 -31.5863 -31.5840 -31.5748 -31.5673
    -8.9666  -8.0735  -8.0551  -7.8907   4.1568   4.1658   4.3281   5.0712
     5.8467   6.0316   6.0791   6.4759   6.4923   6.5845   7.1733   7.5050

          k = 0.2488 0.2513 0.2500 (  5152 PWs)   bands (ev):

   -64.8304 -64.8258 -64.8257 -64.8250 -31.6257 -31.6248 -31.6235 -31.6056
   -31.5937 -31.5933 -31.5928 -31.5856 -31.5831 -31.5812 -31.5730 -31.5684
    -8.7968  -8.0378  -8.0312  -8.0246   3.9983   3.9999   4.0024   5.0888
     5.8379   5.8452   5.8529   6.6906   6.7054   6.7194   7.3533   7.3565

          k = 0.2488 0.2513-0.5000 (  5138 PWs)   bands (ev):

   -64.8282 -64.8278 -64.8258 -64.8251 -31.6276 -31.6275 -31.6209 -31.6207
   -31.5929 -31.5927 -31.5801 -31.5798 -31.5796 -31.5796 -31.5748 -31.5746
    -8.3997  -8.3995  -7.9977  -7.9976   3.8213   3.8213   4.1975   4.1977
     5.8297   5.8298   6.7398   6.7401   6.8682   6.8685   7.0157   7.0158

          k = 0.2488-0.5025 0.0000 (  5158 PWs)   bands (ev):

   -64.8287 -64.8282 -64.8253 -64.8247 -31.6183 -31.6177 -31.6092 -31.6087
   -31.6064 -31.6054 -31.5855 -31.5847 -31.5820 -31.5817 -31.5765 -31.5764
    -8.5125  -8.4961  -7.9522  -7.9488   4.4123   4.4238   4.7407   4.7537
     5.0915   5.1198   6.5276   6.5381   6.5518   6.5726   7.0962   7.1016

          k = 0.2488-0.5025 0.2500 (  5140 PWs)   bands (ev):

   -64.8282 -64.8277 -64.8258 -64.8252 -31.6280 -31.6278 -31.6205 -31.6203
   -31.5940 -31.5938 -31.5800 -31.5796 -31.5781 -31.5780 -31.5757 -31.5755
    -8.4018  -8.3879  -7.9993  -7.9992   3.8200   3.8201   4.1831   4.1966
     5.8304   5.8307   6.7357   6.7360   6.8724   6.8785   7.0009   7.0138

          k = 0.2488-0.5025-0.5000 (  5136 PWs)   bands (ev):

   -64.8270 -64.8269 -64.8269 -64.8260 -31.6310 -31.6308 -31.6308 -31.6307
   -31.5849 -31.5847 -31.5845 -31.5844 -31.5729 -31.5727 -31.5726 -31.5725
    -8.1702  -8.1701  -8.1629  -8.1628   3.6304   3.6305   3.6372   3.6373
     6.5106   6.5107   6.5254   6.5255   7.0683   7.0685   7.0741   7.0743

          k =-0.4975 0.0000 0.0000 (  5150 PWs)   bands (ev):

   -64.8295 -64.8290 -64.8245 -64.8239 -31.6103 -31.6093 -31.6076 -31.6066
   -31.6046 -31.6034 -31.5963 -31.5963 -31.5798 -31.5792 -31.5774 -31.5767
    -8.6647  -8.6455  -7.8536  -7.8534   4.8190   4.8317   4.8490   4.8617
     5.1214   5.1324   5.9973   5.9976   6.9563   6.9746   6.9797   6.9977

          k =-0.4975 0.0000 0.2500 (  5148 PWs)   bands (ev):

   -64.8288 -64.8283 -64.8252 -64.8246 -31.6176 -31.6171 -31.6118 -31.6111
   -31.6035 -31.6025 -31.5861 -31.5858 -31.5814 -31.5807 -31.5760 -31.5758
    -8.5259  -8.5089  -7.9478  -7.9443   4.4192   4.4314   4.7600   4.7725
     5.0809   5.1099   6.5445   6.5554   6.5641   6.5848   7.0944   7.0995

          k =-0.4975 0.0000-0.5000 (  5176 PWs)   bands (ev):

   -64.8270 -64.8270 -64.8269 -64.8260 -31.6193 -31.6192 -31.6188 -31.6187
   -31.5932 -31.5930 -31.5924 -31.5922 -31.5780 -31.5778 -31.5775 -31.5774
    -8.2147  -8.2146  -8.2039  -8.2038   4.3096   4.3098   4.3143   4.3144
     5.7532   5.7533   5.7792   5.7793   7.0508   7.0510   7.0598   7.0600

          k =-0.4975 0.2513 0.0000 (  5156 PWs)   bands (ev):

   -64.8288 -64.8283 -64.8252 -64.8246 -31.6165 -31.6160 -31.6112 -31.6105
   -31.6073 -31.6064 -31.5850 -31.5847 -31.5842 -31.5835 -31.5734 -31.5732
    -8.5243  -8.5073  -7.9458  -7.9426   4.4126   4.4247   4.7482   4.7609
     5.0713   5.1004   6.5568   6.5672   6.5784   6.5994   7.0852   7.0905

          k =-0.4975 0.2513 0.2500 (  5134 PWs)   bands (ev):

   -64.8282 -64.8278 -64.8257 -64.8251 -31.6275 -31.6273 -31.6213 -31.6211
   -31.5911 -31.5909 -31.5820 -31.5820 -31.5787 -31.5786 -31.5749 -31.5744
    -8.4115  -8.3970  -7.9960  -7.9959   3.8223   3.8224   4.1988   4.2123
     5.8291   5.8295   6.7437   6.7439   6.8584   6.8639   7.0174   7.0305

          k =-0.4975 0.2513-0.5000 (  5164 PWs)   bands (ev):

   -64.8270 -64.8270 -64.8269 -64.8260 -31.6320 -31.6317 -31.6317 -31.6316
   -31.5813 -31.5810 -31.5809 -31.5807 -31.5770 -31.5768 -31.5766 -31.5766
    -8.1740  -8.1739  -8.1663  -8.1661   3.6428   3.6429   3.6498   3.6499
     6.5224   6.5224   6.5372   6.5373   7.0531   7.0533   7.0595   7.0597

          k =-0.4975-0.5025 0.0000 (  5196 PWs)   bands (ev):

   -64.8271 -64.8270 -64.8269 -64.8260 -31.6190 -31.6186 -31.6184 -31.6180
   -31.5976 -31.5968 -31.5967 -31.5959 -31.5760 -31.5757 -31.5754 -31.5752
    -8.2163  -8.2058  -8.2055  -8.1953   4.2884   4.2930   4.2932   4.2979
     5.7412   5.7666   5.7672   5.7925   7.0540   7.0626   7.0629   7.0713

          k =-0.4975-0.5025 0.2500 (  5144 PWs)   bands (ev):

   -64.8270 -64.8270 -64.8269 -64.8259 -31.6315 -31.6313 -31.6312 -31.6312
   -31.5834 -31.5830 -31.5829 -31.5826 -31.5745 -31.5743 -31.5741 -31.5740
    -8.1758  -8.1683  -8.1680  -8.1608   3.6332   3.6401   3.6401   3.6470
     6.5091   6.5238   6.5242   6.5388   7.0577   7.0637   7.0640   7.0698

          k =-0.4975-0.5025-0.5000 (  5136 PWs)   bands (ev):

   -64.8270 -64.8270 -64.8269 -64.8259 -31.6394 -31.6391 -31.6391 -31.6391
   -31.5773 -31.5770 -31.5770 -31.5769 -31.5721 -31.5719 -31.5718 -31.5717
    -8.1303  -8.1302  -8.1301  -8.1300   3.2172   3.2173   3.2174   3.2174
     7.0561   7.0562   7.0563   7.0565   7.0731   7.0732   7.0734   7.0734

          k = 0.0000-0.2513 0.2500 (  5155 PWs)   bands (ev):

   -64.8314 -64.8257 -64.8254 -64.8244 -31.6220 -31.6204 -31.6180 -31.6053
   -31.5977 -31.5964 -31.5907 -31.5862 -31.5847 -31.5838 -31.5778 -31.5661
    -8.9641  -8.0641  -8.0548  -7.8971   4.1578   4.1625   4.3172   5.0714
     5.8323   6.0494   6.0740   6.4615   6.4698   6.6002   7.1840   7.5032

          k =-0.2488 0.0000 0.2500 (  5155 PWs)   bands (ev):

   -64.8314 -64.8258 -64.8254 -64.8243 -31.6231 -31.6208 -31.6163 -31.6085
   -31.5936 -31.5910 -31.5900 -31.5895 -31.5887 -31.5861 -31.5711 -31.5697
    -8.9691  -8.0739  -8.0647  -7.8845   4.1599   4.1639   4.3396   5.0707
     5.8615   6.0370   6.0604   6.4995   6.5071   6.5671   7.1624   7.5070

          k =-0.2488 0.2513 0.0000 (  5147 PWs)   bands (ev):

   -64.8314 -64.8258 -64.8254 -64.8243 -31.6233 -31.6190 -31.6178 -31.6070
   -31.5941 -31.5927 -31.5924 -31.5881 -31.5863 -31.5840 -31.5748 -31.5673
    -8.9666  -8.0735  -8.0551  -7.8907   4.1568   4.1658   4.3281   5.0712
     5.8467   6.0316   6.0791   6.4759   6.4923   6.5845   7.1733   7.5050

          k =-0.2488-0.2513 0.2500 (  5152 PWs)   bands (ev):

   -64.8304 -64.8258 -64.8257 -64.8250 -31.6257 -31.6248 -31.6235 -31.6056
   -31.5937 -31.5933 -31.5928 -31.5856 -31.5831 -31.5812 -31.5730 -31.5684
    -8.7968  -8.0378  -8.0312  -8.0246   3.9983   3.9999   4.0024   5.0888
     5.8379   5.8452   5.8529   6.6906   6.7054   6.7194   7.3533   7.3565

          k =-0.2488 0.2513-0.2500 (  5152 PWs)   bands (ev):

   -64.8304 -64.8258 -64.8257 -64.8250 -31.6257 -31.6248 -31.6235 -31.6056
   -31.5937 -31.5933 -31.5928 -31.5856 -31.5832 -31.5812 -31.5730 -31.5684
    -8.7968  -8.0378  -8.0312  -8.0246   3.9983   3.9999   4.0024   5.0888
     5.8379   5.8452   5.8529   6.6906   6.7054   6.7194   7.3533   7.3565

          k = 0.2488-0.2513-0.2500 (  5152 PWs)   bands (ev):

   -64.8304 -64.8258 -64.8257 -64.8250 -31.6257 -31.6248 -31.6235 -31.6056
   -31.5937 -31.5933 -31.5928 -31.5856 -31.5832 -31.5812 -31.5730 -31.5684
    -8.7968  -8.0378  -8.0312  -8.0246   3.9983   3.9999   4.0024   5.0888
     5.8379   5.8452   5.8529   6.6906   6.7054   6.7194   7.3533   7.3565

          k =-0.2488 0.2513 0.5000 (  5138 PWs)   bands (ev):

   -64.8282 -64.8278 -64.8258 -64.8251 -31.6277 -31.6275 -31.6208 -31.6208
   -31.5929 -31.5926 -31.5800 -31.5799 -31.5796 -31.5795 -31.5748 -31.5746
    -8.3997  -8.3995  -7.9977  -7.9976   3.8213   3.8214   4.1976   4.1977
     5.8298   5.8298   6.7398   6.7401   6.8684   6.8684   7.0157   7.0158

          k =-0.2488 0.5025 0.2500 (  5140 PWs)   bands (ev):

   -64.8282 -64.8277 -64.8258 -64.8252 -31.6280 -31.6278 -31.6205 -31.6203
   -31.5940 -31.5938 -31.5800 -31.5796 -31.5781 -31.5780 -31.5757 -31.5755
    -8.4018  -8.3879  -7.9993  -7.9992   3.8200   3.8201   4.1831   4.1966
     5.8304   5.8307   6.7357   6.7360   6.8724   6.8785   7.0009   7.0138

          k = 0.4975-0.2513 0.2500 (  5134 PWs)   bands (ev):

   -64.8282 -64.8278 -64.8257 -64.8251 -31.6275 -31.6273 -31.6213 -31.6211
   -31.5911 -31.5909 -31.5820 -31.5820 -31.5787 -31.5786 -31.5749 -31.5744
    -8.4115  -8.3970  -7.9960  -7.9959   3.8223   3.8224   4.1988   4.2123
     5.8291   5.8295   6.7437   6.7439   6.8584   6.8639   7.0174   7.0305

     highest occupied level (ev):     7.6830

!    total energy              =    -608.39257724 Ry
     Harris-Foulkes estimate   =    -608.39257724 Ry
     estimated scf accuracy    <          4.1E-09 Ry

     The total energy is the sum of the following terms:

     one-electron contribution =    -303.59672713 Ry
     hartree contribution      =     168.08834420 Ry
     xc contribution           =     -97.84714457 Ry
     ewald contribution        =    -375.03704973 Ry

     convergence has been achieved in   4 iterations

     Forces acting on atoms (cartesian axes, Ry/au):

     atom    1 type  1   force =    -0.00186956    0.00200581   -0.00000944
     atom    2 type  1   force =    -0.00192073   -0.00202036    0.00000950
     atom    3 type  1   force =     0.00187482    0.00206326    0.00000951
     atom    4 type  1   force =     0.00186058   -0.00200918   -0.00000979
     atom    5 type  2   force =     0.00208391    0.00219204   -0.00001057
     atom    6 type  2   force =    -0.00206085   -0.00220644   -0.00001055
     atom    7 type  2   force =    -0.00205947    0.00218946    0.00001065
     atom    8 type  2   force =     0.00209130   -0.00221460    0.00001068

     Total force =     0.008194     Total SCF correction =     0.000473


     Computing stress (Cartesian axis) and pressure

          total   stress  (Ry/bohr**3)                   (kbar)     P=  -67.70
  -0.00051829   0.00000001  -0.00000000        -76.24      0.00     -0.00
   0.00000001  -0.00039920   0.00000000          0.00    -58.72      0.00
  -0.00000000   0.00000000  -0.00046309         -0.00      0.00    -68.12


     number of scf cycles    =   2
     number of bfgs steps    =   1

     energy   old            =    -608.3924600076 Ry
     energy   new            =    -608.3925772390 Ry

     CASE: energy  _new < energy  _old

     new trust radius        =       0.0049530060 bohr
     new conv_thr            =       0.0000000012 Ry


ATOMIC_POSITIONS (alat)
Mg      -0.000697764   0.000765931  -0.000003710
Mg      -0.000708240   0.499236415   0.500003648
Mg       0.500693260   0.000777776   0.500003653
Mg       0.500687149   0.499241359  -0.000003724
O        0.500795637   0.000850111  -0.000004096
O       -0.000784541   0.499141052  -0.000004098
O       -0.000784247   0.000849560   0.500004142
O        0.500798747   0.499137795   0.500004185



     Writing output data file diamond.1.005.70.4.save
     NEW-OLD atomic charge density approx. for the potential

     Check: negative/imaginary core charge=   -0.000007    0.000000

     total cpu time spent up to now is       24.2 secs

     per-process dynamical memory:    52.1 Mb

     Self-consistent Calculation

     iteration #  1     ecut=    70.00 Ry     beta=0.70
     Davidson diagonalization with overlap
     ethr =  1.00E-06,  avg # of iterations =  3.0

     Threshold (ethr) on eigenvalues was too large:
     Diagonalizing with lowered threshold

     Davidson diagonalization with overlap
     ethr =  4.98E-08,  avg # of iterations =  1.1

     total cpu time spent up to now is       27.8 secs

     total energy              =    -608.39264877 Ry
     Harris-Foulkes estimate   =    -608.39267210 Ry
     estimated scf accuracy    <       0.00003179 Ry

     iteration #  2     ecut=    70.00 Ry     beta=0.70
     Davidson diagonalization with overlap
     ethr =  4.97E-08,  avg # of iterations =  2.3

     total cpu time spent up to now is       29.2 secs

     total energy              =    -608.39265844 Ry
     Harris-Foulkes estimate   =    -608.39266176 Ry
     estimated scf accuracy    <       0.00000552 Ry

     iteration #  3     ecut=    70.00 Ry     beta=0.70
     Davidson diagonalization with overlap
     ethr =  8.63E-09,  avg # of iterations =  2.0

     total cpu time spent up to now is       30.7 secs

     total energy              =    -608.39265963 Ry
     Harris-Foulkes estimate   =    -608.39265962 Ry
     estimated scf accuracy    <       0.00000004 Ry

     iteration #  4     ecut=    70.00 Ry     beta=0.70
     Davidson diagonalization with overlap
     ethr =  5.77E-11,  avg # of iterations =  2.8

     total cpu time spent up to now is       32.4 secs

     total energy              =    -608.39265964 Ry
     Harris-Foulkes estimate   =    -608.39265965 Ry
     estimated scf accuracy    <          5.9E-09 Ry

     iteration #  5     ecut=    70.00 Ry     beta=0.70
     Davidson diagonalization with overlap
     ethr =  9.15E-12,  avg # of iterations =  2.0

     total cpu time spent up to now is       33.9 secs

     End of self-consistent calculation

          k = 0.0000 0.0000 0.0000 (  5153 PWs)   bands (ev):

   -64.8342 -64.8248 -64.8246 -64.8239 -31.6331 -31.6306 -31.6281 -31.5962
   -31.5950 -31.5942 -31.5919 -31.5911 -31.5899 -31.5682 -31.5635 -31.5608
    -9.3649  -7.9271  -7.9140  -7.9011   3.7419   3.7578   3.7746   6.3444
     6.3491   6.3754   6.3843   6.4113   6.4154   7.6604   7.6725   7.6833

          k = 0.0000 0.0000 0.2500 (  5157 PWs)   bands (ev):

   -64.8328 -64.8259 -64.8247 -64.8241 -31.6271 -31.6212 -31.6203 -31.6019
   -31.5945 -31.5941 -31.5922 -31.5914 -31.5859 -31.5778 -31.5738 -31.5680
    -9.1565  -8.1289  -7.8950  -7.8764   4.0332   4.0638   4.0950   5.8498
     5.8660   6.1462   6.1948   6.5145   6.5718   6.6590   7.4348   7.4654

          k = 0.0000 0.0000-0.5000 (  5134 PWs)   bands (ev):

   -64.8295 -64.8291 -64.8247 -64.8241 -31.6138 -31.6135 -31.6065 -31.6063
   -31.6016 -31.6015 -31.5910 -31.5910 -31.5826 -31.5824 -31.5778 -31.5776
    -8.6463  -8.6462  -7.8569  -7.8569   4.8345   4.8346   4.8601   4.8602
     5.1226   5.1229   5.9731   5.9734   6.9451   6.9452   6.9914   6.9914

          k = 0.0000 0.2513 0.0000 (  5161 PWs)   bands (ev):

   -64.8327 -64.8258 -64.8248 -64.8242 -31.6270 -31.6238 -31.6181 -31.6007
   -31.5969 -31.5925 -31.5906 -31.5898 -31.5897 -31.5751 -31.5740 -31.5712
    -9.1536  -8.1164  -7.8953  -7.8859   4.0366   4.0515   4.1034   5.8775
     5.8852   6.1391   6.1632   6.5110   6.5399   6.6483   7.4435   7.4586

          k = 0.0000 0.2513 0.2500 (  5155 PWs)   bands (ev):

   -64.8315 -64.8259 -64.8255 -64.8246 -31.6221 -31.6205 -31.6181 -31.6054
   -31.5978 -31.5965 -31.5908 -31.5864 -31.5848 -31.5839 -31.5780 -31.5662
    -8.9638  -8.0639  -8.0547  -7.8969   4.1581   4.1626   4.3173   5.0715
     5.8325   6.0497   6.0741   6.4617   6.4699   6.6002   7.1842   7.5034

          k = 0.0000 0.2513-0.5000 (  5146 PWs)   bands (ev):

   -64.8288 -64.8284 -64.8254 -64.8248 -31.6153 -31.6152 -31.6098 -31.6096
   -31.6089 -31.6088 -31.5876 -31.5873 -31.5822 -31.5821 -31.5724 -31.5723
    -8.5083  -8.5082  -7.9454  -7.9454   4.4113   4.4114   4.7391   4.7393
     5.0877   5.0877   6.5585   6.5587   6.5915   6.5915   7.0852   7.0853

          k = 0.0000-0.5025 0.0000 (  5126 PWs)   bands (ev):

   -64.8295 -64.8290 -64.8248 -64.8242 -31.6133 -31.6128 -31.6092 -31.6086
   -31.5985 -31.5978 -31.5886 -31.5886 -31.5832 -31.5828 -31.5808 -31.5804
    -8.6419  -8.6329  -7.8603  -7.8602   4.8408   4.8538   4.8552   4.8682
     5.1153   5.1209   5.9477   5.9480   6.9433   6.9521   6.9664   6.9749

          k = 0.0000-0.5025 0.2500 (  5150 PWs)   bands (ev):

   -64.8288 -64.8283 -64.8254 -64.8249 -31.6166 -31.6163 -31.6095 -31.6090
   -31.6085 -31.6081 -31.5883 -31.5878 -31.5806 -31.5804 -31.5739 -31.5737
    -8.5065  -8.4985  -7.9492  -7.9477   4.4079   4.4136   4.7323   4.7385
     5.0907   5.1046   6.5416   6.5467   6.5730   6.5830   7.0893   7.0921

          k = 0.0000-0.5025-0.5000 (  5168 PWs)   bands (ev):

   -64.8271 -64.8271 -64.8271 -64.8261 -31.6179 -31.6177 -31.6175 -31.6174
   -31.5997 -31.5995 -31.5992 -31.5990 -31.5732 -31.5730 -31.5728 -31.5728
    -8.2046  -8.2046  -8.1997  -8.1996   4.2732   4.2733   4.2754   4.2755
     5.7630   5.7631   5.7754   5.7755   7.0687   7.0689   7.0727   7.0728

          k = 0.2488 0.0000 0.0000 (  5164 PWs)   bands (ev):

   -64.8328 -64.8261 -64.8246 -64.8240 -31.6245 -31.6237 -31.6212 -31.5987
   -31.5965 -31.5956 -31.5948 -31.5884 -31.5850 -31.5821 -31.5711 -31.5680
    -9.1593  -8.1414  -7.8851  -7.8759   4.0451   4.0608   4.0858   5.8305
     5.8391   6.1778   6.2024   6.5457   6.5741   6.6682   7.4415   7.4570

          k = 0.2488 0.0000 0.2500 (  5155 PWs)   bands (ev):

   -64.8316 -64.8259 -64.8255 -64.8244 -31.6232 -31.6209 -31.6164 -31.6086
   -31.5937 -31.5911 -31.5901 -31.5895 -31.5888 -31.5862 -31.5713 -31.5698
    -8.9689  -8.0737  -8.0644  -7.8843   4.1600   4.1641   4.3397   5.0709
     5.8617   6.0370   6.0606   6.4996   6.5075   6.5670   7.1625   7.5071

          k = 0.2488 0.0000-0.5000 (  5142 PWs)   bands (ev):

   -64.8288 -64.8284 -64.8254 -64.8248 -31.6185 -31.6183 -31.6101 -31.6101
   -31.6027 -31.6025 -31.5845 -31.5844 -31.5816 -31.5814 -31.5777 -31.5776
    -8.5115  -8.5114  -7.9491  -7.9491   4.4255   4.4256   4.7628   4.7630
     5.1051   5.1052   6.5363   6.5365   6.5605   6.5606   7.1026   7.1026

          k = 0.2488 0.2513 0.0000 (  5147 PWs)   bands (ev):

   -64.8315 -64.8259 -64.8255 -64.8245 -31.6234 -31.6191 -31.6179 -31.6072
   -31.5942 -31.5928 -31.5925 -31.5883 -31.5864 -31.5841 -31.5750 -31.5674
    -8.9663  -8.0734  -8.0549  -7.8905   4.1569   4.1660   4.3284   5.0712
     5.8469   6.0318   6.0793   6.4762   6.4926   6.5842   7.1734   7.5052

          k = 0.2488 0.2513 0.2500 (  5152 PWs)   bands (ev):

   -64.8305 -64.8259 -64.8258 -64.8251 -31.6258 -31.6249 -31.6236 -31.6057
   -31.5938 -31.5934 -31.5929 -31.5857 -31.5833 -31.5814 -31.5731 -31.5685
    -8.7965  -8.0376  -8.0310  -8.0244   3.9984   4.0001   4.0025   5.0890
     5.8380   5.8454   5.8530   6.6908   6.7054   6.7196   7.3535   7.3567

          k = 0.2488 0.2513-0.5000 (  5138 PWs)   bands (ev):

   -64.8283 -64.8279 -64.8259 -64.8253 -31.6277 -31.6276 -31.6210 -31.6208
   -31.5930 -31.5928 -31.5801 -31.5799 -31.5797 -31.5797 -31.5749 -31.5747
    -8.3994  -8.3993  -7.9975  -7.9974   3.8214   3.8215   4.1977   4.1978
     5.8299   5.8299   6.7401   6.7404   6.8684   6.8686   7.0158   7.0158

          k = 0.2488-0.5025 0.0000 (  5158 PWs)   bands (ev):

   -64.8288 -64.8283 -64.8254 -64.8249 -31.6183 -31.6179 -31.6092 -31.6089
   -31.6063 -31.6057 -31.5855 -31.5850 -31.5821 -31.5819 -31.5766 -31.5765
    -8.5080  -8.5000  -7.9511  -7.9495   4.4153   4.4210   4.7442   4.7504
     5.0989   5.1128   6.5305   6.5356   6.5573   6.5674   7.0977   7.1003

          k = 0.2488-0.5025 0.2500 (  5140 PWs)   bands (ev):

   -64.8283 -64.8279 -64.8259 -64.8253 -31.6281 -31.6279 -31.6206 -31.6204
   -31.5941 -31.5939 -31.5800 -31.5797 -31.5782 -31.5781 -31.5758 -31.5757
    -8.3980  -8.3912  -7.9991  -7.9990   3.8202   3.8203   4.1868   4.1932
     5.8307   5.8308   6.7359   6.7362   6.8741   6.8771   7.0043   7.0106

          k = 0.2488-0.5025-0.5000 (  5136 PWs)   bands (ev):

   -64.8271 -64.8271 -64.8271 -64.8261 -31.6311 -31.6309 -31.6308 -31.6308
   -31.5850 -31.5848 -31.5847 -31.5845 -31.5730 -31.5728 -31.5727 -31.5726
    -8.1681  -8.1680  -8.1645  -8.1645   3.6323   3.6324   3.6355   3.6356
     6.5146   6.5146   6.5218   6.5218   7.0701   7.0702   7.0728   7.0730

          k =-0.4975 0.0000 0.0000 (  5150 PWs)   bands (ev):

   -64.8296 -64.8292 -64.8246 -64.8240 -31.6102 -31.6096 -31.6075 -31.6068
   -31.6045 -31.6038 -31.5964 -31.5964 -31.5798 -31.5794 -31.5774 -31.5770
    -8.6601  -8.6497  -7.8534  -7.8532   4.8260   4.8387   4.8423   4.8550
     5.1241   5.1298   5.9975   5.9979   6.9607   6.9705   6.9840   6.9937

          k =-0.4975 0.0000 0.2500 (  5148 PWs)   bands (ev):

   -64.8289 -64.8285 -64.8253 -64.8248 -31.6176 -31.6173 -31.6117 -31.6113
   -31.6034 -31.6028 -31.5862 -31.5859 -31.5814 -31.5809 -31.5761 -31.5759
    -8.5218  -8.5126  -7.9468  -7.9449   4.4221   4.4289   4.7632   4.7697
     5.0875   5.1033   6.5481   6.5538   6.5681   6.5794   7.0957   7.0985

          k =-0.4975 0.0000-0.5000 (  5176 PWs)   bands (ev):

   -64.8271 -64.8271 -64.8271 -64.8261 -31.6193 -31.6192 -31.6189 -31.6189
   -31.5932 -31.5930 -31.5927 -31.5924 -31.5781 -31.5779 -31.5777 -31.5776
    -8.2120  -8.2119  -8.2062  -8.2061   4.3110   4.3111   4.3133   4.3134
     5.7593   5.7593   5.7733   5.7734   7.0531   7.0533   7.0579   7.0581

          k =-0.4975 0.2513 0.0000 (  5156 PWs)   bands (ev):

   -64.8289 -64.8285 -64.8253 -64.8248 -31.6165 -31.6162 -31.6112 -31.6108
   -31.6072 -31.6066 -31.5850 -31.5848 -31.5842 -31.5837 -31.5735 -31.5734
    -8.5201  -8.5110  -7.9448  -7.9431   4.4154   4.4221   4.7514   4.7580
     5.0782   5.0940   6.5594   6.5650   6.5834   6.5947   7.0866   7.0895

          k =-0.4975 0.2513 0.2500 (  5134 PWs)   bands (ev):

   -64.8284 -64.8280 -64.8258 -64.8252 -31.6276 -31.6274 -31.6213 -31.6212
   -31.5912 -31.5910 -31.5821 -31.5821 -31.5788 -31.5787 -31.5749 -31.5746
    -8.4079  -8.4001  -7.9958  -7.9956   3.8224   3.8225   4.2021   4.2092
     5.8294   5.8296   6.7439   6.7441   6.8597   6.8628   7.0206   7.0276

          k =-0.4975 0.2513-0.5000 (  5164 PWs)   bands (ev):

   -64.8271 -64.8271 -64.8271 -64.8261 -31.6321 -31.6318 -31.6318 -31.6318
   -31.5813 -31.5811 -31.5811 -31.5809 -31.5771 -31.5769 -31.5768 -31.5768
    -8.1719  -8.1719  -8.1678  -8.1677   3.6446   3.6447   3.6482   3.6483
     6.5259   6.5260   6.5340   6.5340   7.0548   7.0550   7.0582   7.0584

          k =-0.4975-0.5025 0.0000 (  5196 PWs)   bands (ev):

   -64.8271 -64.8271 -64.8270 -64.8261 -31.6189 -31.6187 -31.6185 -31.6183
   -31.5974 -31.5969 -31.5968 -31.5963 -31.5760 -31.5758 -31.5756 -31.5755
    -8.2109  -8.2058  -8.2051  -8.2001   4.2910   4.2932   4.2933   4.2955
     5.7538   5.7662   5.7679   5.7803   7.0585   7.0626   7.0632   7.0672

          k =-0.4975-0.5025 0.2500 (  5144 PWs)   bands (ev):

   -64.8271 -64.8271 -64.8271 -64.8261 -31.6316 -31.6314 -31.6313 -31.6313
   -31.5834 -31.5831 -31.5831 -31.5829 -31.5746 -31.5744 -31.5742 -31.5741
    -8.1719  -8.1682  -8.1677  -8.1642   3.6368   3.6400   3.6404   3.6436
     6.5165   6.5237   6.5247   6.5318   7.0609   7.0638   7.0643   7.0670

          k =-0.4975-0.5025-0.5000 (  5136 PWs)   bands (ev):

   -64.8271 -64.8271 -64.8271 -64.8261 -31.6395 -31.6392 -31.6392 -31.6392
   -31.5774 -31.5772 -31.5771 -31.5770 -31.5722 -31.5720 -31.5719 -31.5718
    -8.1300  -8.1299  -8.1298  -8.1298   3.2173   3.2174   3.2174   3.2175
     7.0563   7.0564   7.0565   7.0566   7.0733   7.0734   7.0735   7.0736

          k = 0.0000-0.2513 0.2500 (  5155 PWs)   bands (ev):

   -64.8315 -64.8259 -64.8255 -64.8246 -31.6221 -31.6205 -31.6181 -31.6054
   -31.5978 -31.5965 -31.5908 -31.5864 -31.5848 -31.5839 -31.5780 -31.5662
    -8.9638  -8.0639  -8.0547  -7.8969   4.1581   4.1626   4.3173   5.0715
     5.8325   6.0497   6.0741   6.4617   6.4699   6.6002   7.1842   7.5034

          k =-0.2488 0.0000 0.2500 (  5155 PWs)   bands (ev):

   -64.8316 -64.8259 -64.8255 -64.8244 -31.6232 -31.6209 -31.6164 -31.6086
   -31.5937 -31.5911 -31.5901 -31.5895 -31.5888 -31.5862 -31.5713 -31.5698
    -8.9689  -8.0737  -8.0644  -7.8843   4.1600   4.1641   4.3397   5.0709
     5.8617   6.0370   6.0606   6.4996   6.5075   6.5670   7.1625   7.5071

          k =-0.2488 0.2513 0.0000 (  5147 PWs)   bands (ev):

   -64.8315 -64.8259 -64.8255 -64.8245 -31.6234 -31.6191 -31.6179 -31.6072
   -31.5942 -31.5928 -31.5925 -31.5883 -31.5864 -31.5841 -31.5750 -31.5674
    -8.9663  -8.0734  -8.0549  -7.8905   4.1569   4.1660   4.3284   5.0712
     5.8469   6.0318   6.0793   6.4762   6.4926   6.5842   7.1734   7.5052

          k =-0.2488-0.2513 0.2500 (  5152 PWs)   bands (ev):

   -64.8305 -64.8259 -64.8258 -64.8251 -31.6258 -31.6249 -31.6236 -31.6057
   -31.5938 -31.5934 -31.5929 -31.5857 -31.5833 -31.5814 -31.5731 -31.5685
    -8.7965  -8.0376  -8.0310  -8.0244   3.9984   4.0001   4.0025   5.0890
     5.8380   5.8454   5.8530   6.6908   6.7054   6.7196   7.3535   7.3567

          k =-0.2488 0.2513-0.2500 (  5152 PWs)   bands (ev):

   -64.8305 -64.8259 -64.8258 -64.8251 -31.6258 -31.6249 -31.6236 -31.6057
   -31.5938 -31.5934 -31.5929 -31.5857 -31.5833 -31.5814 -31.5731 -31.5685
    -8.7965  -8.0376  -8.0310  -8.0244   3.9984   4.0001   4.0025   5.0890
     5.8380   5.8454   5.8530   6.6908   6.7054   6.7196   7.3535   7.3567

          k = 0.2488-0.2513-0.2500 (  5152 PWs)   bands (ev):

   -64.8305 -64.8259 -64.8258 -64.8251 -31.6258 -31.6249 -31.6236 -31.6057
   -31.5938 -31.5934 -31.5929 -31.5857 -31.5833 -31.5814 -31.5731 -31.5685
    -8.7965  -8.0376  -8.0310  -8.0244   3.9984   4.0001   4.0025   5.0890
     5.8380   5.8454   5.8530   6.6908   6.7054   6.7196   7.3535   7.3567

          k =-0.2488 0.2513 0.5000 (  5138 PWs)   bands (ev):

   -64.8283 -64.8279 -64.8259 -64.8253 -31.6277 -31.6276 -31.6209 -31.6208
   -31.5930 -31.5928 -31.5801 -31.5800 -31.5798 -31.5797 -31.5749 -31.5747
    -8.3994  -8.3993  -7.9975  -7.9974   3.8214   3.8215   4.1977   4.1978
     5.8299   5.8299   6.7401   6.7404   6.8684   6.8685   7.0158   7.0158

          k =-0.2488 0.5025 0.2500 (  5140 PWs)   bands (ev):

   -64.8283 -64.8279 -64.8259 -64.8253 -31.6281 -31.6279 -31.6206 -31.6204
   -31.5941 -31.5939 -31.5800 -31.5797 -31.5782 -31.5781 -31.5758 -31.5757
    -8.3980  -8.3912  -7.9991  -7.9990   3.8202   3.8203   4.1868   4.1932
     5.8307   5.8308   6.7359   6.7362   6.8741   6.8771   7.0043   7.0106

          k = 0.4975-0.2513 0.2500 (  5134 PWs)   bands (ev):

   -64.8284 -64.8280 -64.8258 -64.8252 -31.6276 -31.6274 -31.6213 -31.6212
   -31.5912 -31.5910 -31.5821 -31.5821 -31.5788 -31.5787 -31.5749 -31.5746
    -8.4079  -8.4001  -7.9958  -7.9956   3.8224   3.8225   4.2021   4.2092
     5.8294   5.8296   6.7439   6.7441   6.8597   6.8628   7.0206   7.0276

     highest occupied level (ev):     7.6833

!    total energy              =    -608.39265964 Ry
     Harris-Foulkes estimate   =    -608.39265964 Ry
     estimated scf accuracy    <          6.2E-10 Ry

     The total energy is the sum of the following terms:

     one-electron contribution =    -303.58133906 Ry
     hartree contribution      =     168.08034624 Ry
     xc contribution           =     -97.84687100 Ry
     ewald contribution        =    -375.04479583 Ry

     convergence has been achieved in   5 iterations

     Forces acting on atoms (cartesian axes, Ry/au):

     atom    1 type  1   force =    -0.00102923    0.00099218   -0.00000496
     atom    2 type  1   force =    -0.00112493   -0.00105725    0.00000527
     atom    3 type  1   force =     0.00108610    0.00109473    0.00000528
     atom    4 type  1   force =     0.00108232   -0.00105496   -0.00000550
     atom    5 type  2   force =     0.00105367    0.00101458   -0.00000515
     atom    6 type  2   force =    -0.00106179   -0.00100193   -0.00000514
     atom    7 type  2   force =    -0.00106047    0.00101247    0.00000511
     atom    8 type  2   force =     0.00105432   -0.00099982    0.00000508

     Total force =     0.004198     Total SCF correction =     0.000234


     Computing stress (Cartesian axis) and pressure

          total   stress  (Ry/bohr**3)                   (kbar)     P=  -67.85
  -0.00051954   0.00000000  -0.00000000        -76.43      0.00     -0.00
   0.00000000  -0.00040052   0.00000000          0.00    -58.92      0.00
  -0.00000000   0.00000000  -0.00046360         -0.00      0.00    -68.20


     number of scf cycles    =   3
     number of bfgs steps    =   2

     energy   old            =    -608.3925772390 Ry
     energy   new            =    -608.3926596436 Ry

     CASE: energy  _new < energy  _old

     new trust radius        =       0.0049918756 bohr
     new conv_thr            =       0.0000000008 Ry


ATOMIC_POSITIONS (alat)
Mg      -0.001112509   0.001182595  -0.000005745
Mg      -0.001151413   0.498802100   0.500005767
Mg       0.501122825   0.001225114   0.500005775
Mg       0.501114578   0.498808549  -0.000005924
O        0.501234330   0.001287867  -0.000006271
O       -0.001223382   0.498705297  -0.000006270
O       -0.001222640   0.001286573   0.500006314
O        0.501238212   0.498701905   0.500006353



     Writing output data file diamond.1.005.70.4.save
     NEW-OLD atomic charge density approx. for the potential

     Check: negative/imaginary core charge=   -0.000007    0.000000

     total cpu time spent up to now is       34.8 secs

     per-process dynamical memory:    52.1 Mb

     Self-consistent Calculation

     iteration #  1     ecut=    70.00 Ry     beta=0.70
     Davidson diagonalization with overlap
     ethr =  1.00E-06,  avg # of iterations =  3.0

     Threshold (ethr) on eigenvalues was too large:
     Diagonalizing with lowered threshold

     Davidson diagonalization with overlap
     ethr =  5.27E-08,  avg # of iterations =  1.1

     total cpu time spent up to now is       38.3 secs

     total energy              =    -608.39267764 Ry
     Harris-Foulkes estimate   =    -608.39270227 Ry
     estimated scf accuracy    <       0.00003359 Ry

     iteration #  2     ecut=    70.00 Ry     beta=0.70
     Davidson diagonalization with overlap
     ethr =  5.25E-08,  avg # of iterations =  2.2

     total cpu time spent up to now is       39.7 secs

     total energy              =    -608.39268788 Ry
     Harris-Foulkes estimate   =    -608.39269138 Ry
     estimated scf accuracy    <       0.00000584 Ry

     iteration #  3     ecut=    70.00 Ry     beta=0.70
     Davidson diagonalization with overlap
     ethr =  9.13E-09,  avg # of iterations =  2.0

     total cpu time spent up to now is       41.2 secs

     total energy              =    -608.39268913 Ry
     Harris-Foulkes estimate   =    -608.39268911 Ry
     estimated scf accuracy    <       0.00000004 Ry

     iteration #  4     ecut=    70.00 Ry     beta=0.70
     Davidson diagonalization with overlap
     ethr =  6.02E-11,  avg # of iterations =  2.5

     total cpu time spent up to now is       42.8 secs

     total energy              =    -608.39268915 Ry
     Harris-Foulkes estimate   =    -608.39268915 Ry
     estimated scf accuracy    <          2.9E-09 Ry

     iteration #  5     ecut=    70.00 Ry     beta=0.70
     Davidson diagonalization with overlap
     ethr =  4.57E-12,  avg # of iterations =  2.1

     total cpu time spent up to now is       44.3 secs

     End of self-consistent calculation

          k = 0.0000 0.0000 0.0000 (  5153 PWs)   bands (ev):

   -64.8342 -64.8248 -64.8246 -64.8239 -31.6331 -31.6306 -31.6281 -31.5962
   -31.5950 -31.5943 -31.5919 -31.5911 -31.5899 -31.5682 -31.5635 -31.5609
    -9.3649  -7.9271  -7.9140  -7.9010   3.7419   3.7578   3.7746   6.3444
     6.3491   6.3754   6.3843   6.4113   6.4154   7.6604   7.6725   7.6833

          k = 0.0000 0.0000 0.2500 (  5157 PWs)   bands (ev):

   -64.8328 -64.8259 -64.8247 -64.8241 -31.6272 -31.6212 -31.6203 -31.6019
   -31.5945 -31.5941 -31.5922 -31.5914 -31.5859 -31.5778 -31.5738 -31.5680
    -9.1565  -8.1288  -7.8949  -7.8763   4.0332   4.0638   4.0951   5.8498
     5.8661   6.1462   6.1949   6.5144   6.5717   6.6590   7.4348   7.4654

          k = 0.0000 0.0000-0.5000 (  5134 PWs)   bands (ev):

   -64.8296 -64.8291 -64.8247 -64.8242 -31.6138 -31.6135 -31.6065 -31.6063
   -31.6016 -31.6016 -31.5910 -31.5910 -31.5827 -31.5824 -31.5778 -31.5776
    -8.6462  -8.6461  -7.8569  -7.8568   4.8345   4.8346   4.8602   4.8602
     5.1226   5.1229   5.9732   5.9735   6.9451   6.9452   6.9913   6.9914

          k = 0.0000 0.2513 0.0000 (  5161 PWs)   bands (ev):

   -64.8328 -64.8258 -64.8248 -64.8242 -31.6270 -31.6238 -31.6181 -31.6007
   -31.5969 -31.5924 -31.5906 -31.5898 -31.5898 -31.5751 -31.5740 -31.5713
    -9.1536  -8.1164  -7.8952  -7.8859   4.0366   4.0516   4.1034   5.8774
     5.8852   6.1392   6.1633   6.5110   6.5399   6.6483   7.4435   7.4586

          k = 0.0000 0.2513 0.2500 (  5155 PWs)   bands (ev):

   -64.8315 -64.8259 -64.8255 -64.8246 -31.6221 -31.6205 -31.6181 -31.6054
   -31.5978 -31.5965 -31.5908 -31.5864 -31.5848 -31.5839 -31.5780 -31.5663
    -8.9637  -8.0638  -8.0547  -7.8968   4.1581   4.1626   4.3173   5.0716
     5.8325   6.0497   6.0741   6.4617   6.4699   6.6002   7.1842   7.5034

          k = 0.0000 0.2513-0.5000 (  5146 PWs)   bands (ev):

   -64.8288 -64.8284 -64.8254 -64.8248 -31.6153 -31.6152 -31.6096 -31.6094
   -31.6091 -31.6091 -31.5876 -31.5873 -31.5822 -31.5821 -31.5725 -31.5723
    -8.5083  -8.5082  -7.9454  -7.9453   4.4114   4.4114   4.7392   4.7394
     5.0877   5.0877   6.5588   6.5590   6.5912   6.5913   7.0852   7.0853

          k = 0.0000-0.5025 0.0000 (  5126 PWs)   bands (ev):

   -64.8295 -64.8290 -64.8248 -64.8242 -31.6132 -31.6129 -31.6090 -31.6088
   -31.5982 -31.5982 -31.5886 -31.5886 -31.5832 -31.5829 -31.5808 -31.5806
    -8.6376  -8.6371  -7.8603  -7.8602   4.8477   4.8483   4.8608   4.8613
     5.1178   5.1184   5.9477   5.9480   6.9474   6.9480   6.9704   6.9709

          k = 0.0000-0.5025 0.2500 (  5150 PWs)   bands (ev):

   -64.8288 -64.8284 -64.8255 -64.8249 -31.6165 -31.6164 -31.6092 -31.6090
   -31.6085 -31.6084 -31.5882 -31.5880 -31.5805 -31.5805 -31.5739 -31.5738
    -8.5026  -8.5022  -7.9485  -7.9484   4.4108   4.4109   4.7351   4.7358
     5.0974   5.0979   6.5442   6.5446   6.5775   6.5780   7.0907   7.0907

          k = 0.0000-0.5025-0.5000 (  5168 PWs)   bands (ev):

   -64.8271 -64.8271 -64.8271 -64.8261 -31.6178 -31.6176 -31.6175 -31.6175
   -31.5996 -31.5994 -31.5994 -31.5991 -31.5732 -31.5730 -31.5729 -31.5729
    -8.2023  -8.2022  -8.2020  -8.2019   4.2741   4.2742   4.2745   4.2747
     5.7689   5.7690   5.7696   5.7696   7.0706   7.0707   7.0709   7.0711

          k = 0.2488 0.0000 0.0000 (  5164 PWs)   bands (ev):

   -64.8328 -64.8261 -64.8246 -64.8241 -31.6245 -31.6237 -31.6212 -31.5987
   -31.5965 -31.5956 -31.5948 -31.5884 -31.5850 -31.5821 -31.5712 -31.5680
    -9.1593  -8.1413  -7.8851  -7.8759   4.0451   4.0608   4.0858   5.8306
     5.8390   6.1778   6.2024   6.5457   6.5742   6.6682   7.4415   7.4570

          k = 0.2488 0.0000 0.2500 (  5155 PWs)   bands (ev):

   -64.8316 -64.8260 -64.8256 -64.8244 -31.6232 -31.6209 -31.6164 -31.6086
   -31.5937 -31.5911 -31.5901 -31.5896 -31.5889 -31.5862 -31.5713 -31.5698
    -8.9688  -8.0737  -8.0644  -7.8843   4.1600   4.1641   4.3398   5.0709
     5.8617   6.0370   6.0607   6.4996   6.5076   6.5669   7.1625   7.5072

          k = 0.2488 0.0000-0.5000 (  5142 PWs)   bands (ev):

   -64.8289 -64.8284 -64.8254 -64.8248 -31.6185 -31.6183 -31.6101 -31.6101
   -31.6027 -31.6025 -31.5845 -31.5845 -31.5817 -31.5814 -31.5777 -31.5776
    -8.5114  -8.5113  -7.9491  -7.9490   4.4255   4.4256   4.7629   4.7631
     5.1051   5.1052   6.5366   6.5368   6.5602   6.5603   7.1026   7.1026

          k = 0.2488 0.2513 0.0000 (  5147 PWs)   bands (ev):

   -64.8316 -64.8260 -64.8255 -64.8245 -31.6234 -31.6191 -31.6179 -31.6072
   -31.5942 -31.5928 -31.5925 -31.5883 -31.5865 -31.5841 -31.5750 -31.5674
    -8.9662  -8.0733  -8.0549  -7.8905   4.1569   4.1660   4.3285   5.0712
     5.8470   6.0318   6.0793   6.4762   6.4927   6.5841   7.1734   7.5053

          k = 0.2488 0.2513 0.2500 (  5152 PWs)   bands (ev):

   -64.8306 -64.8260 -64.8259 -64.8251 -31.6258 -31.6249 -31.6236 -31.6057
   -31.5938 -31.5935 -31.5929 -31.5858 -31.5833 -31.5814 -31.5731 -31.5685
    -8.7964  -8.0376  -8.0309  -8.0244   3.9985   4.0001   4.0025   5.0890
     5.8380   5.8454   5.8531   6.6908   6.7054   6.7196   7.3535   7.3567

          k = 0.2488 0.2513-0.5000 (  5138 PWs)   bands (ev):

   -64.8283 -64.8279 -64.8259 -64.8253 -31.6277 -31.6276 -31.6210 -31.6209
   -31.5930 -31.5928 -31.5801 -31.5799 -31.5798 -31.5797 -31.5749 -31.5748
    -8.3994  -8.3993  -7.9975  -7.9974   3.8214   3.8215   4.1977   4.1978
     5.8299   5.8299   6.7402   6.7405   6.8684   6.8685   7.0158   7.0158

          k = 0.2488-0.5025 0.0000 (  5158 PWs)   bands (ev):

   -64.8288 -64.8284 -64.8255 -64.8249 -31.6182 -31.6180 -31.6091 -31.6090
   -31.6061 -31.6059 -31.5854 -31.5851 -31.5820 -31.5820 -31.5766 -31.5765
    -8.5042  -8.5038  -7.9503  -7.9502   4.4181   4.4182   4.7470   4.7476
     5.1057   5.1062   6.5329   6.5332   6.5621   6.5626   7.0990   7.0990

          k = 0.2488-0.5025 0.2500 (  5140 PWs)   bands (ev):

   -64.8283 -64.8279 -64.8259 -64.8254 -31.6281 -31.6279 -31.6206 -31.6205
   -31.5941 -31.5939 -31.5800 -31.5798 -31.5782 -31.5782 -31.5758 -31.5757
    -8.3948  -8.3944  -7.9991  -7.9990   3.8202   3.8203   4.1897   4.1903
     5.8308   5.8308   6.7360   6.7362   6.8755   6.8757   7.0073   7.0077

          k = 0.2488-0.5025-0.5000 (  5136 PWs)   bands (ev):

   -64.8271 -64.8271 -64.8271 -64.8261 -31.6311 -31.6309 -31.6309 -31.6308
   -31.5850 -31.5848 -31.5848 -31.5846 -31.5730 -31.5728 -31.5727 -31.5727
    -8.1664  -8.1663  -8.1662  -8.1661   3.6338   3.6338   3.6341   3.6342
     6.5180   6.5180   6.5184   6.5184   7.0713   7.0715   7.0716   7.0718

          k =-0.4975 0.0000 0.0000 (  5150 PWs)   bands (ev):

   -64.8296 -64.8292 -64.8246 -64.8241 -31.6100 -31.6098 -31.6073 -31.6070
   -31.6043 -31.6041 -31.5965 -31.5964 -31.5797 -31.5795 -31.5773 -31.5771
    -8.6553  -8.6544  -7.8533  -7.8532   4.8334   4.8351   4.8460   4.8477
     5.1268   5.1272   5.9976   5.9979   6.9652   6.9660   6.9885   6.9892

          k =-0.4975 0.0000 0.2500 (  5148 PWs)   bands (ev):

   -64.8289 -64.8285 -64.8253 -64.8248 -31.6175 -31.6174 -31.6116 -31.6115
   -31.6033 -31.6030 -31.5861 -31.5860 -31.5813 -31.5810 -31.5761 -31.5759
    -8.5176  -8.5167  -7.9459  -7.9457   4.4251   4.4260   4.7663   4.7667
     5.0946   5.0962   6.5510   6.5515   6.5730   6.5740   7.0970   7.0973

          k =-0.4975 0.0000-0.5000 (  5176 PWs)   bands (ev):

   -64.8271 -64.8271 -64.8271 -64.8261 -31.6193 -31.6191 -31.6190 -31.6190
   -31.5931 -31.5929 -31.5929 -31.5926 -31.5780 -31.5778 -31.5777 -31.5777
    -8.2093  -8.2092  -8.2088  -8.2087   4.3121   4.3122   4.3122   4.3124
     5.7656   5.7656   5.7670   5.7671   7.0554   7.0555   7.0557   7.0559

          k =-0.4975 0.2513 0.0000 (  5156 PWs)   bands (ev):

   -64.8289 -64.8285 -64.8253 -64.8248 -31.6164 -31.6163 -31.6110 -31.6109
   -31.6071 -31.6068 -31.5850 -31.5849 -31.5841 -31.5838 -31.5735 -31.5734
    -8.5159  -8.5151  -7.9440  -7.9439   4.4183   4.4191   4.7545   4.7549
     5.0853   5.0869   6.5619   6.5625   6.5886   6.5896   7.0878   7.0882

          k =-0.4975 0.2513 0.2500 (  5134 PWs)   bands (ev):

   -64.8284 -64.8280 -64.8259 -64.8253 -31.6276 -31.6275 -31.6213 -31.6212
   -31.5913 -31.5910 -31.5822 -31.5821 -31.5788 -31.5787 -31.5749 -31.5747
    -8.4043  -8.4036  -7.9957  -7.9957   3.8225   3.8225   4.2055   4.2059
     5.8295   5.8295   6.7439   6.7441   6.8610   6.8615   7.0238   7.0244

          k =-0.4975 0.2513-0.5000 (  5164 PWs)   bands (ev):

   -64.8271 -64.8271 -64.8271 -64.8261 -31.6321 -31.6318 -31.6318 -31.6318
   -31.5813 -31.5811 -31.5810 -31.5809 -31.5771 -31.5769 -31.5769 -31.5768
    -8.1700  -8.1699  -8.1697  -8.1695   3.6463   3.6464   3.6465   3.6466
     6.5296   6.5296   6.5303   6.5304   7.0564   7.0566   7.0567   7.0569

          k =-0.4975-0.5025 0.0000 (  5196 PWs)   bands (ev):

   -64.8271 -64.8271 -64.8271 -64.8261 -31.6188 -31.6186 -31.6185 -31.6184
   -31.5971 -31.5969 -31.5969 -31.5966 -31.5760 -31.5758 -31.5756 -31.5756
    -8.2058  -8.2056  -8.2053  -8.2050   4.2930   4.2931   4.2933   4.2936
     5.7661   5.7666   5.7675   5.7681   7.0625   7.0629   7.0629   7.0632

          k =-0.4975-0.5025 0.2500 (  5144 PWs)   bands (ev):

   -64.8271 -64.8271 -64.8271 -64.8261 -31.6317 -31.6314 -31.6314 -31.6313
   -31.5833 -31.5831 -31.5831 -31.5830 -31.5746 -31.5744 -31.5743 -31.5742
    -8.1683  -8.1681  -8.1679  -8.1677   3.6399   3.6401   3.6403   3.6405
     6.5236   6.5240   6.5244   6.5248   7.0637   7.0640   7.0640   7.0643

          k =-0.4975-0.5025-0.5000 (  5136 PWs)   bands (ev):

   -64.8271 -64.8271 -64.8271 -64.8261 -31.6395 -31.6392 -31.6392 -31.6392
   -31.5774 -31.5772 -31.5771 -31.5770 -31.5722 -31.5720 -31.5720 -31.5719
    -8.1300  -8.1298  -8.1298  -8.1298   3.2173   3.2174   3.2175   3.2175
     7.0564   7.0564   7.0565   7.0567   7.0733   7.0734   7.0735   7.0736

          k = 0.0000-0.2513 0.2500 (  5155 PWs)   bands (ev):

   -64.8315 -64.8259 -64.8255 -64.8246 -31.6221 -31.6205 -31.6181 -31.6054
   -31.5978 -31.5965 -31.5908 -31.5864 -31.5848 -31.5839 -31.5780 -31.5663
    -8.9637  -8.0638  -8.0547  -7.8968   4.1581   4.1626   4.3173   5.0716
     5.8325   6.0497   6.0741   6.4617   6.4699   6.6002   7.1842   7.5034

          k =-0.2488 0.0000 0.2500 (  5155 PWs)   bands (ev):

   -64.8316 -64.8260 -64.8256 -64.8244 -31.6232 -31.6209 -31.6164 -31.6086
   -31.5937 -31.5911 -31.5901 -31.5896 -31.5889 -31.5862 -31.5713 -31.5698
    -8.9688  -8.0737  -8.0644  -7.8843   4.1600   4.1641   4.3398   5.0709
     5.8617   6.0370   6.0607   6.4996   6.5076   6.5669   7.1625   7.5072

          k =-0.2488 0.2513 0.0000 (  5147 PWs)   bands (ev):

   -64.8316 -64.8260 -64.8255 -64.8245 -31.6234 -31.6191 -31.6179 -31.6072
   -31.5942 -31.5928 -31.5925 -31.5883 -31.5865 -31.5841 -31.5750 -31.5674
    -8.9662  -8.0733  -8.0549  -7.8905   4.1569   4.1660   4.3285   5.0712
     5.8470   6.0318   6.0793   6.4762   6.4927   6.5841   7.1734   7.5053

          k =-0.2488-0.2513 0.2500 (  5152 PWs)   bands (ev):

   -64.8306 -64.8260 -64.8259 -64.8251 -31.6258 -31.6249 -31.6236 -31.6057
   -31.5938 -31.5935 -31.5929 -31.5858 -31.5833 -31.5814 -31.5731 -31.5685
    -8.7964  -8.0376  -8.0309  -8.0244   3.9985   4.0001   4.0025   5.0890
     5.8380   5.8454   5.8531   6.6908   6.7054   6.7196   7.3535   7.3567

          k =-0.2488 0.2513-0.2500 (  5152 PWs)   bands (ev):

   -64.8306 -64.8260 -64.8259 -64.8251 -31.6258 -31.6249 -31.6236 -31.6057
   -31.5938 -31.5935 -31.5929 -31.5858 -31.5833 -31.5814 -31.5731 -31.5685
    -8.7964  -8.0376  -8.0309  -8.0244   3.9985   4.0001   4.0025   5.0890
     5.8380   5.8454   5.8531   6.6908   6.7054   6.7196   7.3535   7.3567

          k = 0.2488-0.2513-0.2500 (  5152 PWs)   bands (ev):

   -64.8306 -64.8260 -64.8259 -64.8251 -31.6258 -31.6249 -31.6236 -31.6057
   -31.5938 -31.5935 -31.5929 -31.5858 -31.5833 -31.5814 -31.5731 -31.5685
    -8.7964  -8.0376  -8.0309  -8.0244   3.9985   4.0001   4.0025   5.0890
     5.8380   5.8454   5.8531   6.6908   6.7054   6.7196   7.3535   7.3567

          k =-0.2488 0.2513 0.5000 (  5138 PWs)   bands (ev):

   -64.8283 -64.8279 -64.8259 -64.8253 -31.6277 -31.6276 -31.6210 -31.6209
   -31.5930 -31.5928 -31.5801 -31.5799 -31.5798 -31.5798 -31.5749 -31.5748
    -8.3994  -8.3993  -7.9975  -7.9974   3.8214   3.8215   4.1977   4.1978
     5.8299   5.8299   6.7402   6.7405   6.8684   6.8685   7.0158   7.0158

          k =-0.2488 0.5025 0.2500 (  5140 PWs)   bands (ev):

   -64.8283 -64.8279 -64.8259 -64.8254 -31.6281 -31.6279 -31.6206 -31.6205
   -31.5941 -31.5939 -31.5800 -31.5798 -31.5782 -31.5782 -31.5758 -31.5757
    -8.3948  -8.3944  -7.9991  -7.9990   3.8202   3.8203   4.1897   4.1903
     5.8308   5.8308   6.7360   6.7362   6.8755   6.8757   7.0073   7.0077

          k = 0.4975-0.2513 0.2500 (  5134 PWs)   bands (ev):

   -64.8284 -64.8280 -64.8259 -64.8253 -31.6276 -31.6275 -31.6213 -31.6212
   -31.5913 -31.5910 -31.5822 -31.5821 -31.5788 -31.5787 -31.5749 -31.5747
    -8.4043  -8.4036  -7.9957  -7.9957   3.8225   3.8225   4.2055   4.2059
     5.8295   5.8295   6.7439   6.7441   6.8610   6.8615   7.0238   7.0244

     highest occupied level (ev):     7.6833

!    total energy              =    -608.39268915 Ry
     Harris-Foulkes estimate   =    -608.39268915 Ry
     estimated scf accuracy    <          5.0E-10 Ry

     The total energy is the sum of the following terms:

     one-electron contribution =    -303.57519560 Ry
     hartree contribution      =     168.07725721 Ry
     xc contribution           =     -97.84681011 Ry
     ewald contribution        =    -375.04794065 Ry

     convergence has been achieved in   5 iterations

     Forces acting on atoms (cartesian axes, Ry/au):

     atom    1 type  1   force =    -0.00009629   -0.00005820   -0.00000011
     atom    2 type  1   force =    -0.00021567   -0.00003614    0.00000061
     atom    3 type  1   force =     0.00018924    0.00006130    0.00000060
     atom    4 type  1   force =     0.00019265   -0.00003960   -0.00000073
     atom    5 type  2   force =    -0.00001407   -0.00013906    0.00000031
     atom    6 type  2   force =    -0.00001496    0.00016568    0.00000029
     atom    7 type  2   force =    -0.00001412   -0.00013928   -0.00000044
     atom    8 type  2   force =    -0.00002679    0.00018529   -0.00000054

     Total force =     0.000491     Total SCF correction =     0.000251
     SCF correction compared to forces is large: reduce conv_thr to get better values


     Computing stress (Cartesian axis) and pressure

          total   stress  (Ry/bohr**3)                   (kbar)     P=  -67.88
  -0.00051988   0.00000000  -0.00000000        -76.48      0.00     -0.00
   0.00000000  -0.00040082   0.00000000          0.00    -58.96      0.00
  -0.00000000   0.00000000  -0.00046361         -0.00      0.00    -68.20


     number of scf cycles    =   4
     number of bfgs steps    =   3

     energy   old            =    -608.3926596436 Ry
     energy   new            =    -608.3926891452 Ry

     CASE: energy  _new < energy  _old

     new trust radius        =       0.0002539600 bohr
     new conv_thr            =       0.0000000002 Ry


ATOMIC_POSITIONS (alat)
Mg      -0.001127919   0.001178818  -0.000005776
Mg      -0.001181922   0.498793989   0.500005861
Mg       0.501149932   0.001236464   0.500005868
Mg       0.501142089   0.498800024  -0.000006033
O        0.501236246   0.001274247  -0.000006251
O       -0.001228909   0.498722240  -0.000006251
O       -0.001228061   0.001272922   0.500006278
O        0.501238544   0.498721297   0.500006304



     Writing output data file diamond.1.005.70.4.save
     NEW-OLD atomic charge density approx. for the potential

     Check: negative/imaginary core charge=   -0.000007    0.000000

     total cpu time spent up to now is       45.1 secs

     per-process dynamical memory:    52.1 Mb

     Self-consistent Calculation

     iteration #  1     ecut=    70.00 Ry     beta=0.70
     Davidson diagonalization with overlap
     ethr =  1.00E-06,  avg # of iterations =  2.0

     Threshold (ethr) on eigenvalues was too large:
     Diagonalizing with lowered threshold

     Davidson diagonalization with overlap
[...]
     new conv_thr            =            1.0E-10 Ry


ATOMIC_POSITIONS (alat)
Mg      -0.001140050   0.001167615  -0.000005779
Mg      -0.001216210   0.498788500   0.500005954
Mg       0.501179391   0.001246516   0.500005961
Mg       0.501172218   0.498793932  -0.000006148
O        0.501234271   0.001254259  -0.000006211
O       -0.001232027   0.498746238  -0.000006213
O       -0.001230935   0.001252854   0.500006217
O        0.501233342   0.498750086   0.500006219



     Writing output data file diamond.1.005.70.4.save
     NEW-OLD atomic charge density approx. for the potential

     Check: negative/imaginary core charge=   -0.000007    0.000000

     total cpu time spent up to now is       54.2 secs

     per-process dynamical memory:    52.1 Mb

     Self-consistent Calculation

     iteration #  1     ecut=    70.00 Ry     beta=0.70
     Davidson diagonalization with overlap
     ethr =  1.00E-06,  avg # of iterations =  2.0

     Threshold (ethr) on eigenvalues was too large:
     Diagonalizing with lowered threshold

     Davidson diagonalization with overlap
     ethr =  4.02E-11,  avg # of iterations =  3.6

     total cpu time spent up to now is       57.8 secs

     total energy              =    -608.39268950 Ry
     Harris-Foulkes estimate   =    -608.39268952 Ry
     estimated scf accuracy    <       0.00000003 Ry

     iteration #  2     ecut=    70.00 Ry     beta=0.70
     Davidson diagonalization with overlap
     ethr =  5.27E-11,  avg # of iterations =  2.1

     total cpu time spent up to now is       59.3 secs

     total energy              =    -608.39268951 Ry
     Harris-Foulkes estimate   =    -608.39268951 Ry
     estimated scf accuracy    <          5.9E-09 Ry

     iteration #  3     ecut=    70.00 Ry     beta=0.70
     Davidson diagonalization with overlap
     ethr =  9.17E-12,  avg # of iterations =  2.0

     total cpu time spent up to now is       60.7 secs

     total energy              =    -608.39268951 Ry
     Harris-Foulkes estimate   =    -608.39268951 Ry
     estimated scf accuracy    <          1.5E-10 Ry

     iteration #  4     ecut=    70.00 Ry     beta=0.70
     Davidson diagonalization with overlap
     ethr =  2.32E-13,  avg # of iterations =  3.0

     total cpu time spent up to now is       62.4 secs

     End of self-consistent calculation

          k = 0.0000 0.0000 0.0000 (  5153 PWs)   bands (ev):

   -64.8342 -64.8248 -64.8246 -64.8239 -31.6331 -31.6306 -31.6281 -31.5962
   -31.5950 -31.5943 -31.5919 -31.5911 -31.5899 -31.5682 -31.5635 -31.5609
    -9.3649  -7.9271  -7.9140  -7.9010   3.7419   3.7578   3.7746   6.3444
     6.3491   6.3754   6.3843   6.4113   6.4154   7.6604   7.6725   7.6833

          k = 0.0000 0.0000 0.2500 (  5157 PWs)   bands (ev):

   -64.8328 -64.8259 -64.8247 -64.8241 -31.6272 -31.6212 -31.6203 -31.6019
   -31.5945 -31.5941 -31.5922 -31.5914 -31.5859 -31.5778 -31.5738 -31.5680
    -9.1565  -8.1288  -7.8949  -7.8763   4.0332   4.0638   4.0951   5.8498
     5.8661   6.1462   6.1949   6.5144   6.5717   6.6590   7.4348   7.4654

          k = 0.0000 0.0000-0.5000 (  5134 PWs)   bands (ev):

   -64.8296 -64.8291 -64.8247 -64.8242 -31.6138 -31.6135 -31.6065 -31.6063
   -31.6016 -31.6016 -31.5910 -31.5910 -31.5827 -31.5824 -31.5778 -31.5776
    -8.6462  -8.6461  -7.8569  -7.8568   4.8345   4.8346   4.8602   4.8602
     5.1226   5.1229   5.9731   5.9735   6.9451   6.9452   6.9913   6.9914

          k = 0.0000 0.2513 0.0000 (  5161 PWs)   bands (ev):

   -64.8328 -64.8258 -64.8248 -64.8242 -31.6270 -31.6238 -31.6181 -31.6007
   -31.5969 -31.5924 -31.5906 -31.5898 -31.5898 -31.5751 -31.5740 -31.5713
    -9.1536  -8.1164  -7.8952  -7.8859   4.0366   4.0516   4.1034   5.8774
     5.8852   6.1392   6.1633   6.5110   6.5399   6.6483   7.4435   7.4586

          k = 0.0000 0.2513 0.2500 (  5155 PWs)   bands (ev):

   -64.8315 -64.8259 -64.8255 -64.8246 -31.6221 -31.6205 -31.6181 -31.6054
   -31.5978 -31.5965 -31.5908 -31.5864 -31.5848 -31.5839 -31.5780 -31.5663
    -8.9637  -8.0638  -8.0547  -7.8968   4.1581   4.1626   4.3173   5.0716
     5.8325   6.0497   6.0741   6.4617   6.4699   6.6002   7.1842   7.5034

          k = 0.0000 0.2513-0.5000 (  5146 PWs)   bands (ev):

   -64.8288 -64.8284 -64.8254 -64.8248 -31.6153 -31.6152 -31.6096 -31.6094
   -31.6091 -31.6091 -31.5876 -31.5873 -31.5822 -31.5821 -31.5725 -31.5723
    -8.5083  -8.5082  -7.9454  -7.9453   4.4114   4.4114   4.7392   4.7394
     5.0876   5.0877   6.5588   6.5590   6.5912   6.5913   7.0852   7.0853

          k = 0.0000-0.5025 0.0000 (  5126 PWs)   bands (ev):

   -64.8295 -64.8290 -64.8248 -64.8242 -31.6132 -31.6129 -31.6090 -31.6088
   -31.5982 -31.5982 -31.5886 -31.5886 -31.5832 -31.5829 -31.5808 -31.5806
    -8.6375  -8.6373  -7.8603  -7.8602   4.8478   4.8482   4.8609   4.8612
     5.1180   5.1182   5.9477   5.9480   6.9477   6.9478   6.9706   6.9707

          k = 0.0000-0.5025 0.2500 (  5150 PWs)   bands (ev):

   -64.8288 -64.8284 -64.8255 -64.8249 -31.6165 -31.6164 -31.6092 -31.6090
   -31.6085 -31.6085 -31.5882 -31.5880 -31.5805 -31.5805 -31.5739 -31.5738
    -8.5025  -8.5024  -7.9485  -7.9484   4.4107   4.4109   4.7353   4.7355
     5.0975   5.0978   6.5443   6.5445   6.5777   6.5778   7.0906   7.0907

          k = 0.0000-0.5025-0.5000 (  5168 PWs)   bands (ev):

   -64.8271 -64.8271 -64.8271 -64.8261 -31.6178 -31.6176 -31.6175 -31.6175
   -31.5996 -31.5994 -31.5994 -31.5991 -31.5732 -31.5730 -31.5729 -31.5729
    -8.2022  -8.2021  -8.2021  -8.2020   4.2742   4.2743   4.2744   4.2745
     5.7690   5.7691   5.7694   5.7695   7.0707   7.0708   7.0708   7.0710

          k = 0.2488 0.0000 0.0000 (  5164 PWs)   bands (ev):

   -64.8328 -64.8261 -64.8246 -64.8241 -31.6245 -31.6237 -31.6212 -31.5987
   -31.5965 -31.5956 -31.5948 -31.5884 -31.5850 -31.5821 -31.5712 -31.5680
    -9.1593  -8.1414  -7.8851  -7.8759   4.0451   4.0608   4.0858   5.8306
     5.8390   6.1778   6.2024   6.5457   6.5742   6.6682   7.4415   7.4570

          k = 0.2488 0.0000 0.2500 (  5155 PWs)   bands (ev):

   -64.8316 -64.8260 -64.8256 -64.8244 -31.6232 -31.6209 -31.6164 -31.6086
   -31.5937 -31.5911 -31.5901 -31.5896 -31.5889 -31.5862 -31.5713 -31.5698
    -8.9688  -8.0737  -8.0644  -7.8843   4.1600   4.1641   4.3398   5.0709
     5.8617   6.0370   6.0607   6.4996   6.5076   6.5669   7.1625   7.5072

          k = 0.2488 0.0000-0.5000 (  5142 PWs)   bands (ev):

   -64.8289 -64.8284 -64.8254 -64.8248 -31.6185 -31.6183 -31.6101 -31.6101
   -31.6027 -31.6025 -31.5845 -31.5845 -31.5817 -31.5814 -31.5777 -31.5776
    -8.5115  -8.5113  -7.9491  -7.9490   4.4255   4.4256   4.7629   4.7631
     5.1051   5.1052   6.5366   6.5368   6.5602   6.5603   7.1026   7.1026

          k = 0.2488 0.2513 0.0000 (  5147 PWs)   bands (ev):

   -64.8316 -64.8260 -64.8255 -64.8245 -31.6234 -31.6191 -31.6179 -31.6072
   -31.5942 -31.5928 -31.5925 -31.5883 -31.5865 -31.5841 -31.5750 -31.5674
    -8.9662  -8.0733  -8.0549  -7.8905   4.1569   4.1660   4.3285   5.0712
     5.8470   6.0318   6.0793   6.4762   6.4927   6.5841   7.1734   7.5053

          k = 0.2488 0.2513 0.2500 (  5152 PWs)   bands (ev):

   -64.8306 -64.8260 -64.8259 -64.8251 -31.6258 -31.6249 -31.6236 -31.6057
   -31.5938 -31.5935 -31.5929 -31.5858 -31.5833 -31.5814 -31.5731 -31.5685
    -8.7964  -8.0376  -8.0309  -8.0244   3.9985   4.0001   4.0025   5.0890
     5.8380   5.8454   5.8530   6.6908   6.7054   6.7196   7.3535   7.3567

          k = 0.2488 0.2513-0.5000 (  5138 PWs)   bands (ev):

   -64.8283 -64.8279 -64.8259 -64.8253 -31.6277 -31.6276 -31.6210 -31.6209
   -31.5930 -31.5928 -31.5801 -31.5799 -31.5798 -31.5797 -31.5749 -31.5748
    -8.3994  -8.3993  -7.9975  -7.9974   3.8214   3.8215   4.1977   4.1978
     5.8299   5.8299   6.7402   6.7405   6.8684   6.8685   7.0158   7.0158

          k = 0.2488-0.5025 0.0000 (  5158 PWs)   bands (ev):

   -64.8288 -64.8284 -64.8255 -64.8249 -31.6182 -31.6180 -31.6091 -31.6090
   -31.6061 -31.6059 -31.5854 -31.5851 -31.5820 -31.5820 -31.5766 -31.5765
    -8.5041  -8.5039  -7.9503  -7.9502   4.4181   4.4183   4.7472   4.7474
     5.1058   5.1061   6.5329   6.5332   6.5622   6.5624   7.0990   7.0990

          k = 0.2488-0.5025 0.2500 (  5140 PWs)   bands (ev):

   -64.8283 -64.8279 -64.8259 -64.8254 -31.6281 -31.6279 -31.6206 -31.6205
   -31.5941 -31.5939 -31.5800 -31.5798 -31.5782 -31.5782 -31.5758 -31.5757
    -8.3946  -8.3945  -7.9991  -7.9990   3.8202   3.8203   4.1899   4.1900
     5.8308   5.8308   6.7360   6.7362   6.8755   6.8757   7.0074   7.0075

          k = 0.2488-0.5025-0.5000 (  5136 PWs)   bands (ev):

   -64.8271 -64.8271 -64.8271 -64.8261 -31.6311 -31.6309 -31.6309 -31.6308
   -31.5850 -31.5848 -31.5848 -31.5846 -31.5730 -31.5728 -31.5727 -31.5727
    -8.1664  -8.1662  -8.1662  -8.1661   3.6339   3.6340   3.6340   3.6340
     6.5181   6.5181   6.5183   6.5184   7.0714   7.0715   7.0716   7.0717

          k =-0.4975 0.0000 0.0000 (  5150 PWs)   bands (ev):

   -64.8296 -64.8292 -64.8246 -64.8241 -31.6100 -31.6098 -31.6072 -31.6070
   -31.6042 -31.6042 -31.5965 -31.5964 -31.5797 -31.5795 -31.5773 -31.5771
    -8.6552  -8.6545  -7.8533  -7.8532   4.8337   4.8348   4.8463   4.8474
     5.1268   5.1271   5.9976   5.9979   6.9653   6.9658   6.9886   6.9891

          k =-0.4975 0.0000 0.2500 (  5148 PWs)   bands (ev):

   -64.8289 -64.8285 -64.8253 -64.8248 -31.6175 -31.6174 -31.6116 -31.6115
   -31.6032 -31.6030 -31.5861 -31.5861 -31.5813 -31.5811 -31.5761 -31.5759
    -8.5174  -8.5169  -7.9459  -7.9458   4.4253   4.4258   4.7663   4.7666
     5.0948   5.0959   6.5510   6.5514   6.5731   6.5738   7.0970   7.0973

          k =-0.4975 0.0000-0.5000 (  5176 PWs)   bands (ev):

   -64.8271 -64.8271 -64.8271 -64.8261 -31.6193 -31.6191 -31.6190 -31.6190
   -31.5931 -31.5929 -31.5929 -31.5926 -31.5780 -31.5778 -31.5777 -31.5777
    -8.2092  -8.2091  -8.2089  -8.2087   4.3121   4.3122   4.3122   4.3124
     5.7658   5.7658   5.7668   5.7669   7.0554   7.0556   7.0557   7.0559

          k =-0.4975 0.2513 0.0000 (  5156 PWs)   bands (ev):

   -64.8289 -64.8285 -64.8253 -64.8248 -31.6164 -31.6163 -31.6110 -31.6110
   -31.6071 -31.6068 -31.5850 -31.5849 -31.5841 -31.5838 -31.5735 -31.5734
    -8.5158  -8.5152  -7.9440  -7.9439   4.4185   4.4190   4.7545   4.7548
     5.0856   5.0866   6.5620   6.5624   6.5887   6.5894   7.0879   7.0881

          k =-0.4975 0.2513 0.2500 (  5134 PWs)   bands (ev):

   -64.8284 -64.8280 -64.8259 -64.8253 -31.6276 -31.6275 -31.6213 -31.6212
   -31.5913 -31.5910 -31.5822 -31.5821 -31.5788 -31.5787 -31.5749 -31.5747
    -8.4042  -8.4037  -7.9957  -7.9957   3.8225   3.8225   4.2055   4.2058
     5.8295   5.8295   6.7439   6.7441   6.8611   6.8614   7.0239   7.0243

          k =-0.4975 0.2513-0.5000 (  5164 PWs)   bands (ev):

   -64.8271 -64.8271 -64.8271 -64.8261 -31.6321 -31.6318 -31.6318 -31.6318
   -31.5813 -31.5811 -31.5810 -31.5809 -31.5771 -31.5769 -31.5769 -31.5768
    -8.1700  -8.1699  -8.1697  -8.1696   3.6463   3.6464   3.6465   3.6465
     6.5297   6.5297   6.5302   6.5303   7.0565   7.0566   7.0567   7.0568

          k =-0.4975-0.5025 0.0000 (  5196 PWs)   bands (ev):

   -64.8271 -64.8271 -64.8271 -64.8261 -31.6188 -31.6186 -31.6185 -31.6184
   -31.5971 -31.5969 -31.5969 -31.5966 -31.5760 -31.5758 -31.5756 -31.5756
    -8.2057  -8.2056  -8.2053  -8.2052   4.2931   4.2932   4.2932   4.2934
     5.7665   5.7667   5.7675   5.7677   7.0627   7.0628   7.0629   7.0631

          k =-0.4975-0.5025 0.2500 (  5144 PWs)   bands (ev):

   -64.8271 -64.8271 -64.8271 -64.8261 -31.6317 -31.6314 -31.6314 -31.6313
   -31.5833 -31.5831 -31.5831 -31.5830 -31.5746 -31.5744 -31.5743 -31.5742
    -8.1682  -8.1680  -8.1679  -8.1678   3.6401   3.6402   3.6403   3.6403
     6.5238   6.5240   6.5244   6.5245   7.0638   7.0640   7.0640   7.0642

          k =-0.4975-0.5025-0.5000 (  5136 PWs)   bands (ev):

   -64.8271 -64.8271 -64.8271 -64.8261 -31.6395 -31.6392 -31.6392 -31.6392
   -31.5774 -31.5772 -31.5771 -31.5770 -31.5722 -31.5720 -31.5720 -31.5719
    -8.1300  -8.1298  -8.1298  -8.1298   3.2173   3.2174   3.2175   3.2175
     7.0564   7.0564   7.0565   7.0567   7.0733   7.0734   7.0735   7.0736

          k = 0.0000-0.2513 0.2500 (  5155 PWs)   bands (ev):

   -64.8315 -64.8259 -64.8255 -64.8246 -31.6221 -31.6205 -31.6181 -31.6054
   -31.5978 -31.5965 -31.5908 -31.5864 -31.5848 -31.5839 -31.5780 -31.5663
    -8.9637  -8.0638  -8.0547  -7.8968   4.1581   4.1626   4.3173   5.0716
     5.8325   6.0497   6.0741   6.4617   6.4699   6.6002   7.1842   7.5034

          k =-0.2488 0.0000 0.2500 (  5155 PWs)   bands (ev):

   -64.8316 -64.8260 -64.8256 -64.8244 -31.6232 -31.6209 -31.6164 -31.6086
   -31.5937 -31.5911 -31.5901 -31.5896 -31.5889 -31.5862 -31.5713 -31.5698
    -8.9688  -8.0737  -8.0644  -7.8843   4.1600   4.1641   4.3398   5.0709
     5.8617   6.0370   6.0607   6.4996   6.5076   6.5669   7.1625   7.5072

          k =-0.2488 0.2513 0.0000 (  5147 PWs)   bands (ev):

   -64.8316 -64.8260 -64.8255 -64.8245 -31.6234 -31.6191 -31.6179 -31.6072
   -31.5942 -31.5928 -31.5925 -31.5883 -31.5865 -31.5841 -31.5750 -31.5674
    -8.9662  -8.0733  -8.0549  -7.8905   4.1569   4.1660   4.3285   5.0712
     5.8470   6.0318   6.0793   6.4762   6.4927   6.5841   7.1734   7.5053

          k =-0.2488-0.2513 0.2500 (  5152 PWs)   bands (ev):

   -64.8306 -64.8260 -64.8259 -64.8251 -31.6258 -31.6249 -31.6236 -31.6057
   -31.5938 -31.5935 -31.5929 -31.5858 -31.5833 -31.5814 -31.5731 -31.5685
    -8.7964  -8.0376  -8.0309  -8.0244   3.9985   4.0001   4.0025   5.0890
     5.8380   5.8454   5.8530   6.6908   6.7054   6.7196   7.3535   7.3567

          k =-0.2488 0.2513-0.2500 (  5152 PWs)   bands (ev):

   -64.8306 -64.8260 -64.8259 -64.8251 -31.6258 -31.6249 -31.6236 -31.6057
   -31.5938 -31.5935 -31.5929 -31.5858 -31.5833 -31.5814 -31.5731 -31.5685
    -8.7964  -8.0376  -8.0309  -8.0244   3.9985   4.0001   4.0025   5.0890
     5.8380   5.8454   5.8530   6.6908   6.7054   6.7196   7.3535   7.3567

          k = 0.2488-0.2513-0.2500 (  5152 PWs)   bands (ev):

   -64.8306 -64.8260 -64.8259 -64.8251 -31.6258 -31.6249 -31.6236 -31.6057
   -31.5938 -31.5935 -31.5929 -31.5858 -31.5833 -31.5814 -31.5731 -31.5685
    -8.7964  -8.0376  -8.0309  -8.0244   3.9985   4.0001   4.0025   5.0890
     5.8380   5.8454   5.8530   6.6908   6.7054   6.7196   7.3535   7.3567

          k =-0.2488 0.2513 0.5000 (  5138 PWs)   bands (ev):

   -64.8283 -64.8279 -64.8259 -64.8253 -31.6277 -31.6276 -31.6210 -31.6209
   -31.5930 -31.5928 -31.5801 -31.5799 -31.5798 -31.5798 -31.5749 -31.5748
    -8.3994  -8.3993  -7.9975  -7.9974   3.8214   3.8215   4.1977   4.1978
     5.8299   5.8299   6.7402   6.7405   6.8684   6.8685   7.0158   7.0158

          k =-0.2488 0.5025 0.2500 (  5140 PWs)   bands (ev):

   -64.8283 -64.8279 -64.8259 -64.8254 -31.6281 -31.6279 -31.6206 -31.6205
   -31.5941 -31.5939 -31.5800 -31.5798 -31.5782 -31.5782 -31.5758 -31.5757
    -8.3946  -8.3945  -7.9991  -7.9990   3.8202   3.8203   4.1899   4.1900
     5.8308   5.8308   6.7360   6.7362   6.8755   6.8757   7.0074   7.0075

          k = 0.4975-0.2513 0.2500 (  5134 PWs)   bands (ev):

   -64.8284 -64.8280 -64.8259 -64.8253 -31.6276 -31.6275 -31.6213 -31.6212
   -31.5913 -31.5910 -31.5822 -31.5821 -31.5788 -31.5787 -31.5749 -31.5747
    -8.4042  -8.4037  -7.9957  -7.9957   3.8225   3.8225   4.2055   4.2058
     5.8295   5.8295   6.7439   6.7441   6.8611   6.8614   7.0239   7.0243

     highest occupied level (ev):     7.6833

!    total energy              =    -608.39268951 Ry
     Harris-Foulkes estimate   =    -608.39268951 Ry
     estimated scf accuracy    <          8.5E-11 Ry

     The total energy is the sum of the following terms:

     one-electron contribution =    -303.57515685 Ry
     hartree contribution      =     168.07724276 Ry
     xc contribution           =     -97.84681192 Ry
     ewald contribution        =    -375.04796350 Ry

     convergence has been achieved in   4 iterations

     Forces acting on atoms (cartesian axes, Ry/au):

     atom    1 type  1   force =    -0.00000443   -0.00004556    0.00000011
     atom    2 type  1   force =    -0.00008066   -0.00000644    0.00000019
     atom    3 type  1   force =     0.00006434    0.00002218    0.00000018
     atom    4 type  1   force =     0.00006692   -0.00000830   -0.00000026
     atom    5 type  2   force =    -0.00000454   -0.00004010    0.00000008
     atom    6 type  2   force =    -0.00000994    0.00004701    0.00000007
     atom    7 type  2   force =    -0.00000946   -0.00004019   -0.00000013
     atom    8 type  2   force =    -0.00002223    0.00007141   -0.00000025

     Total force =     0.000170     Total SCF correction =     0.000008


     Computing stress (Cartesian axis) and pressure

          total   stress  (Ry/bohr**3)                   (kbar)     P=  -67.88
  -0.00051987   0.00000000  -0.00000000        -76.48      0.00     -0.00
   0.00000000  -0.00040081   0.00000000          0.00    -58.96      0.00
  -0.00000000   0.00000000  -0.00046360         -0.00      0.00    -68.20


     bfgs converged in   6 scf cycles and   5 bfgs steps
     (criteria: energy <  1.0E-05 Ry, force <  1.0E-04 Ry/Bohr)

     End of BFGS Geometry Optimization

     Final energy   =    -608.3926895071 Ry
Begin final coordinates

ATOMIC_POSITIONS (alat)
Mg      -0.001140050   0.001167615  -0.000005779
Mg      -0.001216210   0.498788500   0.500005954
Mg       0.501179391   0.001246516   0.500005961
Mg       0.501172218   0.498793932  -0.000006148
O        0.501234271   0.001254259  -0.000006211
O       -0.001232027   0.498746238  -0.000006213
O       -0.001230935   0.001252854   0.500006217
O        0.501233342   0.498750086   0.500006219
End final coordinates



     Writing output data file diamond.1.005.70.4.save
 
     init_run     :      0.63s CPU      0.65s WALL (       1 calls)
     electrons    :     55.95s CPU     57.49s WALL (       6 calls)
     update_pot   :      0.56s CPU      0.57s WALL (       5 calls)
     forces       :      1.11s CPU      1.12s WALL (       6 calls)
     stress       :      2.64s CPU      2.66s WALL (       6 calls)

     Called by init_run:
     wfcinit      :      0.51s CPU      0.52s WALL (       1 calls)
     potinit      :      0.05s CPU      0.05s WALL (       1 calls)

     Called by electrons:
     c_bands      :     48.90s CPU     50.29s WALL (      36 calls)
     sum_band     :      6.83s CPU      6.96s WALL (      36 calls)
     v_of_rho     :      0.19s CPU      0.19s WALL (      37 calls)
     mix_rho      :      0.02s CPU      0.03s WALL (      36 calls)

     Called by c_bands:
     init_us_2    :      0.71s CPU      0.76s WALL (    3060 calls)
     cegterg      :     45.65s CPU     46.91s WALL (    1296 calls)

     Called by sum_band:

     Called by *egterg:
     h_psi        :     33.47s CPU     34.20s WALL (    4271 calls)
     g_psi        :      0.25s CPU      0.25s WALL (    2939 calls)
     cdiaghg      :      6.45s CPU      6.45s WALL (    3875 calls)

     Called by h_psi:
     h_psi:pot    :     33.33s CPU     34.02s WALL (    4271 calls)
     h_psi:calbec :      1.90s CPU      1.90s WALL (    4271 calls)
     vloc_psi     :     29.88s CPU     30.55s WALL (    4271 calls)
     add_vuspsi   :      1.55s CPU      1.56s WALL (    4271 calls)

     General routines
     calbec       :      2.55s CPU      2.55s WALL (    5351 calls)
     fft          :      0.14s CPU      0.15s WALL (     566 calls)
     fftw         :     33.93s CPU     33.48s WALL (  260748 calls)
     davcio       :      0.00s CPU      0.01s WALL (      36 calls)
 
     Parallel routines
     fft_scatter  :      8.97s CPU      8.82s WALL (  261314 calls)
 
     PWSCF        :  1m 1.39s CPU     1m 3.16s WALL

 
   This run was terminated on:  16:17:11  22Apr2018            

=------------------------------------------------------------------------------=
   JOB DONE.
=------------------------------------------------------------------------------=
