
     Program PWSCF v.6.1 (svn rev. 13369) starts on 22Apr2018 at 16:14:10 

     This program is part of the open-source Quantum ESPRESSO suite
     for quantum simulation of materials; please cite
         "P. Giannozzi et al., J. Phys.:Condens. Matter 21 395502 (2009);
          URL http://www.quantum-espresso.org", 
     in publications or presentations arising from this work. More details at
     http://www.quantum-espresso.org/quote

     Parallel version (MPI), running on     8 processors
     R & G space division:  proc/nbgrp/npool/nimage =       8
     Waiting for input...
     Reading input from standard input
Warning: card       &CELL ignored
Warning: card       CELL_DYNAMICS = 'BFGS' ignored
Warning: card       PRESS = 0.0D0 ignored
Warning: card       PRESS_CONV_THR = 0.01D0 ignored
Warning: card       / ignored

     Current dimensions of program PWSCF are:
     Max number of different atomic species (ntypx) = 10
     Max number of k-points (npk) =  40000
     Max angular momentum in pseudopotentials (lmaxx) =  3

     Subspace diagonalization in iterative solution of the eigenvalue problem:
     a serial algorithm will be used

 
     Parallelization info
     --------------------
     sticks:   dense  smooth     PW     G-vecs:    dense   smooth      PW
     Min         180     180     52                 5154     5154     816
     Max         181     181     53                 5157     5157     819
     Sum        1445    1445    421                41239    41239    6547
 


     bravais-lattice index     =            0
     lattice parameter (alat)  =       8.0448  a.u.
     unit-cell volume          =     520.6402 (a.u.)^3
     number of atoms/cell      =            8
     number of atomic types    =            2
     number of electrons       =        64.00
     number of Kohn-Sham states=           32
     kinetic-energy cutoff     =      70.0000  Ry
     charge density cutoff     =     280.0000  Ry
     convergence threshold     =      1.0E-08
     mixing beta               =       0.7000
     number of iterations used =            8  plain     mixing
     Exchange-correlation      = PBE ( 1  4  3  4 0 0)
     nstep                     =           50


     celldm(1)=   8.044750  celldm(2)=   0.000000  celldm(3)=   0.000000
     celldm(4)=   0.000000  celldm(5)=   0.000000  celldm(6)=   0.000000

     crystal axes: (cart. coord. in units of alat)
               a(1) = (   1.003571   0.000000   0.000000 )  
               a(2) = (   0.000000   0.996429   0.000000 )  
               a(3) = (   0.000000   0.000000   1.000013 )  

     reciprocal axes: (cart. coord. in units 2 pi/alat)
               b(1) = (  0.996442  0.000000  0.000000 )  
               b(2) = (  0.000000  1.003584  0.000000 )  
               b(3) = (  0.000000  0.000000  0.999987 )  


     PseudoPot. # 1 for Mg read from file:
     ../pseudo/Mg.pbe.UPF
     MD5 check sum: 4c04d8c6e0476e83eaecaf72fa8acc4d
     Pseudo is Norm-conserving, Zval = 10.0
     Generated using ONCVPSP code by D. R. Hamann
     Using radial grid of 1510 points,  4 beta functions with: 
                l(1) =   0
                l(2) =   0
                l(3) =   1
                l(4) =   1

     PseudoPot. # 2 for O  read from file:
     ../pseudo/O.pbe.UPF
     MD5 check sum: 3e3f909f7470e8921608ab6b1f57bbae
     Pseudo is Norm-conserving + core correction, Zval =  6.0
     Generated using ONCVPSP code by D. R. Hamann
     Using radial grid of  936 points,  5 beta functions with: 
                l(1) =   0
                l(2) =   0
                l(3) =   1
                l(4) =   1
                l(5) =   2

     atomic species   valence    mass     pseudopotential
        Mg            10.00    24.30500     Mg( 1.00)
        O              6.00    15.99940     O ( 1.00)

     No symmetry found



   Cartesian axes

     site n.     atom                  positions (alat units)
         1           Mg  tau(   1) = (   0.0000000   0.0000000   0.0000000  )
         2           Mg  tau(   2) = (   0.0000000   0.5000000   0.5000000  )
         3           Mg  tau(   3) = (   0.5000000   0.0000000   0.5000000  )
         4           Mg  tau(   4) = (   0.5000000   0.5000000   0.0000000  )
         5           O   tau(   5) = (   0.5000000   0.0000000   0.0000000  )
         6           O   tau(   6) = (   0.0000000   0.5000000   0.0000000  )
         7           O   tau(   7) = (   0.0000000   0.0000000   0.5000000  )
         8           O   tau(   8) = (   0.5000000   0.5000000   0.5000000  )

     number of k points=    36
                       cart. coord. in units 2pi/alat
        k(    1) = (   0.0000000   0.0000000   0.0000000), wk =   0.0312500
        k(    2) = (   0.0000000   0.0000000   0.2499968), wk =   0.0625000
        k(    3) = (   0.0000000   0.0000000  -0.4999936), wk =   0.0312500
        k(    4) = (   0.0000000   0.2508959   0.0000000), wk =   0.0625000
        k(    5) = (   0.0000000   0.2508959   0.2499968), wk =   0.0625000
        k(    6) = (   0.0000000   0.2508959  -0.4999936), wk =   0.0625000
        k(    7) = (   0.0000000  -0.5017919   0.0000000), wk =   0.0312500
        k(    8) = (   0.0000000  -0.5017919   0.2499968), wk =   0.0625000
        k(    9) = (   0.0000000  -0.5017919  -0.4999936), wk =   0.0312500
        k(   10) = (   0.2491104   0.0000000   0.0000000), wk =   0.0625000
        k(   11) = (   0.2491104   0.0000000   0.2499968), wk =   0.0625000
        k(   12) = (   0.2491104   0.0000000  -0.4999936), wk =   0.0625000
        k(   13) = (   0.2491104   0.2508959   0.0000000), wk =   0.0625000
        k(   14) = (   0.2491104   0.2508959   0.2499968), wk =   0.0625000
        k(   15) = (   0.2491104   0.2508959  -0.4999936), wk =   0.0625000
        k(   16) = (   0.2491104  -0.5017919   0.0000000), wk =   0.0625000
        k(   17) = (   0.2491104  -0.5017919   0.2499968), wk =   0.0625000
        k(   18) = (   0.2491104  -0.5017919  -0.4999936), wk =   0.0625000
        k(   19) = (  -0.4982209   0.0000000   0.0000000), wk =   0.0312500
        k(   20) = (  -0.4982209   0.0000000   0.2499968), wk =   0.0625000
        k(   21) = (  -0.4982209   0.0000000  -0.4999936), wk =   0.0312500
        k(   22) = (  -0.4982209   0.2508959   0.0000000), wk =   0.0625000
        k(   23) = (  -0.4982209   0.2508959   0.2499968), wk =   0.0625000
        k(   24) = (  -0.4982209   0.2508959  -0.4999936), wk =   0.0625000
        k(   25) = (  -0.4982209  -0.5017919   0.0000000), wk =   0.0312500
        k(   26) = (  -0.4982209  -0.5017919   0.2499968), wk =   0.0625000
        k(   27) = (  -0.4982209  -0.5017919  -0.4999936), wk =   0.0312500
        k(   28) = (   0.0000000  -0.2508959   0.2499968), wk =   0.0625000
        k(   29) = (  -0.2491104   0.0000000   0.2499968), wk =   0.0625000
        k(   30) = (  -0.2491104   0.2508959   0.0000000), wk =   0.0625000
        k(   31) = (  -0.2491104  -0.2508959   0.2499968), wk =   0.0625000
        k(   32) = (  -0.2491104   0.2508959  -0.2499968), wk =   0.0625000
        k(   33) = (   0.2491104  -0.2508959  -0.2499968), wk =   0.0625000
        k(   34) = (  -0.2491104   0.2508959   0.4999936), wk =   0.0625000
        k(   35) = (  -0.2491104   0.5017919   0.2499968), wk =   0.0625000
        k(   36) = (   0.4982209  -0.2508959   0.2499968), wk =   0.0625000

     Dense  grid:    41239 G-vectors     FFT dimensions: (  45,  45,  45)

     Estimated max dynamical RAM per process >      17.22MB

     Estimated total allocated dynamical RAM >     137.73MB

     Check: negative/imaginary core charge=   -0.000007    0.000000

     Initial potential from superposition of free atoms

     starting charge   63.99678, renormalised to   64.00000
     Starting wfc are   36 randomized atomic wfcs

     total cpu time spent up to now is        0.8 secs

     per-process dynamical memory:    51.3 Mb

     Self-consistent Calculation

     iteration #  1     ecut=    70.00 Ry     beta=0.70
     Davidson diagonalization with overlap
     ethr =  1.00E-02,  avg # of iterations =  2.0

     total cpu time spent up to now is        2.3 secs

     total energy              =    -607.71953056 Ry
     Harris-Foulkes estimate   =    -608.84366318 Ry
     estimated scf accuracy    <       1.56198267 Ry

     iteration #  2     ecut=    70.00 Ry     beta=0.70
     Davidson diagonalization with overlap
     ethr =  2.44E-03,  avg # of iterations =  2.9

     total cpu time spent up to now is        3.9 secs

     total energy              =    -608.10549553 Ry
     Harris-Foulkes estimate   =    -608.80341611 Ry
     estimated scf accuracy    <       1.44896049 Ry

     iteration #  3     ecut=    70.00 Ry     beta=0.70
     Davidson diagonalization with overlap
     ethr =  2.26E-03,  avg # of iterations =  2.0

     total cpu time spent up to now is        5.4 secs

     total energy              =    -608.39109131 Ry
     Harris-Foulkes estimate   =    -608.39174907 Ry
     estimated scf accuracy    <       0.00675355 Ry

     iteration #  4     ecut=    70.00 Ry     beta=0.70
     Davidson diagonalization with overlap
     ethr =  1.06E-05,  avg # of iterations =  2.0

     total cpu time spent up to now is        6.9 secs

     total energy              =    -608.39256526 Ry
     Harris-Foulkes estimate   =    -608.39260976 Ry
     estimated scf accuracy    <       0.00011090 Ry

     iteration #  5     ecut=    70.00 Ry     beta=0.70
     Davidson diagonalization with overlap
     ethr =  1.73E-07,  avg # of iterations =  1.5

     total cpu time spent up to now is        8.1 secs

     total energy              =    -608.39257272 Ry
     Harris-Foulkes estimate   =    -608.39257118 Ry
     estimated scf accuracy    <       0.00001035 Ry

     iteration #  6     ecut=    70.00 Ry     beta=0.70
     Davidson diagonalization with overlap
     ethr =  1.62E-08,  avg # of iterations =  2.0

     total cpu time spent up to now is        9.8 secs

     total energy              =    -608.39257428 Ry
     Harris-Foulkes estimate   =    -608.39257471 Ry
     estimated scf accuracy    <       0.00000102 Ry

     iteration #  7     ecut=    70.00 Ry     beta=0.70
     Davidson diagonalization with overlap
     ethr =  1.60E-09,  avg # of iterations =  2.0

     total cpu time spent up to now is       11.2 secs

     total energy              =    -608.39257431 Ry
     Harris-Foulkes estimate   =    -608.39257439 Ry
     estimated scf accuracy    <       0.00000023 Ry

     iteration #  8     ecut=    70.00 Ry     beta=0.70
     Davidson diagonalization with overlap
     ethr =  3.64E-10,  avg # of iterations =  2.0

     total cpu time spent up to now is       12.6 secs

     total energy              =    -608.39257430 Ry
     Harris-Foulkes estimate   =    -608.39257432 Ry
     estimated scf accuracy    <       0.00000005 Ry

     iteration #  9     ecut=    70.00 Ry     beta=0.70
     Davidson diagonalization with overlap
     ethr =  7.93E-11,  avg # of iterations =  2.0

     total cpu time spent up to now is       14.4 secs

     End of self-consistent calculation

          k = 0.0000 0.0000 0.0000 (  5153 PWs)   bands (ev):

   -64.8341 -64.8247 -64.8245 -64.8238 -31.6323 -31.6306 -31.6287 -31.5952
   -31.5944 -31.5938 -31.5922 -31.5916 -31.5908 -31.5673 -31.5634 -31.5615
    -9.3650  -7.9234  -7.9141  -7.9048   3.7464   3.7577   3.7698   6.3545
     6.3579   6.3766   6.3830   6.4023   6.4052   7.6637   7.6724   7.6799

          k = 0.0000 0.0000 0.2500 (  5167 PWs)   bands (ev):

   -64.8327 -64.8258 -64.8246 -64.8240 -31.6264 -31.6222 -31.6202 -31.6009
   -31.5958 -31.5943 -31.5931 -31.5907 -31.5864 -31.5777 -31.5730 -31.5687
    -9.1566  -8.1290  -7.8923  -7.8790   4.0374   4.0593   4.0949   5.8519
     5.8632   6.1528   6.1875   6.5228   6.5635   6.6588   7.4392   7.4610

          k = 0.0000 0.0000-0.5000 (  5126 PWs)   bands (ev):

   -64.8295 -64.8290 -64.8246 -64.8240 -31.6124 -31.6122 -31.6072 -31.6069
   -31.6015 -31.6014 -31.5907 -31.5906 -31.5819 -31.5816 -31.5784 -31.5782
    -8.6464  -8.6463  -7.8569  -7.8568   4.8383   4.8384   4.8564   4.8566
     5.1226   5.1229   5.9729   5.9732   6.9518   6.9519   6.9848   6.9849

          k = 0.0000 0.2509 0.0000 (  5161 PWs)   bands (ev):

   -64.8326 -64.8257 -64.8247 -64.8240 -31.6262 -31.6238 -31.6187 -31.5999
   -31.5971 -31.5916 -31.5909 -31.5905 -31.5894 -31.5758 -31.5731 -31.5711
    -9.1546  -8.1200  -7.8925  -7.8859   4.0398   4.0504   4.1010   5.8717
     5.8774   6.1480   6.1653   6.5199   6.5406   6.6512   7.4453   7.4562

          k = 0.0000 0.2509 0.2500 (  5151 PWs)   bands (ev):

   -64.8314 -64.8258 -64.8254 -64.8244 -31.6213 -31.6204 -31.6185 -31.6056
   -31.5961 -31.5954 -31.5916 -31.5862 -31.5853 -31.5844 -31.5769 -31.5667
    -8.9647  -8.0640  -8.0574  -7.8951   4.1589   4.1624   4.3203   5.0714
     5.8365   6.0516   6.0689   6.4681   6.4741   6.5956   7.1812   7.5040

          k = 0.0000 0.2509-0.5000 (  5146 PWs)   bands (ev):

   -64.8287 -64.8283 -64.8253 -64.8247 -31.6156 -31.6155 -31.6094 -31.6094
   -31.6081 -31.6079 -31.5868 -31.5865 -31.5824 -31.5823 -31.5733 -31.5732
    -8.5089  -8.5088  -7.9460  -7.9459   4.4133   4.4134   4.7424   4.7426
     5.0900   5.0901   6.5547   6.5549   6.5876   6.5876   7.0876   7.0877

          k = 0.0000-0.5018 0.0000 (  5110 PWs)   bands (ev):

   -64.8294 -64.8289 -64.8247 -64.8241 -31.6117 -31.6107 -31.6091 -31.6080
   -31.5994 -31.5982 -31.5889 -31.5889 -31.5824 -31.5818 -31.5807 -31.5801
    -8.6497  -8.6303  -7.8594  -7.8592   4.8327   4.8419   4.8632   4.8724
     5.1133   5.1257   5.9549   5.9552   6.9441   6.9607   6.9629   6.9793

          k = 0.0000-0.5018 0.2500 (  5146 PWs)   bands (ev):

   -64.8287 -64.8282 -64.8253 -64.8247 -31.6168 -31.6162 -31.6094 -31.6087
   -31.6081 -31.6072 -31.5875 -31.5868 -31.5811 -31.5808 -31.5741 -31.5740
    -8.5132  -8.4961  -7.9498  -7.9466   4.4069   4.4188   4.7329   4.7466
     5.0825   5.1121   6.5390   6.5502   6.5673   6.5886   7.0887   7.0944

          k = 0.0000-0.5018-0.5000 (  5176 PWs)   bands (ev):

   -64.8271 -64.8270 -64.8270 -64.8260 -31.6180 -31.6178 -31.6174 -31.6174
   -31.5991 -31.5988 -31.5982 -31.5980 -31.5742 -31.5740 -31.5736 -31.5735
    -8.2086  -8.2085  -8.1979  -8.1978   4.2770   4.2771   4.2822   4.2824
     5.7554   5.7555   5.7818   5.7819   7.0641   7.0642   7.0729   7.0730

          k = 0.2491 0.0000 0.0000 (  5166 PWs)   bands (ev):

   -64.8327 -64.8259 -64.8245 -64.8239 -31.6237 -31.6235 -31.6218 -31.5983
   -31.5961 -31.5956 -31.5950 -31.5880 -31.5858 -31.5812 -31.5711 -31.5691
    -9.1587  -8.1378  -7.8853  -7.8787   4.0459   4.0573   4.0883   5.8384
     5.8440   6.1756   6.1931   6.5450   6.5650   6.6653   7.4437   7.4550

          k = 0.2491 0.0000 0.2500 (  5155 PWs)   bands (ev):

   -64.8315 -64.8258 -64.8254 -64.8243 -31.6220 -31.6208 -31.6173 -31.6081
   -31.5933 -31.5916 -31.5909 -31.5890 -31.5879 -31.5861 -31.5726 -31.5691
    -8.9683  -8.0710  -8.0644  -7.8861   4.1604   4.1631   4.3364   5.0709
     5.8574   6.0424   6.0591   6.4954   6.5007   6.5718   7.1654   7.5067

          k = 0.2491 0.0000-0.5000 (  5148 PWs)   bands (ev):

   -64.8287 -64.8283 -64.8253 -64.8247 -31.6179 -31.6178 -31.6100 -31.6100
   -31.6041 -31.6038 -31.5841 -31.5841 -31.5822 -31.5820 -31.5770 -31.5769
    -8.5112  -8.5111  -7.9486  -7.9485   4.4233   4.4234   4.7593   4.7595
     5.1023   5.1024   6.5385   6.5387   6.5659   6.5659   7.1000   7.1001

          k = 0.2491 0.2509 0.0000 (  5153 PWs)   bands (ev):

   -64.8315 -64.8258 -64.8254 -64.8244 -31.6222 -31.6191 -31.6184 -31.6070
   -31.5941 -31.5933 -31.5922 -31.5880 -31.5871 -31.5846 -31.5749 -31.5675
    -8.9665  -8.0707  -8.0575  -7.8906   4.1582   4.1646   4.3281   5.0713
     5.8469   6.0384   6.0722   6.4784   6.4901   6.5842   7.1734   7.5053

          k = 0.2491 0.2509 0.2500 (  5149 PWs)   bands (ev):

   -64.8304 -64.8258 -64.8258 -64.8250 -31.6253 -31.6246 -31.6239 -31.6055
   -31.5935 -31.5933 -31.5927 -31.5850 -31.5832 -31.5820 -31.5723 -31.5690
    -8.7966  -8.0357  -8.0311  -8.0263   3.9989   4.0001   4.0018   5.0889
     5.8402   5.8454   5.8509   6.6950   6.7055   6.7155   7.3540   7.3563

          k = 0.2491 0.2509-0.5000 (  5130 PWs)   bands (ev):

   -64.8282 -64.8278 -64.8258 -64.8252 -31.6275 -31.6274 -31.6206 -31.6205
   -31.5927 -31.5925 -31.5799 -31.5798 -31.5790 -31.5789 -31.5753 -31.5752
    -8.3995  -8.3994  -7.9975  -7.9974   3.8213   3.8213   4.1977   4.1979
     5.8299   5.8300   6.7398   6.7401   6.8685   6.8688   7.0160   7.0161

          k = 0.2491-0.5018 0.0000 (  5154 PWs)   bands (ev):

   -64.8287 -64.8282 -64.8253 -64.8247 -31.6178 -31.6172 -31.6094 -31.6088
   -31.6065 -31.6056 -31.5854 -31.5847 -31.5823 -31.5820 -31.5761 -31.5759
    -8.5144  -8.4972  -7.9512  -7.9477   4.4122   4.4241   4.7415   4.7552
     5.0882   5.1177   6.5317   6.5427   6.5553   6.5770   7.0948   7.1004

          k = 0.2491-0.5018 0.2500 (  5136 PWs)   bands (ev):

   -64.8282 -64.8278 -64.8258 -64.8252 -31.6279 -31.6277 -31.6204 -31.6202
   -31.5936 -31.5933 -31.5793 -31.5789 -31.5787 -31.5786 -31.5761 -31.5759
    -8.4034  -8.3888  -7.9987  -7.9986   3.8204   3.8205   4.1851   4.1993
     5.8304   5.8306   6.7370   6.7373   6.8706   6.8767   7.0031   7.0166

          k = 0.2491-0.5018-0.5000 (  5128 PWs)   bands (ev):

   -64.8271 -64.8270 -64.8270 -64.8260 -31.6310 -31.6307 -31.6307 -31.6307
   -31.5840 -31.5838 -31.5836 -31.5834 -31.5735 -31.5734 -31.5732 -31.5731
    -8.1707  -8.1707  -8.1631  -8.1630   3.6321   3.6322   3.6393   3.6394
     6.5123   6.5123   6.5277   6.5278   7.0662   7.0664   7.0724   7.0726

          k =-0.4982 0.0000 0.0000 (  5146 PWs)   bands (ev):

   -64.8295 -64.8290 -64.8245 -64.8240 -31.6102 -31.6091 -31.6081 -31.6071
   -31.6038 -31.6027 -31.5953 -31.5952 -31.5800 -31.5794 -31.5782 -31.5776
    -8.6621  -8.6429  -7.8544  -7.8543   4.8229   4.8320   4.8530   4.8620
     5.1201   5.1314   5.9903   5.9906   6.9571   6.9738   6.9756   6.9920

          k =-0.4982 0.0000 0.2500 (  5148 PWs)   bands (ev):

   -64.8288 -64.8283 -64.8253 -64.8247 -31.6175 -31.6170 -31.6110 -31.6103
   -31.6047 -31.6038 -31.5854 -31.5850 -31.5822 -31.5815 -31.5758 -31.5756
    -8.5237  -8.5066  -7.9480  -7.9446   4.4173   4.4294   4.7556   4.7685
     5.0809   5.1100   6.5435   6.5546   6.5649   6.5858   7.0936   7.0987

          k =-0.4982 0.0000-0.5000 (  5192 PWs)   bands (ev):

   -64.8271 -64.8270 -64.8270 -64.8260 -31.6194 -31.6193 -31.6189 -31.6188
   -31.5944 -31.5942 -31.5936 -31.5934 -31.5778 -31.5776 -31.5772 -31.5772
    -8.2136  -8.2135  -8.2028  -8.2027   4.3041   4.3043   4.3090   4.3091
     5.7534   5.7535   5.7795   5.7796   7.0531   7.0532   7.0621   7.0623

          k =-0.4982 0.2509 0.0000 (  5152 PWs)   bands (ev):

   -64.8288 -64.8283 -64.8253 -64.8247 -31.6165 -31.6160 -31.6109 -31.6102
   -31.6072 -31.6063 -31.5845 -31.5843 -31.5842 -31.5836 -31.5739 -31.5737
    -8.5225  -8.5055  -7.9465  -7.9433   4.4126   4.4246   4.7471   4.7601
     5.0742   5.1034   6.5528   6.5633   6.5746   6.5958   7.0871   7.0924

          k =-0.4982 0.2509 0.2500 (  5136 PWs)   bands (ev):

   -64.8283 -64.8278 -64.8258 -64.8252 -31.6275 -31.6273 -31.6212 -31.6210
   -31.5915 -31.5913 -31.5816 -31.5816 -31.5785 -31.5784 -31.5756 -31.5752
    -8.4100  -8.3955  -7.9963  -7.9962   3.8220   3.8221   4.1965   4.2103
     5.8295   5.8298   6.7427   6.7429   6.8606   6.8661   7.0151   7.0284

          k =-0.4982 0.2509-0.5000 (  5148 PWs)   bands (ev):

   -64.8271 -64.8270 -64.8270 -64.8260 -31.6316 -31.6314 -31.6313 -31.6313
   -31.5815 -31.5812 -31.5811 -31.5809 -31.5764 -31.5762 -31.5760 -31.5760
    -8.1733  -8.1732  -8.1656  -8.1655   3.6411   3.6412   3.6482   3.6482
     6.5208   6.5209   6.5358   6.5359   7.0555   7.0557   7.0619   7.0621

          k =-0.4982-0.5018 0.0000 (  5192 PWs)   bands (ev):

   -64.8271 -64.8270 -64.8269 -64.8260 -31.6189 -31.6185 -31.6183 -31.6180
   -31.5975 -31.5967 -31.5967 -31.5959 -31.5760 -31.5756 -31.5754 -31.5751
    -8.2165  -8.2056  -8.2054  -8.1949   4.2882   4.2931   4.2934   4.2983
     5.7407   5.7667   5.7673   5.7933   7.0541   7.0631   7.0632   7.0719

          k =-0.4982-0.5018 0.2500 (  5136 PWs)   bands (ev):

   -64.8271 -64.8270 -64.8269 -64.8260 -31.6314 -31.6311 -31.6311 -31.6310
   -31.5830 -31.5827 -31.5826 -31.5823 -31.5746 -31.5744 -31.5742 -31.5741
    -8.1759  -8.1681  -8.1679  -8.1605   3.6331   3.6401   3.6403   3.6474
     6.5089   6.5240   6.5244   6.5393   7.0577   7.0642   7.0642   7.0703

          k =-0.4982-0.5018-0.5000 (  5144 PWs)   bands (ev):

   -64.8270 -64.8270 -64.8270 -64.8260 -31.6394 -31.6391 -31.6391 -31.6391
   -31.5768 -31.5766 -31.5766 -31.5765 -31.5729 -31.5727 -31.5727 -31.5726
    -8.1302  -8.1301  -8.1300  -8.1299   3.2173   3.2174   3.2174   3.2175
     7.0586   7.0587   7.0588   7.0590   7.0708   7.0709   7.0711   7.0711

          k = 0.0000-0.2509 0.2500 (  5151 PWs)   bands (ev):

   -64.8314 -64.8258 -64.8254 -64.8244 -31.6213 -31.6204 -31.6185 -31.6056
   -31.5961 -31.5954 -31.5916 -31.5862 -31.5853 -31.5844 -31.5769 -31.5667
    -8.9647  -8.0640  -8.0574  -7.8951   4.1589   4.1624   4.3203   5.0714
     5.8365   6.0516   6.0689   6.4681   6.4741   6.5956   7.1812   7.5040

          k =-0.2491 0.0000 0.2500 (  5155 PWs)   bands (ev):

   -64.8315 -64.8258 -64.8254 -64.8243 -31.6220 -31.6208 -31.6173 -31.6081
   -31.5933 -31.5916 -31.5909 -31.5890 -31.5879 -31.5861 -31.5726 -31.5691
    -8.9683  -8.0710  -8.0644  -7.8861   4.1604   4.1631   4.3364   5.0709
     5.8574   6.0424   6.0591   6.4954   6.5007   6.5718   7.1654   7.5067

          k =-0.2491 0.2509 0.0000 (  5153 PWs)   bands (ev):

   -64.8315 -64.8258 -64.8254 -64.8244 -31.6222 -31.6191 -31.6184 -31.6070
   -31.5941 -31.5933 -31.5922 -31.5880 -31.5871 -31.5846 -31.5749 -31.5675
    -8.9665  -8.0707  -8.0575  -7.8906   4.1582   4.1646   4.3281   5.0713
     5.8469   6.0384   6.0722   6.4784   6.4901   6.5842   7.1734   7.5053

          k =-0.2491-0.2509 0.2500 (  5149 PWs)   bands (ev):

   -64.8304 -64.8258 -64.8258 -64.8250 -31.6253 -31.6246 -31.6239 -31.6055
   -31.5935 -31.5933 -31.5927 -31.5850 -31.5832 -31.5820 -31.5723 -31.5690
    -8.7966  -8.0357  -8.0311  -8.0263   3.9989   4.0001   4.0018   5.0889
     5.8402   5.8454   5.8509   6.6950   6.7055   6.7155   7.3540   7.3563

          k =-0.2491 0.2509-0.2500 (  5149 PWs)   bands (ev):

   -64.8304 -64.8258 -64.8258 -64.8250 -31.6253 -31.6246 -31.6239 -31.6055
   -31.5935 -31.5933 -31.5927 -31.5850 -31.5833 -31.5820 -31.5723 -31.5690
    -8.7966  -8.0357  -8.0311  -8.0263   3.9989   4.0001   4.0018   5.0889
     5.8402   5.8454   5.8509   6.6950   6.7055   6.7155   7.3540   7.3563

          k = 0.2491-0.2509-0.2500 (  5149 PWs)   bands (ev):

   -64.8304 -64.8258 -64.8258 -64.8250 -31.6253 -31.6246 -31.6239 -31.6055
   -31.5935 -31.5933 -31.5927 -31.5850 -31.5833 -31.5820 -31.5723 -31.5690
    -8.7966  -8.0357  -8.0311  -8.0263   3.9989   4.0001   4.0018   5.0889
     5.8402   5.8454   5.8509   6.6950   6.7055   6.7155   7.3540   7.3563

          k =-0.2491 0.2509 0.5000 (  5130 PWs)   bands (ev):

   -64.8282 -64.8278 -64.8258 -64.8252 -31.6275 -31.6273 -31.6206 -31.6205
   -31.5927 -31.5925 -31.5799 -31.5799 -31.5790 -31.5788 -31.5753 -31.5752
    -8.3995  -8.3994  -7.9975  -7.9974   3.8213   3.8214   4.1977   4.1978
     5.8300   5.8300   6.7398   6.7401   6.8686   6.8687   7.0160   7.0161

          k =-0.2491 0.5018 0.2500 (  5136 PWs)   bands (ev):

   -64.8282 -64.8278 -64.8258 -64.8252 -31.6279 -31.6277 -31.6204 -31.6202
   -31.5936 -31.5933 -31.5793 -31.5789 -31.5787 -31.5786 -31.5761 -31.5759
    -8.4034  -8.3888  -7.9987  -7.9986   3.8204   3.8205   4.1851   4.1993
     5.8304   5.8306   6.7370   6.7373   6.8706   6.8767   7.0031   7.0166

          k = 0.4982-0.2509 0.2500 (  5136 PWs)   bands (ev):

   -64.8283 -64.8278 -64.8258 -64.8252 -31.6275 -31.6273 -31.6212 -31.6210
   -31.5915 -31.5913 -31.5816 -31.5816 -31.5785 -31.5784 -31.5756 -31.5752
    -8.4100  -8.3955  -7.9963  -7.9962   3.8220   3.8221   4.1965   4.2103
     5.8295   5.8298   6.7427   6.7429   6.8606   6.8661   7.0151   7.0284

     highest occupied level (ev):     7.6799

!    total energy              =    -608.39257431 Ry
     Harris-Foulkes estimate   =    -608.39257431 Ry
     estimated scf accuracy    <          2.5E-09 Ry

     The total energy is the sum of the following terms:

     one-electron contribution =    -303.58795452 Ry
     hartree contribution      =     168.08343975 Ry
     xc contribution           =     -97.84683437 Ry
     ewald contribution        =    -375.04122517 Ry

     convergence has been achieved in   9 iterations

     Forces acting on atoms (cartesian axes, Ry/au):

     atom    1 type  1   force =    -0.00186883    0.00203585   -0.00000734
     atom    2 type  1   force =    -0.00186995   -0.00200231    0.00000699
     atom    3 type  1   force =     0.00183418    0.00203697    0.00000654
     atom    4 type  1   force =     0.00182313   -0.00199436   -0.00000703
     atom    5 type  2   force =     0.00218059    0.00230404   -0.00000781
     atom    6 type  2   force =    -0.00214442   -0.00233723   -0.00000798
     atom    7 type  2   force =    -0.00214460    0.00230359    0.00000830
     atom    8 type  2   force =     0.00218990   -0.00234655    0.00000835

     Total force =     0.008384     Total SCF correction =     0.000049


     Computing stress (Cartesian axis) and pressure

          total   stress  (Ry/bohr**3)                   (kbar)     P=  -68.15
  -0.00050578   0.00000001   0.00000000        -74.40      0.00      0.00
   0.00000001  -0.00042006   0.00000000          0.00    -61.79      0.00
   0.00000000   0.00000000  -0.00046393          0.00      0.00    -68.25


     BFGS Geometry Optimization

     number of scf cycles    =   1
     number of bfgs steps    =   0

     energy   new            =    -608.3925743065 Ry

     new trust radius        =       0.0032096789 bohr
     new conv_thr            =       0.0000000100 Ry


ATOMIC_POSITIONS (alat)
Mg      -0.000232304   0.000253066  -0.000000913
Mg      -0.000232444   0.499751103   0.500000868
Mg       0.500227998   0.000253205   0.500000813
Mg       0.500226623   0.499752092  -0.000000874
O        0.500271058   0.000286403  -0.000000971
O       -0.000266561   0.499709471  -0.000000992
O       -0.000266584   0.000286346   0.500001032
O        0.500272214   0.499708312   0.500001037



     Writing output data file diamond.1.003571.70.4.save
     NEW-OLD atomic charge density approx. for the potential

     Check: negative/imaginary core charge=   -0.000007    0.000000

     total cpu time spent up to now is       15.2 secs

     per-process dynamical memory:    52.1 Mb

     Self-consistent Calculation

     iteration #  1     ecut=    70.00 Ry     beta=0.70
     Davidson diagonalization with overlap
     ethr =  1.00E-06,  avg # of iterations =  3.0

     Threshold (ethr) on eigenvalues was too large:
     Diagonalizing with lowered threshold

     Davidson diagonalization with overlap
     ethr =  2.03E-08,  avg # of iterations =  1.1

     total cpu time spent up to now is       18.6 secs

     total energy              =    -608.39262946 Ry
     Harris-Foulkes estimate   =    -608.39263902 Ry
     estimated scf accuracy    <       0.00001301 Ry

     iteration #  2     ecut=    70.00 Ry     beta=0.70
     Davidson diagonalization with overlap
     ethr =  2.03E-08,  avg # of iterations =  2.3

     total cpu time spent up to now is       20.1 secs

     total energy              =    -608.39263341 Ry
     Harris-Foulkes estimate   =    -608.39263476 Ry
     estimated scf accuracy    <       0.00000225 Ry

     iteration #  3     ecut=    70.00 Ry     beta=0.70
     Davidson diagonalization with overlap
     ethr =  3.51E-09,  avg # of iterations =  2.0

     total cpu time spent up to now is       21.6 secs

     total energy              =    -608.39263390 Ry
     Harris-Foulkes estimate   =    -608.39263389 Ry
     estimated scf accuracy    <       0.00000001 Ry

     iteration #  4     ecut=    70.00 Ry     beta=0.70
     Davidson diagonalization with overlap
     ethr =  2.28E-11,  avg # of iterations =  2.8

     total cpu time spent up to now is       23.3 secs

     End of self-consistent calculation

          k = 0.0000 0.0000 0.0000 (  5153 PWs)   bands (ev):

   -64.8344 -64.8250 -64.8249 -64.8241 -31.6326 -31.6308 -31.6290 -31.5955
   -31.5946 -31.5941 -31.5924 -31.5918 -31.5910 -31.5676 -31.5637 -31.5618
    -9.3649  -7.9233  -7.9140  -7.9047   3.7464   3.7578   3.7698   6.3545
     6.3579   6.3767   6.3830   6.4023   6.4052   7.6638   7.6724   7.6800

          k = 0.0000 0.0000 0.2500 (  5167 PWs)   bands (ev):

   -64.8330 -64.8261 -64.8249 -64.8243 -31.6267 -31.6224 -31.6205 -31.6012
   -31.5961 -31.5945 -31.5934 -31.5910 -31.5867 -31.5780 -31.5732 -31.5689
    -9.1565  -8.1289  -7.8922  -7.8789   4.0374   4.0593   4.0950   5.8519
     5.8632   6.1530   6.1877   6.5227   6.5634   6.6589   7.4393   7.4611

          k = 0.0000 0.0000-0.5000 (  5126 PWs)   bands (ev):

   -64.8298 -64.8293 -64.8249 -64.8243 -31.6126 -31.6124 -31.6074 -31.6072
   -31.6018 -31.6017 -31.5909 -31.5909 -31.5821 -31.5819 -31.5787 -31.5784
    -8.6463  -8.6462  -7.8568  -7.8568   4.8384   4.8384   4.8565   4.8566
     5.1226   5.1229   5.9731   5.9734   6.9517   6.9518   6.9847   6.9848

          k = 0.0000 0.2509 0.0000 (  5161 PWs)   bands (ev):

   -64.8330 -64.8261 -64.8250 -64.8244 -31.6265 -31.6241 -31.6189 -31.6002
   -31.5974 -31.5918 -31.5912 -31.5908 -31.5896 -31.5761 -31.5733 -31.5714
    -9.1545  -8.1200  -7.8925  -7.8858   4.0399   4.0505   4.1010   5.8717
     5.8774   6.1481   6.1654   6.5200   6.5407   6.6513   7.4453   7.4562

          k = 0.0000 0.2509 0.2500 (  5151 PWs)   bands (ev):

   -64.8318 -64.8261 -64.8257 -64.8247 -31.6215 -31.6207 -31.6187 -31.6059
   -31.5964 -31.5957 -31.5918 -31.5865 -31.5856 -31.5846 -31.5772 -31.5669
    -8.9645  -8.0639  -8.0573  -7.8950   4.1590   4.1624   4.3204   5.0715
     5.8365   6.0517   6.0689   6.4682   6.4741   6.5956   7.1811   7.5040

          k = 0.0000 0.2509-0.5000 (  5146 PWs)   bands (ev):

   -64.8291 -64.8286 -64.8256 -64.8250 -31.6159 -31.6157 -31.6096 -31.6095
   -31.6085 -31.6083 -31.5871 -31.5868 -31.5826 -31.5826 -31.5736 -31.5734
    -8.5088  -8.5087  -7.9459  -7.9458   4.4133   4.4134   4.7425   4.7427
     5.0901   5.0901   6.5552   6.5554   6.5871   6.5872   7.0876   7.0877

          k = 0.0000-0.5018 0.0000 (  5110 PWs)   bands (ev):

   -64.8297 -64.8292 -64.8250 -64.8244 -31.6119 -31.6111 -31.6092 -31.6084
   -31.5995 -31.5986 -31.5892 -31.5891 -31.5826 -31.5821 -31.5809 -31.5804
    -8.6466  -8.6333  -7.8593  -7.8592   4.8375   4.8467   4.8585   4.8677
     5.1153   5.1237   5.9550   5.9553   6.9471   6.9600   6.9636   6.9763

          k = 0.0000-0.5018 0.2500 (  5146 PWs)   bands (ev):

   -64.8290 -64.8286 -64.8257 -64.8251 -31.6170 -31.6166 -31.6094 -31.6089
   -31.6083 -31.6077 -31.5877 -31.5871 -31.5813 -31.5811 -31.5744 -31.5742
    -8.5105  -8.4987  -7.9492  -7.9470   4.4088   4.4170   4.7352   4.7445
     5.0871   5.1074   6.5413   6.5489   6.5702   6.5849   7.0896   7.0936

          k = 0.0000-0.5018-0.5000 (  5176 PWs)   bands (ev):

   -64.8274 -64.8273 -64.8273 -64.8263 -31.6182 -31.6180 -31.6177 -31.6177
   -31.5992 -31.5990 -31.5986 -31.5984 -31.5744 -31.5742 -31.5739 -31.5739
    -8.2068  -8.2068  -8.1995  -8.1994   4.2779   4.2781   4.2814   4.2815
     5.7595   5.7596   5.7777   5.7778   7.0655   7.0657   7.0715   7.0717

          k = 0.2491 0.0000 0.0000 (  5166 PWs)   bands (ev):

   -64.8330 -64.8263 -64.8248 -64.8243 -31.6239 -31.6237 -31.6221 -31.5986
   -31.5963 -31.5959 -31.5953 -31.5882 -31.5860 -31.5815 -31.5714 -31.5694
    -9.1586  -8.1378  -7.8853  -7.8786   4.0461   4.0573   4.0883   5.8384
     5.8440   6.1757   6.1932   6.5450   6.5651   6.6654   7.4437   7.4550

          k = 0.2491 0.0000 0.2500 (  5155 PWs)   bands (ev):

   -64.8318 -64.8262 -64.8258 -64.8246 -31.6223 -31.6211 -31.6176 -31.6084
   -31.5936 -31.5919 -31.5911 -31.5892 -31.5882 -31.5863 -31.5728 -31.5693
    -8.9682  -8.0709  -8.0644  -7.8861   4.1605   4.1632   4.3365   5.0709
     5.8574   6.0424   6.0592   6.4953   6.5009   6.5717   7.1654   7.5067

          k = 0.2491 0.0000-0.5000 (  5148 PWs)   bands (ev):

   -64.8291 -64.8286 -64.8256 -64.8250 -31.6182 -31.6180 -31.6102 -31.6102
   -31.6044 -31.6041 -31.5844 -31.5843 -31.5825 -31.5823 -31.5773 -31.5771
    -8.5110  -8.5110  -7.9486  -7.9485   4.4234   4.4234   4.7594   4.7596
     5.1023   5.1024   6.5391   6.5393   6.5653   6.5653   7.1000   7.1001

          k = 0.2491 0.2509 0.0000 (  5153 PWs)   bands (ev):

   -64.8318 -64.8261 -64.8257 -64.8247 -31.6225 -31.6194 -31.6186 -31.6073
   -31.5943 -31.5936 -31.5925 -31.5882 -31.5873 -31.5849 -31.5752 -31.5678
    -8.9663  -8.0707  -8.0575  -7.8905   4.1582   4.1647   4.3283   5.0713
     5.8470   6.0384   6.0722   6.4785   6.4902   6.5839   7.1733   7.5053

          k = 0.2491 0.2509 0.2500 (  5149 PWs)   bands (ev):

   -64.8308 -64.8262 -64.8261 -64.8253 -31.6256 -31.6249 -31.6242 -31.6058
   -31.5938 -31.5936 -31.5930 -31.5853 -31.5835 -31.5822 -31.5726 -31.5693
    -8.7965  -8.0357  -8.0310  -8.0263   3.9989   4.0002   4.0018   5.0890
     5.8402   5.8455   5.8510   6.6950   6.7055   6.7155   7.3541   7.3563

          k = 0.2491 0.2509-0.5000 (  5130 PWs)   bands (ev):

   -64.8285 -64.8281 -64.8261 -64.8255 -31.6278 -31.6276 -31.6209 -31.6207
   -31.5930 -31.5928 -31.5802 -31.5801 -31.5793 -31.5791 -31.5756 -31.5754
    -8.3994  -8.3993  -7.9974  -7.9974   3.8214   3.8214   4.1977   4.1979
     5.8300   5.8300   6.7400   6.7402   6.8685   6.8687   7.0160   7.0160

          k = 0.2491-0.5018 0.0000 (  5154 PWs)   bands (ev):

   -64.8290 -64.8286 -64.8257 -64.8251 -31.6180 -31.6176 -31.6096 -31.6091
   -31.6067 -31.6060 -31.5856 -31.5850 -31.5825 -31.5823 -31.5764 -31.5762
    -8.5116  -8.4998  -7.9506  -7.9482   4.4141   4.4223   4.7437   4.7530
     5.0929   5.1132   6.5335   6.5410   6.5587   6.5736   7.0957   7.0996

          k = 0.2491-0.5018 0.2500 (  5136 PWs)   bands (ev):

   -64.8285 -64.8281 -64.8261 -64.8255 -31.6281 -31.6280 -31.6206 -31.6205
   -31.5938 -31.5936 -31.5795 -31.5792 -31.5790 -31.5789 -31.5764 -31.5762
    -8.4010  -8.3910  -7.9986  -7.9985   3.8205   3.8205   4.1874   4.1971
     5.8305   5.8307   6.7370   6.7373   6.8716   6.8758   7.0053   7.0145

          k = 0.2491-0.5018-0.5000 (  5128 PWs)   bands (ev):

   -64.8274 -64.8273 -64.8273 -64.8263 -31.6313 -31.6310 -31.6310 -31.6310
   -31.5842 -31.5840 -31.5839 -31.5837 -31.5738 -31.5736 -31.5734 -31.5734
    -8.1695  -8.1694  -8.1642  -8.1641   3.6333   3.6334   3.6382   3.6382
     6.5147   6.5148   6.5253   6.5254   7.0673   7.0674   7.0715   7.0716

          k =-0.4982 0.0000 0.0000 (  5146 PWs)   bands (ev):

   -64.8298 -64.8294 -64.8248 -64.8243 -31.6103 -31.6095 -31.6082 -31.6075
   -31.6040 -31.6032 -31.5956 -31.5955 -31.5802 -31.5797 -31.5784 -31.5780
    -8.6592  -8.6456  -7.8543  -7.8542   4.8273   4.8363   4.8487   4.8577
     5.1218   5.1298   5.9904   5.9906   6.9598   6.9728   6.9765   6.9893

          k =-0.4982 0.0000 0.2500 (  5148 PWs)   bands (ev):

   -64.8291 -64.8287 -64.8256 -64.8250 -31.6177 -31.6173 -31.6112 -31.6107
   -31.6049 -31.6042 -31.5856 -31.5853 -31.5824 -31.5818 -31.5760 -31.5759
    -8.5211  -8.5090  -7.9475  -7.9450   4.4191   4.4278   4.7576   4.7666
     5.0850   5.1057   6.5459   6.5535   6.5673   6.5822   7.0944   7.0981

          k =-0.4982 0.0000-0.5000 (  5192 PWs)   bands (ev):

   -64.8274 -64.8273 -64.8273 -64.8263 -31.6196 -31.6195 -31.6192 -31.6191
   -31.5946 -31.5943 -31.5940 -31.5937 -31.5780 -31.5778 -31.5775 -31.5775
    -8.2119  -8.2119  -8.2043  -8.2042   4.3050   4.3051   4.3083   4.3084
     5.7572   5.7573   5.7757   5.7758   7.0545   7.0546   7.0608   7.0610

          k =-0.4982 0.2509 0.0000 (  5152 PWs)   bands (ev):

   -64.8291 -64.8287 -64.8256 -64.8250 -31.6167 -31.6163 -31.6110 -31.6105
   -31.6073 -31.6067 -31.5847 -31.5845 -31.5845 -31.5840 -31.5741 -31.5740
    -8.5200  -8.5079  -7.9460  -7.9437   4.4143   4.4229   4.7491   4.7582
     5.0786   5.0993   6.5544   6.5618   6.5777   6.5927   7.0879   7.0917

          k =-0.4982 0.2509 0.2500 (  5136 PWs)   bands (ev):

   -64.8286 -64.8282 -64.8261 -64.8255 -31.6277 -31.6276 -31.6214 -31.6212
   -31.5918 -31.5915 -31.5819 -31.5818 -31.5787 -31.5786 -31.5759 -31.5755
    -8.4078  -8.3976  -7.9962  -7.9962   3.8221   3.8222   4.1986   4.2082
     5.8296   5.8298   6.7427   6.7430   6.8614   6.8654   7.0171   7.0264

          k =-0.4982 0.2509-0.5000 (  5148 PWs)   bands (ev):

   -64.8274 -64.8273 -64.8273 -64.8263 -31.6319 -31.6317 -31.6316 -31.6316
   -31.5817 -31.5815 -31.5814 -31.5812 -31.5766 -31.5765 -31.5762 -31.5762
    -8.1721  -8.1720  -8.1666  -8.1665   3.6422   3.6423   3.6471   3.6472
     6.5230   6.5231   6.5337   6.5337   7.0565   7.0567   7.0610   7.0612

          k =-0.4982-0.5018 0.0000 (  5192 PWs)   bands (ev):

   -64.8274 -64.8273 -64.8273 -64.8263 -31.6191 -31.6188 -31.6186 -31.6183
   -31.5976 -31.5970 -31.5969 -31.5963 -31.5761 -31.5759 -31.5757 -31.5755
    -8.2131  -8.2056  -8.2054  -8.1981   4.2898   4.2932   4.2933   4.2967
     5.7487   5.7669   5.7673   5.7854   7.0569   7.0631   7.0632   7.0692

          k =-0.4982-0.5018 0.2500 (  5136 PWs)   bands (ev):

   -64.8274 -64.8273 -64.8273 -64.8263 -31.6316 -31.6314 -31.6313 -31.6313
   -31.5832 -31.5830 -31.5829 -31.5826 -31.5749 -31.5747 -31.5745 -31.5744
    -8.1734  -8.1680  -8.1679  -8.1627   3.6353   3.6402   3.6402   3.6452
     6.5136   6.5241   6.5244   6.5348   7.0598   7.0641   7.0643   7.0685

          k =-0.4982-0.5018-0.5000 (  5144 PWs)   bands (ev):

   -64.8273 -64.8273 -64.8273 -64.8263 -31.6397 -31.6394 -31.6394 -31.6394
   -31.5771 -31.5769 -31.5768 -31.5767 -31.5732 -31.5730 -31.5729 -31.5728
    -8.1300  -8.1300  -8.1299  -8.1298   3.2173   3.2174   3.2174   3.2175
     7.0587   7.0588   7.0589   7.0590   7.0708   7.0710   7.0711   7.0712

          k = 0.0000-0.2509 0.2500 (  5151 PWs)   bands (ev):

   -64.8318 -64.8261 -64.8257 -64.8247 -31.6215 -31.6207 -31.6187 -31.6059
   -31.5964 -31.5957 -31.5918 -31.5865 -31.5856 -31.5846 -31.5772 -31.5669
    -8.9645  -8.0639  -8.0573  -7.8950   4.1590   4.1624   4.3204   5.0715
     5.8365   6.0517   6.0689   6.4682   6.4741   6.5956   7.1811   7.5040

          k =-0.2491 0.0000 0.2500 (  5155 PWs)   bands (ev):

   -64.8318 -64.8262 -64.8258 -64.8246 -31.6223 -31.6211 -31.6176 -31.6084
   -31.5936 -31.5919 -31.5911 -31.5892 -31.5882 -31.5863 -31.5728 -31.5693
    -8.9682  -8.0709  -8.0644  -7.8861   4.1605   4.1632   4.3365   5.0709
     5.8574   6.0424   6.0592   6.4953   6.5009   6.5717   7.1654   7.5067

          k =-0.2491 0.2509 0.0000 (  5153 PWs)   bands (ev):

   -64.8318 -64.8261 -64.8257 -64.8247 -31.6225 -31.6194 -31.6186 -31.6073
   -31.5943 -31.5936 -31.5925 -31.5882 -31.5874 -31.5849 -31.5752 -31.5678
    -8.9663  -8.0707  -8.0575  -7.8905   4.1582   4.1647   4.3283   5.0713
     5.8470   6.0384   6.0722   6.4785   6.4902   6.5839   7.1733   7.5053

          k =-0.2491-0.2509 0.2500 (  5149 PWs)   bands (ev):

   -64.8308 -64.8262 -64.8261 -64.8253 -31.6256 -31.6249 -31.6242 -31.6058
   -31.5938 -31.5936 -31.5930 -31.5853 -31.5835 -31.5822 -31.5726 -31.5693
    -8.7965  -8.0357  -8.0310  -8.0263   3.9989   4.0002   4.0018   5.0890
     5.8402   5.8455   5.8510   6.6950   6.7055   6.7155   7.3541   7.3563

          k =-0.2491 0.2509-0.2500 (  5149 PWs)   bands (ev):

   -64.8308 -64.8262 -64.8261 -64.8253 -31.6256 -31.6249 -31.6242 -31.6058
   -31.5938 -31.5936 -31.5930 -31.5853 -31.5835 -31.5822 -31.5726 -31.5693
    -8.7965  -8.0357  -8.0310  -8.0263   3.9989   4.0002   4.0018   5.0890
     5.8402   5.8455   5.8510   6.6950   6.7055   6.7155   7.3541   7.3563

          k = 0.2491-0.2509-0.2500 (  5149 PWs)   bands (ev):

   -64.8308 -64.8262 -64.8261 -64.8253 -31.6256 -31.6249 -31.6242 -31.6058
   -31.5938 -31.5936 -31.5930 -31.5853 -31.5835 -31.5822 -31.5726 -31.5693
    -8.7965  -8.0357  -8.0310  -8.0263   3.9989   4.0002   4.0018   5.0890
     5.8402   5.8455   5.8510   6.6950   6.7055   6.7155   7.3541   7.3563

          k =-0.2491 0.2509 0.5000 (  5130 PWs)   bands (ev):

   -64.8285 -64.8281 -64.8261 -64.8255 -31.6278 -31.6276 -31.6208 -31.6208
   -31.5930 -31.5927 -31.5802 -31.5801 -31.5793 -31.5791 -31.5756 -31.5754
    -8.3994  -8.3993  -7.9974  -7.9974   3.8213   3.8214   4.1978   4.1979
     5.8300   5.8300   6.7400   6.7402   6.8686   6.8687   7.0160   7.0160

          k =-0.2491 0.5018 0.2500 (  5136 PWs)   bands (ev):

   -64.8285 -64.8281 -64.8261 -64.8255 -31.6281 -31.6280 -31.6206 -31.6205
   -31.5938 -31.5936 -31.5795 -31.5792 -31.5790 -31.5789 -31.5764 -31.5762
    -8.4010  -8.3910  -7.9986  -7.9985   3.8205   3.8205   4.1874   4.1971
     5.8305   5.8307   6.7370   6.7373   6.8716   6.8758   7.0053   7.0145

          k = 0.4982-0.2509 0.2500 (  5136 PWs)   bands (ev):

   -64.8286 -64.8282 -64.8261 -64.8255 -31.6277 -31.6276 -31.6214 -31.6212
   -31.5918 -31.5915 -31.5819 -31.5818 -31.5787 -31.5786 -31.5759 -31.5755
    -8.4078  -8.3976  -7.9962  -7.9962   3.8221   3.8222   4.1986   4.2082
     5.8296   5.8298   6.7427   6.7430   6.8614   6.8654   7.0171   7.0264

     highest occupied level (ev):     7.6800

!    total energy              =    -608.39263390 Ry
     Harris-Foulkes estimate   =    -608.39263390 Ry
     estimated scf accuracy    <          2.3E-09 Ry

     The total energy is the sum of the following terms:

     one-electron contribution =    -303.57756125 Ry
     hartree contribution      =     168.07834225 Ry
     xc contribution           =     -97.84678068 Ry
     ewald contribution        =    -375.04663422 Ry

     convergence has been achieved in   4 iterations

     Forces acting on atoms (cartesian axes, Ry/au):

     atom    1 type  1   force =    -0.00134907    0.00141795   -0.00000485
     atom    2 type  1   force =    -0.00138665   -0.00142586    0.00000490
     atom    3 type  1   force =     0.00135142    0.00145890    0.00000499
     atom    4 type  1   force =     0.00134595   -0.00142187   -0.00000505
     atom    5 type  2   force =     0.00150014    0.00155102   -0.00000545
     atom    6 type  2   force =    -0.00148417   -0.00156124   -0.00000541
     atom    7 type  2   force =    -0.00148452    0.00154995    0.00000543
     atom    8 type  2   force =     0.00150690   -0.00156885    0.00000545

     Total force =     0.005849     Total SCF correction =     0.000337


     Computing stress (Cartesian axis) and pressure

          total   stress  (Ry/bohr**3)                   (kbar)     P=  -68.11
  -0.00050568   0.00000000  -0.00000000        -74.39      0.00     -0.00
   0.00000000  -0.00042004   0.00000000          0.00    -61.79      0.00
  -0.00000000   0.00000000  -0.00046333         -0.00      0.00    -68.16


     number of scf cycles    =   2
     number of bfgs steps    =   1

     energy   old            =    -608.3925743065 Ry
     energy   new            =    -608.3926339012 Ry

     CASE: energy  _new < energy  _old

     new trust radius        =       0.0035306468 bohr
     new conv_thr            =       0.0000000006 Ry


ATOMIC_POSITIONS (alat)
Mg      -0.000504435   0.000539118  -0.000001892
Mg      -0.000512136   0.499463473   0.500001857
Mg       0.500500589   0.000547497   0.500001818
Mg       0.500498110   0.499465266  -0.000001893
O        0.500573701   0.000599329  -0.000002071
O       -0.000565977   0.499394476  -0.000002084
O       -0.000566071   0.000599058   0.500002128
O        0.500576220   0.499391782   0.500002137



     Writing output data file diamond.1.003571.70.4.save
     NEW-OLD atomic charge density approx. for the potential

     Check: negative/imaginary core charge=   -0.000007    0.000000

     total cpu time spent up to now is       24.1 secs

     per-process dynamical memory:    52.1 Mb

     Self-consistent Calculation

     iteration #  1     ecut=    70.00 Ry     beta=0.70
     Davidson diagonalization with overlap
     ethr =  1.00E-06,  avg # of iterations =  3.0

     Threshold (ethr) on eigenvalues was too large:
     Diagonalizing with lowered threshold

     Davidson diagonalization with overlap
     ethr =  2.51E-08,  avg # of iterations =  1.1

     total cpu time spent up to now is       27.6 secs

     total energy              =    -608.39267038 Ry
     Harris-Foulkes estimate   =    -608.39268220 Ry
     estimated scf accuracy    <       0.00001611 Ry

     iteration #  2     ecut=    70.00 Ry     beta=0.70
     Davidson diagonalization with overlap
     ethr =  2.52E-08,  avg # of iterations =  2.3

     total cpu time spent up to now is       29.1 secs

     total energy              =    -608.39267527 Ry
     Harris-Foulkes estimate   =    -608.39267695 Ry
     estimated scf accuracy    <       0.00000279 Ry

     iteration #  3     ecut=    70.00 Ry     beta=0.70
     Davidson diagonalization with overlap
     ethr =  4.36E-09,  avg # of iterations =  2.0

     total cpu time spent up to now is       30.5 secs

     total energy              =    -608.39267587 Ry
     Harris-Foulkes estimate   =    -608.39267587 Ry
     estimated scf accuracy    <       0.00000002 Ry

     iteration #  4     ecut=    70.00 Ry     beta=0.70
     Davidson diagonalization with overlap
     ethr =  2.94E-11,  avg # of iterations =  2.8

     total cpu time spent up to now is       32.3 secs

     total energy              =    -608.39267588 Ry
     Harris-Foulkes estimate   =    -608.39267588 Ry
     estimated scf accuracy    <          3.9E-09 Ry

     iteration #  5     ecut=    70.00 Ry     beta=0.70
     Davidson diagonalization with overlap
     ethr =  6.06E-12,  avg # of iterations =  2.8

     total cpu time spent up to now is       33.8 secs

     End of self-consistent calculation

          k = 0.0000 0.0000 0.0000 (  5153 PWs)   bands (ev):

   -64.8345 -64.8251 -64.8249 -64.8242 -31.6326 -31.6309 -31.6290 -31.5955
   -31.5947 -31.5942 -31.5925 -31.5919 -31.5911 -31.5676 -31.5638 -31.5618
    -9.3648  -7.9232  -7.9139  -7.9046   3.7465   3.7579   3.7698   6.3546
     6.3579   6.3768   6.3831   6.4023   6.4053   7.6639   7.6725   7.6802

          k = 0.0000 0.0000 0.2500 (  5167 PWs)   bands (ev):

   -64.8330 -64.8262 -64.8250 -64.8244 -31.6267 -31.6225 -31.6205 -31.6012
   -31.5962 -31.5946 -31.5934 -31.5910 -31.5867 -31.5781 -31.5733 -31.5690
    -9.1564  -8.1287  -7.8921  -7.8788   4.0375   4.0594   4.0952   5.8520
     5.8633   6.1531   6.1879   6.5227   6.5635   6.6589   7.4394   7.4611

          k = 0.0000 0.0000-0.5000 (  5126 PWs)   bands (ev):

   -64.8298 -64.8294 -64.8250 -64.8244 -31.6127 -31.6124 -31.6075 -31.6072
   -31.6019 -31.6018 -31.5909 -31.5909 -31.5822 -31.5820 -31.5788 -31.5785
    -8.6461  -8.6460  -7.8567  -7.8566   4.8385   4.8385   4.8566   4.8567
     5.1226   5.1229   5.9732   5.9736   6.9518   6.9518   6.9848   6.9848

          k = 0.0000 0.2509 0.0000 (  5161 PWs)   bands (ev):

   -64.8330 -64.8261 -64.8250 -64.8244 -31.6265 -31.6241 -31.6190 -31.6003
   -31.5975 -31.5918 -31.5914 -31.5909 -31.5897 -31.5761 -31.5734 -31.5715
    -9.1543  -8.1199  -7.8923  -7.8857   4.0400   4.0507   4.1011   5.8717
     5.8775   6.1482   6.1655   6.5201   6.5407   6.6514   7.4454   7.4563

          k = 0.0000 0.2509 0.2500 (  5151 PWs)   bands (ev):

   -64.8318 -64.8262 -64.8258 -64.8248 -31.6216 -31.6207 -31.6188 -31.6060
   -31.5964 -31.5957 -31.5919 -31.5866 -31.5856 -31.5847 -31.5772 -31.5670
    -8.9644  -8.0638  -8.0572  -7.8949   4.1591   4.1625   4.3205   5.0716
     5.8366   6.0518   6.0690   6.4683   6.4741   6.5956   7.1812   7.5041

          k = 0.0000 0.2509-0.5000 (  5146 PWs)   bands (ev):

   -64.8291 -64.8287 -64.8257 -64.8251 -31.6159 -31.6158 -31.6095 -31.6095
   -31.6086 -31.6084 -31.5871 -31.5869 -31.5827 -31.5826 -31.5737 -31.5735
    -8.5086  -8.5085  -7.9458  -7.9457   4.4134   4.4135   4.7426   4.7428
     5.0901   5.0902   6.5556   6.5558   6.5868   6.5869   7.0877   7.0877

          k = 0.0000-0.5018 0.0000 (  5110 PWs)   bands (ev):

   -64.8298 -64.8293 -64.8250 -64.8245 -31.6118 -31.6113 -31.6091 -31.6086
   -31.5994 -31.5989 -31.5892 -31.5892 -31.5826 -31.5823 -31.5809 -31.5806
    -8.6431  -8.6365  -7.8592  -7.8591   4.8428   4.8521   4.8533   4.8626
     5.1175   5.1216   5.9551   5.9554   6.9504   6.9568   6.9669   6.9732

          k = 0.0000-0.5018 0.2500 (  5146 PWs)   bands (ev):

   -64.8291 -64.8286 -64.8257 -64.8251 -31.6170 -31.6167 -31.6092 -31.6090
   -31.6084 -31.6080 -31.5876 -31.5873 -31.5813 -31.5812 -31.5744 -31.5743
    -8.5074  -8.5015  -7.9485  -7.9474   4.4109   4.4151   4.7377   4.7422
     5.0922   5.1023   6.5436   6.5473   6.5736   6.5809   7.0907   7.0927

          k = 0.0000-0.5018-0.5000 (  5176 PWs)   bands (ev):

   -64.8274 -64.8274 -64.8274 -64.8264 -31.6182 -31.6180 -31.6178 -31.6178
   -31.5992 -31.5990 -31.5988 -31.5985 -31.5744 -31.5742 -31.5740 -31.5740
    -8.2049  -8.2048  -8.2012  -8.2011   4.2790   4.2791   4.2806   4.2807
     5.7641   5.7642   5.7732   5.7733   7.0672   7.0673   7.0701   7.0702

          k = 0.2491 0.0000 0.0000 (  5166 PWs)   bands (ev):

   -64.8331 -64.8263 -64.8249 -64.8243 -31.6240 -31.6238 -31.6221 -31.5986
   -31.5964 -31.5959 -31.5953 -31.5883 -31.5861 -31.5816 -31.5714 -31.5695
    -9.1584  -8.1377  -7.8851  -7.8785   4.0462   4.0574   4.0884   5.8385
     5.8440   6.1758   6.1933   6.5451   6.5652   6.6655   7.4438   7.4550

          k = 0.2491 0.0000 0.2500 (  5155 PWs)   bands (ev):

   -64.8318 -64.8262 -64.8258 -64.8247 -31.6223 -31.6211 -31.6176 -31.6084
   -31.5936 -31.5919 -31.5912 -31.5893 -31.5883 -31.5864 -31.5729 -31.5694
    -8.9680  -8.0708  -8.0642  -7.8860   4.1606   4.1633   4.3365   5.0710
     5.8575   6.0424   6.0594   6.4954   6.5011   6.5716   7.1655   7.5069

          k = 0.2491 0.0000-0.5000 (  5148 PWs)   bands (ev):

   -64.8291 -64.8287 -64.8257 -64.8251 -31.6182 -31.6181 -31.6103 -31.6102
   -31.6044 -31.6042 -31.5844 -31.5844 -31.5826 -31.5823 -31.5774 -31.5772
    -8.5109  -8.5108  -7.9485  -7.9484   4.4235   4.4235   4.7595   4.7597
     5.1024   5.1024   6.5396   6.5399   6.5649   6.5650   7.1001   7.1001

          k = 0.2491 0.2509 0.0000 (  5153 PWs)   bands (ev):

   -64.8318 -64.8262 -64.8258 -64.8248 -31.6225 -31.6195 -31.6187 -31.6074
   -31.5944 -31.5937 -31.5925 -31.5883 -31.5874 -31.5850 -31.5752 -31.5678
    -8.9662  -8.0706  -8.0574  -7.8904   4.1583   4.1647   4.3284   5.0713
     5.8471   6.0385   6.0723   6.4787   6.4904   6.5837   7.1734   7.5055

          k = 0.2491 0.2509 0.2500 (  5149 PWs)   bands (ev):

   -64.8308 -64.8262 -64.8261 -64.8254 -31.6256 -31.6249 -31.6242 -31.6058
   -31.5938 -31.5937 -31.5931 -31.5853 -31.5836 -31.5823 -31.5726 -31.5693
    -8.7964  -8.0356  -8.0309  -8.0262   3.9990   4.0003   4.0019   5.0891
     5.8403   5.8456   5.8510   6.6951   6.7055   6.7156   7.3542   7.3564

          k = 0.2491 0.2509-0.5000 (  5130 PWs)   bands (ev):

   -64.8286 -64.8282 -64.8262 -64.8256 -31.6278 -31.6277 -31.6209 -31.6208
   -31.5930 -31.5928 -31.5802 -31.5801 -31.5794 -31.5792 -31.5757 -31.5755
    -8.3993  -8.3992  -7.9974  -7.9973   3.8214   3.8215   4.1978   4.1980
     5.8301   5.8301   6.7402   6.7404   6.8686   6.8688   7.0160   7.0160

          k = 0.2491-0.5018 0.0000 (  5154 PWs)   bands (ev):

   -64.8291 -64.8286 -64.8257 -64.8251 -31.6180 -31.6177 -31.6095 -31.6093
   -31.6066 -31.6062 -31.5856 -31.5852 -31.5825 -31.5824 -31.5764 -31.5763
    -8.5085  -8.5027  -7.9499  -7.9487   4.4161   4.4203   4.7462   4.7507
     5.0981   5.1083   6.5355   6.5392   6.5625   6.5699   7.0967   7.0987

          k = 0.2491-0.5018 0.2500 (  5136 PWs)   bands (ev):

   -64.8286 -64.8282 -64.8262 -64.8256 -31.6282 -31.6280 -31.6207 -31.6206
   -31.5939 -31.5937 -31.5795 -31.5793 -31.5791 -31.5790 -31.5764 -31.5763
    -8.3983  -8.3934  -7.9985  -7.9984   3.8206   3.8206   4.1900   4.1946
     5.8306   5.8307   6.7372   6.7374   6.8727   6.8749   7.0077   7.0122

          k = 0.2491-0.5018-0.5000 (  5128 PWs)   bands (ev):

   -64.8274 -64.8274 -64.8274 -64.8264 -31.6313 -31.6310 -31.6310 -31.6310
   -31.5842 -31.5840 -31.5840 -31.5838 -31.5738 -31.5737 -31.5735 -31.5735
    -8.1680  -8.1679  -8.1654  -8.1653   3.6346   3.6347   3.6370   3.6370
     6.5175   6.5175   6.5228   6.5228   7.0685   7.0686   7.0705   7.0707

          k =-0.4982 0.0000 0.0000 (  5146 PWs)   bands (ev):

   -64.8299 -64.8294 -64.8249 -64.8244 -31.6102 -31.6097 -31.6081 -31.6076
   -31.6039 -31.6034 -31.5956 -31.5955 -31.5802 -31.5799 -31.5784 -31.5781
    -8.6559  -8.6486  -7.8542  -7.8541   4.8324   4.8413   4.8439   4.8528
     5.1238   5.1279   5.9904   5.9908   6.9630   6.9698   6.9796   6.9864

          k =-0.4982 0.0000 0.2500 (  5148 PWs)   bands (ev):

   -64.8292 -64.8287 -64.8256 -64.8251 -31.6177 -31.6174 -31.6111 -31.6108
   -31.6049 -31.6044 -31.5856 -31.5854 -31.5824 -31.5820 -31.5761 -31.5759
    -8.5182  -8.5117  -7.9468  -7.9455   4.4212   4.4259   4.7599   4.7645
     5.0898   5.1009   6.5482   6.5522   6.5704   6.5784   7.0953   7.0973

          k =-0.4982 0.0000-0.5000 (  5192 PWs)   bands (ev):

   -64.8274 -64.8274 -64.8274 -64.8264 -31.6196 -31.6195 -31.6193 -31.6192
   -31.5945 -31.5943 -31.5941 -31.5939 -31.5780 -31.5778 -31.5776 -31.5776
    -8.2100  -8.2099  -8.2060  -8.2058   4.3059   4.3060   4.3075   4.3077
     5.7616   5.7616   5.7715   5.7716   7.0561   7.0563   7.0594   7.0596

          k =-0.4982 0.2509 0.0000 (  5152 PWs)   bands (ev):

   -64.8292 -64.8287 -64.8256 -64.8251 -31.6167 -31.6164 -31.6110 -31.6107
   -31.6073 -31.6068 -31.5847 -31.5846 -31.5845 -31.5841 -31.5742 -31.5740
    -8.5170  -8.5106  -7.9454  -7.9442   4.4164   4.4211   4.7514   4.7561
     5.0835   5.0946   6.5562   6.5602   6.5813   6.5893   7.0888   7.0909

          k =-0.4982 0.2509 0.2500 (  5136 PWs)   bands (ev):

   -64.8286 -64.8282 -64.8261 -64.8255 -31.6278 -31.6277 -31.6214 -31.6213
   -31.5918 -31.5916 -31.5820 -31.5819 -31.5788 -31.5787 -31.5759 -31.5756
    -8.4053  -8.3998  -7.9962  -7.9960   3.8222   3.8222   4.2010   4.2060
     5.8297   5.8299   6.7428   6.7431   6.8624   6.8646   7.0194   7.0243

          k =-0.4982 0.2509-0.5000 (  5148 PWs)   bands (ev):

   -64.8274 -64.8274 -64.8274 -64.8264 -31.6319 -31.6317 -31.6317 -31.6316
   -31.5817 -31.5815 -31.5815 -31.5813 -31.5767 -31.5765 -31.5763 -31.5763
    -8.1707  -8.1706  -8.1678  -8.1677   3.6434   3.6435   3.6460   3.6461
     6.5256   6.5256   6.5313   6.5313   7.0577   7.0579   7.0601   7.0602

          k =-0.4982-0.5018 0.0000 (  5192 PWs)   bands (ev):

   -64.8274 -64.8274 -64.8274 -64.8264 -31.6190 -31.6188 -31.6186 -31.6185
   -31.5974 -31.5970 -31.5970 -31.5966 -31.5761 -31.5759 -31.5757 -31.5756
    -8.2093  -8.2056  -8.2052  -8.2016   4.2917   4.2933   4.2933   4.2949
     5.7577   5.7667   5.7676   5.7766   7.0601   7.0631   7.0634   7.0663

          k =-0.4982-0.5018 0.2500 (  5136 PWs)   bands (ev):

   -64.8274 -64.8274 -64.8274 -64.8264 -31.6317 -31.6314 -31.6314 -31.6314
   -31.5832 -31.5830 -31.5829 -31.5828 -31.5749 -31.5747 -31.5746 -31.5745
    -8.1707  -8.1680  -8.1678  -8.1651   3.6378   3.6402   3.6404   3.6427
     6.5188   6.5240   6.5246   6.5298   7.0620   7.0641   7.0644   7.0664

          k =-0.4982-0.5018-0.5000 (  5144 PWs)   bands (ev):

   -64.8274 -64.8274 -64.8274 -64.8264 -31.6397 -31.6394 -31.6394 -31.6394
   -31.5772 -31.5770 -31.5769 -31.5768 -31.5733 -31.5730 -31.5730 -31.5729
    -8.1300  -8.1298  -8.1298  -8.1297   3.2173   3.2175   3.2175   3.2175
     7.0588   7.0589   7.0590   7.0591   7.0710   7.0711   7.0712   7.0713

          k = 0.0000-0.2509 0.2500 (  5151 PWs)   bands (ev):

   -64.8318 -64.8262 -64.8258 -64.8248 -31.6216 -31.6207 -31.6188 -31.6060
   -31.5964 -31.5957 -31.5919 -31.5866 -31.5856 -31.5847 -31.5772 -31.5670
    -8.9644  -8.0638  -8.0572  -7.8949   4.1591   4.1625   4.3205   5.0716
     5.8366   6.0518   6.0690   6.4683   6.4741   6.5956   7.1812   7.5041

          k =-0.2491 0.0000 0.2500 (  5155 PWs)   bands (ev):

   -64.8318 -64.8262 -64.8258 -64.8247 -31.6223 -31.6211 -31.6176 -31.6084
   -31.5936 -31.5919 -31.5912 -31.5893 -31.5883 -31.5864 -31.5729 -31.5694
    -8.9680  -8.0708  -8.0642  -7.8860   4.1606   4.1633   4.3365   5.0710
     5.8575   6.0424   6.0594   6.4954   6.5011   6.5716   7.1655   7.5069

          k =-0.2491 0.2509 0.0000 (  5153 PWs)   bands (ev):

   -64.8318 -64.8262 -64.8258 -64.8248 -31.6225 -31.6195 -31.6187 -31.6074
   -31.5944 -31.5937 -31.5925 -31.5883 -31.5874 -31.5850 -31.5752 -31.5678
    -8.9662  -8.0706  -8.0574  -7.8904   4.1583   4.1647   4.3284   5.0713
     5.8471   6.0385   6.0723   6.4787   6.4904   6.5837   7.1734   7.5055

          k =-0.2491-0.2509 0.2500 (  5149 PWs)   bands (ev):

   -64.8308 -64.8262 -64.8261 -64.8254 -31.6256 -31.6249 -31.6242 -31.6058
   -31.5938 -31.5937 -31.5931 -31.5853 -31.5836 -31.5823 -31.5726 -31.5693
    -8.7964  -8.0356  -8.0309  -8.0262   3.9990   4.0003   4.0019   5.0891
     5.8403   5.8456   5.8510   6.6951   6.7055   6.7156   7.3542   7.3564

          k =-0.2491 0.2509-0.2500 (  5149 PWs)   bands (ev):

   -64.8308 -64.8262 -64.8261 -64.8254 -31.6256 -31.6249 -31.6242 -31.6058
   -31.5938 -31.5937 -31.5931 -31.5854 -31.5836 -31.5823 -31.5726 -31.5693
    -8.7964  -8.0356  -8.0309  -8.0262   3.9990   4.0003   4.0019   5.0891
     5.8403   5.8456   5.8510   6.6951   6.7055   6.7156   7.3542   7.3564

          k = 0.2491-0.2509-0.2500 (  5149 PWs)   bands (ev):

   -64.8308 -64.8262 -64.8261 -64.8254 -31.6256 -31.6249 -31.6242 -31.6058
   -31.5938 -31.5937 -31.5931 -31.5854 -31.5836 -31.5823 -31.5726 -31.5693
    -8.7964  -8.0356  -8.0309  -8.0262   3.9990   4.0003   4.0019   5.0891
     5.8403   5.8456   5.8510   6.6951   6.7055   6.7156   7.3542   7.3564

          k =-0.2491 0.2509 0.5000 (  5130 PWs)   bands (ev):

   -64.8286 -64.8282 -64.8262 -64.8256 -31.6278 -31.6277 -31.6209 -31.6208
   -31.5931 -31.5928 -31.5802 -31.5802 -31.5794 -31.5792 -31.5757 -31.5755
    -8.3993  -8.3992  -7.9974  -7.9973   3.8214   3.8215   4.1978   4.1979
     5.8301   5.8301   6.7402   6.7404   6.8686   6.8687   7.0160   7.0160

          k =-0.2491 0.5018 0.2500 (  5136 PWs)   bands (ev):

   -64.8286 -64.8282 -64.8262 -64.8256 -31.6282 -31.6280 -31.6207 -31.6206
   -31.5939 -31.5937 -31.5795 -31.5793 -31.5791 -31.5790 -31.5764 -31.5763
    -8.3983  -8.3934  -7.9985  -7.9984   3.8206   3.8206   4.1900   4.1946
     5.8306   5.8307   6.7372   6.7374   6.8727   6.8749   7.0077   7.0122

          k = 0.4982-0.2509 0.2500 (  5136 PWs)   bands (ev):

   -64.8286 -64.8282 -64.8261 -64.8255 -31.6278 -31.6277 -31.6214 -31.6213
   -31.5918 -31.5916 -31.5820 -31.5819 -31.5788 -31.5787 -31.5759 -31.5756
    -8.4053  -8.3998  -7.9962  -7.9960   3.8222   3.8222   4.2010   4.2060
     5.8297   5.8299   6.7428   6.7431   6.8624   6.8646   7.0194   7.0243

     highest occupied level (ev):     7.6802

!    total energy              =    -608.39267588 Ry
     Harris-Foulkes estimate   =    -608.39267588 Ry
     estimated scf accuracy    <          4.0E-10 Ry

     The total energy is the sum of the following terms:

     one-electron contribution =    -303.56969551 Ry
     hartree contribution      =     168.07423466 Ry
     xc contribution           =     -97.84663056 Ry
     ewald contribution        =    -375.05058447 Ry

     convergence has been achieved in   5 iterations

     Forces acting on atoms (cartesian axes, Ry/au):

     atom    1 type  1   force =    -0.00073309    0.00071455   -0.00000253
     atom    2 type  1   force =    -0.00080321   -0.00076031    0.00000272
     atom    3 type  1   force =     0.00077443    0.00078797    0.00000278
     atom    4 type  1   force =     0.00077321   -0.00075939   -0.00000283
     atom    5 type  2   force =     0.00075027    0.00073209   -0.00000266
     atom    6 type  2   force =    -0.00075616   -0.00072404   -0.00000263
     atom    7 type  2   force =    -0.00075553    0.00073158    0.00000258
     atom    8 type  2   force =     0.00075008   -0.00072245    0.00000259

     Total force =     0.003009     Total SCF correction =     0.000181


     Computing stress (Cartesian axis) and pressure

          total   stress  (Ry/bohr**3)                   (kbar)     P=  -68.20
  -0.00050636   0.00000000  -0.00000000        -74.49      0.00     -0.00
   0.00000000  -0.00042076  -0.00000000          0.00    -61.90     -0.00
  -0.00000000  -0.00000000  -0.00046364         -0.00     -0.00    -68.20


     number of scf cycles    =   3
     number of bfgs steps    =   2

     energy   old            =    -608.3926339012 Ry
     energy   new            =    -608.3926758801 Ry

     CASE: energy  _new < energy  _old

     new trust radius        =       0.0035865484 bohr
     new conv_thr            =       0.0000000004 Ry


ATOMIC_POSITIONS (alat)
Mg      -0.000802540   0.000838223  -0.000002939
Mg      -0.000831185   0.499152078   0.500002954
Mg       0.500809406   0.000868661   0.500002937
Mg       0.500806162   0.499154437  -0.000003032
O        0.500888713   0.000913936  -0.000003199
O       -0.000881166   0.499081067  -0.000003201
O       -0.000881129   0.000913447   0.500003233
O        0.500891739   0.499078152   0.500003247



     Writing output data file diamond.1.003571.70.4.save
     NEW-OLD atomic charge density approx. for the potential

     Check: negative/imaginary core charge=   -0.000007    0.000000

     total cpu time spent up to now is       34.7 secs

     per-process dynamical memory:    52.1 Mb

     Self-consistent Calculation

     iteration #  1     ecut=    70.00 Ry     beta=0.70
     Davidson diagonalization with overlap
     ethr =  1.00E-06,  avg # of iterations =  3.0

     Threshold (ethr) on eigenvalues was too large:
     Diagonalizing with lowered threshold

     Davidson diagonalization with overlap
     ethr =  2.70E-08,  avg # of iterations =  1.1

     total cpu time spent up to now is       38.1 secs

     total energy              =    -608.39268513 Ry
     Harris-Foulkes estimate   =    -608.39269782 Ry
     estimated scf accuracy    <       0.00001731 Ry

     iteration #  2     ecut=    70.00 Ry     beta=0.70
     Davidson diagonalization with overlap
     ethr =  2.71E-08,  avg # of iterations =  2.2

     total cpu time spent up to now is       39.6 secs

     total energy              =    -608.39269040 Ry
     Harris-Foulkes estimate   =    -608.39269219 Ry
     estimated scf accuracy    <       0.00000300 Ry

     iteration #  3     ecut=    70.00 Ry     beta=0.70
     Davidson diagonalization with overlap
     ethr =  4.68E-09,  avg # of iterations =  2.0

     total cpu time spent up to now is       41.0 secs

     total energy              =    -608.39269104 Ry
     Harris-Foulkes estimate   =    -608.39269103 Ry
     estimated scf accuracy    <       0.00000002 Ry

     iteration #  4     ecut=    70.00 Ry     beta=0.70
     Davidson diagonalization with overlap
     ethr =  3.11E-11,  avg # of iterations =  2.5

     total cpu time spent up to now is       42.7 secs

     total energy              =    -608.39269105 Ry
     Harris-Foulkes estimate   =    -608.39269105 Ry
     estimated scf accuracy    <          1.7E-09 Ry

     iteration #  5     ecut=    70.00 Ry     beta=0.70
     Davidson diagonalization with overlap
     ethr =  2.66E-12,  avg # of iterations =  2.1

     total cpu time spent up to now is       44.2 secs

     End of self-consistent calculation

          k = 0.0000 0.0000 0.0000 (  5153 PWs)   bands (ev):

   -64.8345 -64.8251 -64.8249 -64.8242 -31.6327 -31.6309 -31.6290 -31.5955
   -31.5947 -31.5942 -31.5925 -31.5919 -31.5911 -31.5677 -31.5638 -31.5618
    -9.3648  -7.9232  -7.9139  -7.9046   3.7465   3.7580   3.7698   6.3546
     6.3579   6.3768   6.3831   6.4023   6.4054   7.6639   7.6725   7.6802

          k = 0.0000 0.0000 0.2500 (  5167 PWs)   bands (ev):

   -64.8331 -64.8262 -64.8250 -64.8244 -31.6267 -31.6225 -31.6206 -31.6012
   -31.5962 -31.5946 -31.5934 -31.5911 -31.5867 -31.5781 -31.5733 -31.5690
    -9.1563  -8.1287  -7.8921  -7.8788   4.0375   4.0594   4.0952   5.8520
     5.8633   6.1532   6.1879   6.5227   6.5634   6.6589   7.4394   7.4612

          k = 0.0000 0.0000-0.5000 (  5126 PWs)   bands (ev):

   -64.8299 -64.8294 -64.8250 -64.8244 -31.6127 -31.6125 -31.6075 -31.6072
   -31.6019 -31.6018 -31.5910 -31.5909 -31.5822 -31.5820 -31.5788 -31.5785
    -8.6461  -8.6460  -7.8567  -7.8566   4.8385   4.8385   4.8567   4.8567
     5.1226   5.1229   5.9733   5.9736   6.9518   6.9518   6.9848   6.9848

          k = 0.0000 0.2509 0.0000 (  5161 PWs)   bands (ev):

   -64.8330 -64.8261 -64.8251 -64.8245 -31.6265 -31.6241 -31.6190 -31.6003
   -31.5975 -31.5918 -31.5914 -31.5909 -31.5897 -31.5761 -31.5734 -31.5715
    -9.1543  -8.1198  -7.8923  -7.8857   4.0400   4.0507   4.1011   5.8717
     5.8775   6.1482   6.1655   6.5201   6.5407   6.6514   7.4454   7.4563

          k = 0.0000 0.2509 0.2500 (  5151 PWs)   bands (ev):

   -64.8318 -64.8262 -64.8258 -64.8248 -31.6216 -31.6207 -31.6188 -31.6060
   -31.5964 -31.5957 -31.5919 -31.5866 -31.5856 -31.5847 -31.5772 -31.5670
    -8.9644  -8.0638  -8.0572  -7.8949   4.1591   4.1625   4.3205   5.0716
     5.8366   6.0518   6.0690   6.4684   6.4741   6.5956   7.1812   7.5041

          k = 0.0000 0.2509-0.5000 (  5146 PWs)   bands (ev):

   -64.8291 -64.8287 -64.8257 -64.8251 -31.6159 -31.6158 -31.6094 -31.6094
   -31.6087 -31.6085 -31.5871 -31.5869 -31.5827 -31.5827 -31.5737 -31.5735
    -8.5086  -8.5085  -7.9458  -7.9457   4.4134   4.4135   4.7426   4.7429
     5.0901   5.0901   6.5557   6.5560   6.5867   6.5868   7.0877   7.0877

          k = 0.0000-0.5018 0.0000 (  5110 PWs)   bands (ev):

   -64.8298 -64.8293 -64.8251 -64.8245 -31.6117 -31.6114 -31.6090 -31.6088
   -31.5992 -31.5991 -31.5892 -31.5892 -31.5826 -31.5823 -31.5809 -31.5807
    -8.6399  -8.6397  -7.8592  -7.8591   4.8480   4.8482   4.8573   4.8575
     5.1193   5.1197   5.9551   5.9554   6.9535   6.9538   6.9699   6.9702

          k = 0.0000-0.5018 0.2500 (  5146 PWs)   bands (ev):

   -64.8291 -64.8287 -64.8257 -64.8252 -31.6169 -31.6168 -31.6090 -31.6090
   -31.6084 -31.6082 -31.5876 -31.5874 -31.5813 -31.5812 -31.5744 -31.5743
    -8.5045  -8.5043  -7.9480  -7.9479   4.4130   4.4131   4.7398   4.7402
     5.0971   5.0973   6.5455   6.5457   6.5770   6.5773   7.0917   7.0917

          k = 0.0000-0.5018-0.5000 (  5176 PWs)   bands (ev):

   -64.8274 -64.8274 -64.8274 -64.8264 -31.6182 -31.6180 -31.6178 -31.6178
   -31.5991 -31.5989 -31.5989 -31.5986 -31.5744 -31.5742 -31.5741 -31.5740
    -8.2031  -8.2030  -8.2029  -8.2029   4.2796   4.2797   4.2799   4.2801
     5.7684   5.7685   5.7689   5.7689   7.0685   7.0687   7.0688   7.0689

          k = 0.2491 0.0000 0.0000 (  5166 PWs)   bands (ev):

   -64.8331 -64.8263 -64.8249 -64.8243 -31.6240 -31.6238 -31.6221 -31.5986
   -31.5964 -31.5959 -31.5953 -31.5883 -31.5861 -31.5816 -31.5715 -31.5695
    -9.1584  -8.1377  -7.8851  -7.8785   4.0462   4.0574   4.0884   5.8385
     5.8440   6.1758   6.1933   6.5451   6.5652   6.6655   7.4438   7.4550

          k = 0.2491 0.0000 0.2500 (  5155 PWs)   bands (ev):

   -64.8319 -64.8262 -64.8258 -64.8247 -31.6223 -31.6211 -31.6177 -31.6085
   -31.5936 -31.5919 -31.5912 -31.5893 -31.5883 -31.5864 -31.5729 -31.5694
    -8.9680  -8.0708  -8.0642  -7.8859   4.1606   4.1634   4.3366   5.0710
     5.8575   6.0424   6.0594   6.4954   6.5011   6.5716   7.1655   7.5069

          k = 0.2491 0.0000-0.5000 (  5148 PWs)   bands (ev):

   -64.8291 -64.8287 -64.8257 -64.8251 -31.6182 -31.6181 -31.6103 -31.6102
   -31.6045 -31.6042 -31.5844 -31.5844 -31.5826 -31.5823 -31.5774 -31.5772
    -8.5109  -8.5108  -7.9484  -7.9484   4.4235   4.4235   4.7595   4.7597
     5.1024   5.1024   6.5398   6.5400   6.5648   6.5648   7.1001   7.1001

          k = 0.2491 0.2509 0.0000 (  5153 PWs)   bands (ev):

   -64.8318 -64.8262 -64.8258 -64.8248 -31.6225 -31.6195 -31.6187 -31.6074
   -31.5944 -31.5937 -31.5925 -31.5883 -31.5874 -31.5850 -31.5752 -31.5678
    -8.9661  -8.0706  -8.0574  -7.8904   4.1583   4.1648   4.3285   5.0713
     5.8471   6.0385   6.0723   6.4787   6.4905   6.5837   7.1734   7.5055

          k = 0.2491 0.2509 0.2500 (  5149 PWs)   bands (ev):

   -64.8308 -64.8262 -64.8262 -64.8254 -31.6256 -31.6249 -31.6243 -31.6058
   -31.5938 -31.5937 -31.5931 -31.5854 -31.5836 -31.5823 -31.5726 -31.5693
    -8.7963  -8.0356  -8.0308  -8.0261   3.9990   4.0003   4.0019   5.0891
     5.8403   5.8456   5.8510   6.6951   6.7055   6.7156   7.3542   7.3564

          k = 0.2491 0.2509-0.5000 (  5130 PWs)   bands (ev):

   -64.8286 -64.8282 -64.8262 -64.8256 -31.6278 -31.6277 -31.6209 -31.6208
   -31.5931 -31.5928 -31.5802 -31.5802 -31.5794 -31.5792 -31.5757 -31.5755
    -8.3992  -8.3992  -7.9973  -7.9973   3.8214   3.8215   4.1978   4.1980
     5.8301   5.8301   6.7402   6.7404   6.8686   6.8688   7.0160   7.0160

          k = 0.2491-0.5018 0.0000 (  5154 PWs)   bands (ev):

   -64.8291 -64.8287 -64.8257 -64.8252 -31.6179 -31.6178 -31.6095 -31.6094
   -31.6065 -31.6063 -31.5855 -31.5853 -31.5825 -31.5825 -31.5764 -31.5763
    -8.5057  -8.5055  -7.9493  -7.9492   4.4182   4.4183   4.7482   4.7486
     5.1031   5.1033   6.5372   6.5375   6.5661   6.5663   7.0977   7.0977

          k = 0.2491-0.5018 0.2500 (  5136 PWs)   bands (ev):

   -64.8286 -64.8282 -64.8262 -64.8256 -31.6282 -31.6281 -31.6207 -31.6206
   -31.5939 -31.5937 -31.5794 -31.5793 -31.5791 -31.5791 -31.5764 -31.5763
    -8.3959  -8.3957  -7.9985  -7.9984   3.8206   3.8206   4.1921   4.1925
     5.8307   5.8307   6.7372   6.7374   6.8737   6.8739   7.0099   7.0101

          k = 0.2491-0.5018-0.5000 (  5128 PWs)   bands (ev):

   -64.8274 -64.8274 -64.8274 -64.8264 -31.6313 -31.6310 -31.6310 -31.6310
   -31.5842 -31.5840 -31.5840 -31.5838 -31.5738 -31.5737 -31.5735 -31.5735
    -8.1668  -8.1666  -8.1666  -8.1666   3.6357   3.6358   3.6359   3.6360
     6.5200   6.5200   6.5203   6.5203   7.0694   7.0696   7.0696   7.0698

          k =-0.4982 0.0000 0.0000 (  5146 PWs)   bands (ev):

   -64.8299 -64.8295 -64.8249 -64.8244 -31.6101 -31.6099 -31.6080 -31.6078
   -31.6037 -31.6036 -31.5956 -31.5956 -31.5802 -31.5799 -31.5784 -31.5782
    -8.6525  -8.6520  -7.8542  -7.8541   4.8377   4.8386   4.8466   4.8476
     5.1257   5.1260   5.9905   5.9908   6.9662   6.9666   6.9828   6.9832

          k =-0.4982 0.0000 0.2500 (  5148 PWs)   bands (ev):

   -64.8292 -64.8287 -64.8256 -64.8251 -31.6176 -31.6175 -31.6110 -31.6109
   -31.6048 -31.6045 -31.5855 -31.5855 -31.5823 -31.5821 -31.5761 -31.5760
    -8.5152  -8.5147  -7.9462  -7.9461   4.4233   4.4238   4.7621   4.7623
     5.0949   5.0958   6.5502   6.5505   6.5740   6.5746   7.0962   7.0964

          k =-0.4982 0.0000-0.5000 (  5192 PWs)   bands (ev):

   -64.8274 -64.8274 -64.8274 -64.8264 -31.6196 -31.6194 -31.6193 -31.6193
   -31.5944 -31.5942 -31.5942 -31.5940 -31.5780 -31.5778 -31.5777 -31.5777
    -8.2081  -8.2080  -8.2078  -8.2077   4.3067   4.3067   4.3068   4.3070
     5.7661   5.7661   5.7669   5.7670   7.0577   7.0578   7.0579   7.0580

          k =-0.4982 0.2509 0.0000 (  5152 PWs)   bands (ev):

   -64.8292 -64.8287 -64.8256 -64.8251 -31.6166 -31.6165 -31.6109 -31.6108
   -31.6072 -31.6069 -31.5847 -31.5846 -31.5844 -31.5842 -31.5742 -31.5740
    -8.5140  -8.5136  -7.9448  -7.9447   4.4185   4.4189   4.7536   4.7538
     5.0886   5.0895   6.5580   6.5584   6.5850   6.5856   7.0897   7.0900

          k =-0.4982 0.2509 0.2500 (  5136 PWs)   bands (ev):

   -64.8286 -64.8283 -64.8262 -64.8256 -31.6278 -31.6277 -31.6214 -31.6213
   -31.5918 -31.5916 -31.5820 -31.5819 -31.5788 -31.5787 -31.5759 -31.5757
    -8.4027  -8.4024  -7.9961  -7.9960   3.8222   3.8223   4.2034   4.2036
     5.8298   5.8298   6.7429   6.7431   6.8633   6.8636   7.0217   7.0220

          k =-0.4982 0.2509-0.5000 (  5148 PWs)   bands (ev):

   -64.8274 -64.8274 -64.8274 -64.8264 -31.6319 -31.6317 -31.6317 -31.6316
   -31.5817 -31.5815 -31.5815 -31.5813 -31.5767 -31.5765 -31.5764 -31.5763
    -8.1693  -8.1692  -8.1691  -8.1690   3.6446   3.6448   3.6448   3.6448
     6.5282   6.5283   6.5287   6.5287   7.0588   7.0590   7.0590   7.0592

          k =-0.4982-0.5018 0.0000 (  5192 PWs)   bands (ev):

   -64.8274 -64.8274 -64.8274 -64.8264 -31.6190 -31.6188 -31.6186 -31.6186
   -31.5972 -31.5971 -31.5971 -31.5968 -31.5761 -31.5759 -31.5758 -31.5757
    -8.2056  -8.2055  -8.2053  -8.2052   4.2931   4.2932   4.2933   4.2936
     5.7667   5.7669   5.7675   5.7677   7.0630   7.0632   7.0632   7.0634

          k =-0.4982-0.5018 0.2500 (  5136 PWs)   bands (ev):

   -64.8274 -64.8274 -64.8274 -64.8264 -31.6317 -31.6314 -31.6314 -31.6314
   -31.5832 -31.5830 -31.5830 -31.5828 -31.5749 -31.5747 -31.5746 -31.5745
    -8.1681  -8.1679  -8.1678  -8.1677   3.6401   3.6402   3.6403   3.6404
     6.5240   6.5242   6.5245   6.5246   7.0641   7.0642   7.0643   7.0645

          k =-0.4982-0.5018-0.5000 (  5144 PWs)   bands (ev):

   -64.8274 -64.8274 -64.8274 -64.8264 -31.6397 -31.6395 -31.6395 -31.6394
   -31.5772 -31.5770 -31.5769 -31.5768 -31.5733 -31.5731 -31.5730 -31.5729
    -8.1299  -8.1298  -8.1298  -8.1297   3.2173   3.2175   3.2175   3.2175
     7.0588   7.0589   7.0590   7.0591   7.0710   7.0711   7.0712   7.0713

          k = 0.0000-0.2509 0.2500 (  5151 PWs)   bands (ev):

   -64.8318 -64.8262 -64.8258 -64.8248 -31.6216 -31.6207 -31.6188 -31.6060
   -31.5964 -31.5957 -31.5919 -31.5866 -31.5856 -31.5847 -31.5772 -31.5670
    -8.9644  -8.0638  -8.0572  -7.8949   4.1591   4.1625   4.3205   5.0716
     5.8366   6.0518   6.0690   6.4684   6.4741   6.5956   7.1812   7.5041

          k =-0.2491 0.0000 0.2500 (  5155 PWs)   bands (ev):

   -64.8319 -64.8262 -64.8258 -64.8247 -31.6223 -31.6211 -31.6177 -31.6085
   -31.5936 -31.5919 -31.5912 -31.5893 -31.5883 -31.5864 -31.5729 -31.5694
    -8.9680  -8.0708  -8.0642  -7.8859   4.1606   4.1634   4.3366   5.0710
     5.8575   6.0424   6.0594   6.4954   6.5011   6.5716   7.1655   7.5069

          k =-0.2491 0.2509 0.0000 (  5153 PWs)   bands (ev):

   -64.8318 -64.8262 -64.8258 -64.8248 -31.6225 -31.6195 -31.6187 -31.6074
   -31.5944 -31.5937 -31.5925 -31.5883 -31.5874 -31.5850 -31.5752 -31.5678
    -8.9661  -8.0706  -8.0574  -7.8904   4.1583   4.1648   4.3285   5.0713
     5.8471   6.0385   6.0723   6.4787   6.4905   6.5837   7.1734   7.5055

          k =-0.2491-0.2509 0.2500 (  5149 PWs)   bands (ev):

   -64.8308 -64.8262 -64.8262 -64.8254 -31.6256 -31.6249 -31.6243 -31.6058
   -31.5938 -31.5937 -31.5931 -31.5854 -31.5836 -31.5823 -31.5726 -31.5693
    -8.7963  -8.0356  -8.0308  -8.0261   3.9990   4.0003   4.0019   5.0891
     5.8403   5.8456   5.8510   6.6951   6.7055   6.7156   7.3542   7.3564

          k =-0.2491 0.2509-0.2500 (  5149 PWs)   bands (ev):

   -64.8308 -64.8262 -64.8262 -64.8254 -31.6256 -31.6249 -31.6243 -31.6058
   -31.5938 -31.5937 -31.5931 -31.5854 -31.5836 -31.5823 -31.5726 -31.5693
    -8.7963  -8.0356  -8.0308  -8.0261   3.9990   4.0003   4.0019   5.0891
     5.8403   5.8456   5.8510   6.6951   6.7055   6.7156   7.3542   7.3564

          k = 0.2491-0.2509-0.2500 (  5149 PWs)   bands (ev):

   -64.8308 -64.8262 -64.8262 -64.8254 -31.6256 -31.6249 -31.6243 -31.6058
   -31.5938 -31.5937 -31.5931 -31.5854 -31.5836 -31.5823 -31.5726 -31.5693
    -8.7963  -8.0356  -8.0308  -8.0261   3.9990   4.0003   4.0019   5.0891
     5.8403   5.8456   5.8510   6.6951   6.7055   6.7156   7.3542   7.3564

          k =-0.2491 0.2509 0.5000 (  5130 PWs)   bands (ev):

   -64.8286 -64.8282 -64.8262 -64.8256 -31.6278 -31.6277 -31.6209 -31.6208
   -31.5931 -31.5928 -31.5802 -31.5802 -31.5794 -31.5792 -31.5757 -31.5755
    -8.3992  -8.3992  -7.9973  -7.9973   3.8214   3.8215   4.1978   4.1980
     5.8301   5.8301   6.7402   6.7404   6.8686   6.8688   7.0160   7.0160

          k =-0.2491 0.5018 0.2500 (  5136 PWs)   bands (ev):

   -64.8286 -64.8282 -64.8262 -64.8256 -31.6282 -31.6281 -31.6207 -31.6206
   -31.5939 -31.5937 -31.5794 -31.5793 -31.5791 -31.5791 -31.5764 -31.5763
    -8.3959  -8.3957  -7.9985  -7.9984   3.8206   3.8206   4.1921   4.1925
     5.8307   5.8307   6.7372   6.7374   6.8737   6.8739   7.0099   7.0101

          k = 0.4982-0.2509 0.2500 (  5136 PWs)   bands (ev):

   -64.8286 -64.8283 -64.8262 -64.8256 -31.6278 -31.6277 -31.6214 -31.6213
   -31.5918 -31.5916 -31.5820 -31.5819 -31.5788 -31.5787 -31.5759 -31.5757
    -8.4027  -8.4024  -7.9961  -7.9960   3.8222   3.8223   4.2034   4.2036
     5.8298   5.8298   6.7429   6.7431   6.8633   6.8636   7.0217   7.0220

     highest occupied level (ev):     7.6802

!    total energy              =    -608.39269105 Ry
     Harris-Foulkes estimate   =    -608.39269105 Ry
     estimated scf accuracy    <          2.9E-10 Ry

     The total energy is the sum of the following terms:

     one-electron contribution =    -303.56654060 Ry
     hartree contribution      =     168.07264624 Ry
     xc contribution           =     -97.84659815 Ry
     ewald contribution        =    -375.05219853 Ry

     convergence has been achieved in   5 iterations

     Forces acting on atoms (cartesian axes, Ry/au):

     atom    1 type  1   force =    -0.00004959   -0.00002926   -0.00000003
     atom    2 type  1   force =    -0.00013766   -0.00004052    0.00000029
     atom    3 type  1   force =     0.00011857    0.00005896    0.00000032
     atom    4 type  1   force =     0.00012017   -0.00004183   -0.00000036
     atom    5 type  2   force =    -0.00002675   -0.00008472    0.00000015
     atom    6 type  2   force =     0.00000531    0.00010400    0.00000017
     atom    7 type  2   force =     0.00000690   -0.00008465   -0.00000024
     atom    8 type  2   force =    -0.00003694    0.00011803   -0.00000029

     Total force =     0.000314     Total SCF correction =     0.000193
     SCF correction compared to forces is large: reduce conv_thr to get better values


     Computing stress (Cartesian axis) and pressure

          total   stress  (Ry/bohr**3)                   (kbar)     P=  -68.21
  -0.00050654   0.00000000  -0.00000000        -74.51      0.00     -0.00
   0.00000000  -0.00042092   0.00000000          0.00    -61.92      0.00
  -0.00000000   0.00000000  -0.00046364         -0.00      0.00    -68.20


     number of scf cycles    =   4
     number of bfgs steps    =   3

     energy   old            =    -608.3926758801 Ry
     energy   new            =    -608.3926910473 Ry

     CASE: energy  _new < energy  _old

     new trust radius        =       0.0001640760 bohr
     new conv_thr            =       0.0000000001 Ry


ATOMIC_POSITIONS (alat)
Mg      -0.000810596   0.000836489  -0.000002949
Mg      -0.000850332   0.499145054   0.500002998
Mg       0.500826113   0.000878040   0.500002983
Mg       0.500823062   0.499147254  -0.000003084
O        0.500887409   0.000905429  -0.000003187
O       -0.000882529   0.499091976  -0.000003187
O       -0.000882293   0.000904948   0.500003210
O        0.500889166   0.499090810   0.500003217



     Writing output data file diamond.1.003571.70.4.save
     NEW-OLD atomic charge density approx. for the potential

     Check: negative/imaginary core charge=   -0.000007    0.000000

     total cpu time spent up to now is       45.0 secs

     per-process dynamical memory:    52.1 Mb

     Self-consistent Calculation

     iteration #  1     ecut=    70.00 Ry     beta=0.70
     Davidson diagonalization with overlap
     ethr =  1.00E-06,  avg # of iterations =  1.6

     Threshold (ethr) on eigenvalues was too large:
     Diagonalizing with lowered threshold

     Davidson diagonalization with overlap
     ethr =  2.14E-11,  avg # of iterations =  3.3

     total cpu time spent up to now is       48.6 secs

     total energy              =    -608.39269113 Ry
     Harris-Foulkes estimate   =    -608.39269113 Ry
     estimated scf accuracy    <          6.6E-09 Ry

     iteration #  2     ecut=    70.00 Ry     beta=0.70
     Davidson diagonalization with overlap
     ethr =  1.03E-11,  avg # of iterations =  2.2

     total cpu time spent up to now is       50.1 secs

     total energy              =    -608.39269113 Ry
     Harris-Foulkes estimate   =    -608.39269113 Ry
     estimated scf accuracy    <          1.5E-09 Ry

     iteration #  3     ecut=    70.00 Ry     beta=0.70
     Davidson diagonalization with overlap
     ethr =  2.28E-12,  avg # of iterations =  2.8

     total cpu time spent up to now is       51.6 secs

     total energy              =    -608.39269113 Ry
     Harris-Foulkes estimate   =    -608.39269113 Ry
     estimated scf accuracy    <          1.4E-10 Ry

     iteration #  4     ecut=    70.00 Ry     beta=0.70
     Davidson diagonalization with overlap
     ethr =  2.23E-13,  avg # of iterations =  3.0

     total cpu time spent up to now is       53.3 secs

     End of self-consistent calculation

          k = 0.0000 0.0000 0.0000 (  5153 PWs)   bands (ev):

   -64.8345 -64.8251 -64.8249 -64.8242 -31.6327 -31.6309 -31.6290 -31.5955
   -31.5947 -31.5942 -31.5925 -31.5919 -31.5911 -31.5677 -31.5638 -31.5618
    -9.3648  -7.9232  -7.9139  -7.9046   3.7465   3.7580   3.7698   6.3546
     6.3579   6.3768   6.3831   6.4023   6.4054   7.6639   7.6725   7.6802

          k = 0.0000 0.0000 0.2500 (  5167 PWs)   bands (ev):

   -64.8331 -64.8262 -64.8250 -64.8244 -31.6267 -31.6225 -31.6206 -31.6012
   -31.5962 -31.5946 -31.5934 -31.5911 -31.5867 -31.5781 -31.5733 -31.5690
    -9.1563  -8.1287  -7.8921  -7.8788   4.0375   4.0594   4.0952   5.8520
     5.8633   6.1532   6.1879   6.5227   6.5634   6.6589   7.4394   7.4612

          k = 0.0000 0.0000-0.5000 (  5126 PWs)   bands (ev):

   -64.8299 -64.8294 -64.8250 -64.8244 -31.6127 -31.6125 -31.6075 -31.6072
   -31.6019 -31.6018 -31.5910 -31.5909 -31.5822 -31.5820 -31.5788 -31.5785
    -8.6461  -8.6460  -7.8567  -7.8566   4.8385   4.8385   4.8567   4.8567
     5.1226   5.1229   5.9733   5.9736   6.9518   6.9518   6.9848   6.9848

          k = 0.0000 0.2509 0.0000 (  5161 PWs)   bands (ev):

   -64.8330 -64.8261 -64.8251 -64.8245 -31.6265 -31.6241 -31.6190 -31.6003
   -31.5975 -31.5918 -31.5914 -31.5909 -31.5897 -31.5761 -31.5734 -31.5715
    -9.1543  -8.1198  -7.8923  -7.8857   4.0400   4.0507   4.1011   5.8717
     5.8775   6.1482   6.1655   6.5201   6.5407   6.6514   7.4454   7.4563

          k = 0.0000 0.2509 0.2500 (  5151 PWs)   bands (ev):

   -64.8318 -64.8262 -64.8258 -64.8248 -31.6216 -31.6207 -31.6188 -31.6060
   -31.5964 -31.5957 -31.5919 -31.5866 -31.5856 -31.5847 -31.5772 -31.5670
    -8.9644  -8.0638  -8.0572  -7.8949   4.1591   4.1625   4.3205   5.0716
     5.8366   6.0518   6.0690   6.4684   6.4741   6.5956   7.1812   7.5041

          k = 0.0000 0.2509-0.5000 (  5146 PWs)   bands (ev):

   -64.8291 -64.8287 -64.8257 -64.8251 -31.6159 -31.6158 -31.6094 -31.6094
   -31.6087 -31.6085 -31.5871 -31.5869 -31.5827 -31.5827 -31.5737 -31.5735
    -8.5086  -8.5085  -7.9458  -7.9457   4.4134   4.4135   4.7426   4.7429
     5.0901   5.0901   6.5557   6.5560   6.5867   6.5868   7.0877   7.0877

          k = 0.0000-0.5018 0.0000 (  5110 PWs)   bands (ev):

   -64.8298 -64.8293 -64.8251 -64.8245 -31.6117 -31.6114 -31.6090 -31.6088
   -31.5992 -31.5991 -31.5892 -31.5892 -31.5826 -31.5823 -31.5809 -31.5807
    -8.6398  -8.6397  -7.8592  -7.8591   4.8481   4.8481   4.8573   4.8574
     5.1194   5.1197   5.9551   5.9554   6.9536   6.9537   6.9700   6.9701

          k = 0.0000-0.5018 0.2500 (  5146 PWs)   bands (ev):

   -64.8291 -64.8287 -64.8257 -64.8252 -31.6169 -31.6168 -31.6090 -31.6090
   -31.6084 -31.6082 -31.5876 -31.5874 -31.5813 -31.5812 -31.5744 -31.5743
    -8.5045  -8.5044  -7.9480  -7.9479   4.4130   4.4131   4.7398   4.7401
     5.0972   5.0973   6.5455   6.5457   6.5771   6.5772   7.0917   7.0917

          k = 0.0000-0.5018-0.5000 (  5176 PWs)   bands (ev):

   -64.8274 -64.8274 -64.8274 -64.8264 -31.6182 -31.6180 -31.6178 -31.6178
   -31.5991 -31.5989 -31.5989 -31.5986 -31.5744 -31.5742 -31.5741 -31.5740
    -8.2031  -8.2029  -8.2029  -8.2029   4.2797   4.2798   4.2799   4.2800
     5.7685   5.7685   5.7688   5.7688   7.0686   7.0687   7.0687   7.0689

          k = 0.2491 0.0000 0.0000 (  5166 PWs)   bands (ev):

   -64.8331 -64.8263 -64.8249 -64.8243 -31.6240 -31.6238 -31.6221 -31.5986
   -31.5964 -31.5959 -31.5953 -31.5883 -31.5861 -31.5816 -31.5715 -31.5695
    -9.1584  -8.1377  -7.8851  -7.8785   4.0462   4.0574   4.0884   5.8385
     5.8440   6.1758   6.1933   6.5451   6.5652   6.6655   7.4438   7.4550

          k = 0.2491 0.0000 0.2500 (  5155 PWs)   bands (ev):

   -64.8319 -64.8262 -64.8258 -64.8247 -31.6223 -31.6211 -31.6177 -31.6085
   -31.5936 -31.5919 -31.5912 -31.5893 -31.5883 -31.5864 -31.5729 -31.5694
    -8.9680  -8.0708  -8.0642  -7.8859   4.1606   4.1634   4.3366   5.0710
     5.8575   6.0424   6.0594   6.4954   6.5011   6.5716   7.1655   7.5069

          k = 0.2491 0.0000-0.5000 (  5148 PWs)   bands (ev):

   -64.8291 -64.8287 -64.8257 -64.8251 -31.6182 -31.6181 -31.6103 -31.6102
   -31.6045 -31.6042 -31.5844 -31.5844 -31.5826 -31.5823 -31.5774 -31.5772
    -8.5109  -8.5108  -7.9484  -7.9484   4.4235   4.4235   4.7595   4.7597
     5.1024   5.1024   6.5398   6.5400   6.5648   6.5648   7.1001   7.1001

          k = 0.2491 0.2509 0.0000 (  5153 PWs)   bands (ev):

   -64.8318 -64.8262 -64.8258 -64.8248 -31.6225 -31.6195 -31.6187 -31.6074
   -31.5944 -31.5937 -31.5925 -31.5883 -31.5874 -31.5850 -31.5752 -31.5678
    -8.9661  -8.0706  -8.0574  -7.8904   4.1583   4.1648   4.3285   5.0713
     5.8471   6.0385   6.0723   6.4787   6.4905   6.5837   7.1734   7.5055

          k = 0.2491 0.2509 0.2500 (  5149 PWs)   bands (ev):

   -64.8308 -64.8262 -64.8262 -64.8254 -31.6256 -31.6249 -31.6243 -31.6058
   -31.5938 -31.5937 -31.5931 -31.5854 -31.5836 -31.5823 -31.5726 -31.5693
    -8.7963  -8.0356  -8.0308  -8.0261   3.9990   4.0003   4.0019   5.0891
     5.8403   5.8456   5.8510   6.6951   6.7055   6.7156   7.3542   7.3564

          k = 0.2491 0.2509-0.5000 (  5130 PWs)   bands (ev):

   -64.8286 -64.8282 -64.8262 -64.8256 -31.6278 -31.6277 -31.6209 -31.6208
   -31.5931 -31.5928 -31.5802 -31.5802 -31.5794 -31.5792 -31.5757 -31.5755
    -8.3992  -8.3992  -7.9973  -7.9973   3.8214   3.8215   4.1978   4.1980
     5.8301   5.8301   6.7402   6.7404   6.8686   6.8688   7.0160   7.0160

          k = 0.2491-0.5018 0.0000 (  5154 PWs)   bands (ev):

   -64.8291 -64.8287 -64.8257 -64.8252 -31.6179 -31.6178 -31.6095 -31.6094
   -31.6065 -31.6063 -31.5855 -31.5853 -31.5825 -31.5825 -31.5764 -31.5763
    -8.5056  -8.5055  -7.9493  -7.9492   4.4182   4.4183   4.7483   4.7486
     5.1032   5.1032   6.5373   6.5375   6.5661   6.5662   7.0977   7.0977

          k = 0.2491-0.5018 0.2500 (  5136 PWs)   bands (ev):

   -64.8286 -64.8282 -64.8262 -64.8256 -31.6282 -31.6281 -31.6207 -31.6206
   -31.5939 -31.5937 -31.5794 -31.5793 -31.5791 -31.5791 -31.5764 -31.5763
    -8.3959  -8.3958  -7.9985  -7.9984   3.8206   3.8206   4.1922   4.1924
     5.8307   5.8307   6.7372   6.7374   6.8737   6.8739   7.0099   7.0100

          k = 0.2491-0.5018-0.5000 (  5128 PWs)   bands (ev):

   -64.8274 -64.8274 -64.8274 -64.8264 -31.6313 -31.6310 -31.6310 -31.6310
   -31.5842 -31.5840 -31.5840 -31.5838 -31.5738 -31.5737 -31.5735 -31.5735
    -8.1668  -8.1666  -8.1666  -8.1666   3.6357   3.6358   3.6359   3.6359
     6.5200   6.5200   6.5203   6.5203   7.0694   7.0696   7.0696   7.0697

          k =-0.4982 0.0000 0.0000 (  5146 PWs)   bands (ev):

   -64.8299 -64.8295 -64.8249 -64.8244 -31.6101 -31.6099 -31.6080 -31.6078
   -31.6037 -31.6036 -31.5956 -31.5956 -31.5802 -31.5799 -31.5784 -31.5782
    -8.6525  -8.6520  -7.8542  -7.8541   4.8378   4.8386   4.8467   4.8475
     5.1257   5.1260   5.9905   5.9908   6.9662   6.9666   6.9828   6.9832

          k =-0.4982 0.0000 0.2500 (  5148 PWs)   bands (ev):

   -64.8292 -64.8287 -64.8256 -64.8251 -31.6176 -31.6175 -31.6110 -31.6109
   -31.6048 -31.6045 -31.5855 -31.5855 -31.5823 -31.5821 -31.5761 -31.5760
    -8.5151  -8.5147  -7.9462  -7.9461   4.4234   4.4238   4.7621   4.7623
     5.0950   5.0957   6.5502   6.5505   6.5741   6.5745   7.0962   7.0964

          k =-0.4982 0.0000-0.5000 (  5192 PWs)   bands (ev):

   -64.8274 -64.8274 -64.8274 -64.8264 -31.6196 -31.6194 -31.6193 -31.6193
   -31.5944 -31.5942 -31.5942 -31.5940 -31.5780 -31.5778 -31.5777 -31.5777
    -8.2081  -8.2080  -8.2078  -8.2077   4.3067   4.3068   4.3068   4.3070
     5.7662   5.7662   5.7669   5.7669   7.0577   7.0578   7.0579   7.0580

          k =-0.4982 0.2509 0.0000 (  5152 PWs)   bands (ev):

   -64.8292 -64.8287 -64.8256 -64.8251 -31.6166 -31.6165 -31.6109 -31.6108
   -31.6072 -31.6069 -31.5847 -31.5846 -31.5844 -31.5842 -31.5742 -31.5740
    -8.5140  -8.5136  -7.9448  -7.9447   4.4185   4.4189   4.7536   4.7538
     5.0887   5.0894   6.5580   6.5584   6.5851   6.5855   7.0898   7.0899

          k =-0.4982 0.2509 0.2500 (  5136 PWs)   bands (ev):

   -64.8286 -64.8283 -64.8262 -64.8256 -31.6278 -31.6277 -31.6214 -31.6213
   -31.5918 -31.5916 -31.5820 -31.5819 -31.5788 -31.5787 -31.5759 -31.5757
    -8.4027  -8.4024  -7.9961  -7.9960   3.8222   3.8223   4.2034   4.2036
     5.8298   5.8298   6.7429   6.7431   6.8633   6.8636   7.0217   7.0220

          k =-0.4982 0.2509-0.5000 (  5148 PWs)   bands (ev):

   -64.8274 -64.8274 -64.8274 -64.8264 -31.6319 -31.6317 -31.6317 -31.6316
   -31.5817 -31.5815 -31.5815 -31.5813 -31.5767 -31.5765 -31.5764 -31.5763
    -8.1693  -8.1692  -8.1691  -8.1690   3.6446   3.6448   3.6448   3.6448
     6.5282   6.5283   6.5286   6.5287   7.0588   7.0590   7.0590   7.0592

          k =-0.4982-0.5018 0.0000 (  5192 PWs)   bands (ev):

   -64.8274 -64.8274 -64.8274 -64.8264 -31.6190 -31.6188 -31.6186 -31.6186
   -31.5972 -31.5971 -31.5971 -31.5968 -31.5761 -31.5759 -31.5758 -31.5757
    -8.2056  -8.2055  -8.2053  -8.2052   4.2931   4.2932   4.2933   4.2935
     5.7668   5.7668   5.7675   5.7676   7.0630   7.0632   7.0632   7.0634

          k =-0.4982-0.5018 0.2500 (  5136 PWs)   bands (ev):

   -64.8274 -64.8274 -64.8274 -64.8264 -31.6317 -31.6314 -31.6314 -31.6314
   -31.5832 -31.5830 -31.5830 -31.5828 -31.5749 -31.5747 -31.5746 -31.5745
    -8.1680  -8.1679  -8.1678  -8.1677   3.6401   3.6403   3.6403   3.6404
     6.5241   6.5241   6.5245   6.5246   7.0641   7.0642   7.0643   7.0644

          k =-0.4982-0.5018-0.5000 (  5144 PWs)   bands (ev):

   -64.8274 -64.8274 -64.8274 -64.8264 -31.6397 -31.6395 -31.6395 -31.6394
   -31.5772 -31.5770 -31.5769 -31.5768 -31.5733 -31.5731 -31.5730 -31.5729
    -8.1299  -8.1298  -8.1298  -8.1297   3.2173   3.2175   3.2175   3.2175
     7.0588   7.0589   7.0590   7.0591   7.0710   7.0711   7.0712   7.0713

          k = 0.0000-0.2509 0.2500 (  5151 PWs)   bands (ev):

   -64.8318 -64.8262 -64.8258 -64.8248 -31.6216 -31.6207 -31.6188 -31.6060
   -31.5964 -31.5957 -31.5919 -31.5866 -31.5856 -31.5847 -31.5772 -31.5670
    -8.9644  -8.0638  -8.0572  -7.8949   4.1591   4.1625   4.3205   5.0716
     5.8366   6.0518   6.0690   6.4684   6.4741   6.5956   7.1812   7.5041

          k =-0.2491 0.0000 0.2500 (  5155 PWs)   bands (ev):

   -64.8319 -64.8262 -64.8258 -64.8247 -31.6223 -31.6211 -31.6177 -31.6085
   -31.5936 -31.5919 -31.5912 -31.5893 -31.5883 -31.5864 -31.5729 -31.5694
    -8.9680  -8.0708  -8.0642  -7.8859   4.1606   4.1634   4.3366   5.0710
     5.8575   6.0424   6.0594   6.4954   6.5011   6.5716   7.1655   7.5069

          k =-0.2491 0.2509 0.0000 (  5153 PWs)   bands (ev):

   -64.8318 -64.8262 -64.8258 -64.8248 -31.6225 -31.6195 -31.6187 -31.6074
   -31.5944 -31.5937 -31.5925 -31.5883 -31.5874 -31.5850 -31.5752 -31.5678
    -8.9661  -8.0706  -8.0574  -7.8904   4.1583   4.1648   4.3285   5.0713
     5.8471   6.0385   6.0723   6.4787   6.4905   6.5837   7.1734   7.5055

          k =-0.2491-0.2509 0.2500 (  5149 PWs)   bands (ev):

   -64.8308 -64.8262 -64.8262 -64.8254 -31.6256 -31.6249 -31.6243 -31.6058
   -31.5938 -31.5937 -31.5931 -31.5854 -31.5836 -31.5823 -31.5726 -31.5693
    -8.7963  -8.0356  -8.0308  -8.0261   3.9990   4.0003   4.0019   5.0891
     5.8403   5.8456   5.8510   6.6951   6.7055   6.7156   7.3542   7.3564

          k =-0.2491 0.2509-0.2500 (  5149 PWs)   bands (ev):

   -64.8308 -64.8262 -64.8262 -64.8254 -31.6256 -31.6249 -31.6243 -31.6058
   -31.5938 -31.5937 -31.5931 -31.5854 -31.5836 -31.5823 -31.5726 -31.5693
    -8.7963  -8.0356  -8.0308  -8.0261   3.9990   4.0003   4.0019   5.0891
     5.8403   5.8456   5.8510   6.6951   6.7055   6.7156   7.3542   7.3564

          k = 0.2491-0.2509-0.2500 (  5149 PWs)   bands (ev):

   -64.8308 -64.8262 -64.8262 -64.8254 -31.6256 -31.6249 -31.6243 -31.6058
   -31.5938 -31.5937 -31.5931 -31.5854 -31.5836 -31.5823 -31.5726 -31.5693
    -8.7963  -8.0356  -8.0308  -8.0261   3.9990   4.0003   4.0019   5.0891
     5.8403   5.8456   5.8510   6.6951   6.7055   6.7156   7.3542   7.3564

          k =-0.2491 0.2509 0.5000 (  5130 PWs)   bands (ev):

   -64.8286 -64.8282 -64.8262 -64.8256 -31.6278 -31.6277 -31.6209 -31.6208
   -31.5931 -31.5928 -31.5802 -31.5802 -31.5794 -31.5792 -31.5757 -31.5755
    -8.3992  -8.3992  -7.9973  -7.9973   3.8214   3.8215   4.1978   4.1980
     5.8301   5.8301   6.7402   6.7404   6.8686   6.8688   7.0160   7.0160

          k =-0.2491 0.5018 0.2500 (  5136 PWs)   bands (ev):

   -64.8286 -64.8282 -64.8262 -64.8256 -31.6282 -31.6281 -31.6207 -31.6206
   -31.5939 -31.5937 -31.5794 -31.5793 -31.5791 -31.5791 -31.5764 -31.5763
    -8.3959  -8.3958  -7.9985  -7.9984   3.8206   3.8206   4.1922   4.1924
     5.8307   5.8307   6.7372   6.7374   6.8737   6.8739   7.0099   7.0100

          k = 0.4982-0.2509 0.2500 (  5136 PWs)   bands (ev):

   -64.8286 -64.8283 -64.8262 -64.8256 -31.6278 -31.6277 -31.6214 -31.6213
   -31.5918 -31.5916 -31.5820 -31.5819 -31.5788 -31.5787 -31.5759 -31.5757
    -8.4027  -8.4024  -7.9961  -7.9960   3.8222   3.8223   4.2034   4.2036
     5.8298   5.8298   6.7429   6.7431   6.8633   6.8636   7.0217   7.0220

     highest occupied level (ev):     7.6802

!    total energy              =    -608.39269113 Ry
     Harris-Foulkes estimate   =    -608.39269113 Ry
     estimated scf accuracy    <          1.6E-11 Ry

     The total energy is the sum of the following terms:

     one-electron contribution =    -303.56653470 Ry
     hartree contribution      =     168.07264607 Ry
     xc contribution           =     -97.84659937 Ry
     ewald contribution        =    -375.05220313 Ry

     convergence has been achieved in   4 iterations

     Forces acting on atoms (cartesian axes, Ry/au):

     atom    1 type  1   force =    -0.00002213   -0.00003256    0.00000003
     atom    2 type  1   force =    -0.00009707   -0.00002476    0.00000019
     atom    3 type  1   force =     0.00008134    0.00004026    0.00000021
     atom    4 type  1   force =     0.00008265   -0.00002582   -0.00000025
     atom    5 type  2   force =    -0.00002185   -0.00005960    0.00000010
     atom    6 type  2   force =     0.00000522    0.00007322    0.00000011
     atom    7 type  2   force =     0.00000574   -0.00005984   -0.00000018
     atom    8 type  2   force =    -0.00003390    0.00008910   -0.00000023

     Total force =     0.000222     Total SCF correction =     0.000005


     Computing stress (Cartesian axis) and pressure

          total   stress  (Ry/bohr**3)                   (kbar)     P=  -68.21
  -0.00050653   0.00000000  -0.00000000        -74.51      0.00     -0.00
   0.00000000  -0.00042091   0.00000000          0.00    -61.92      0.00
  -0.00000000   0.00000000  -0.00046363         -0.00      0.00    -68.20


     bfgs converged in   5 scf cycles and   4 bfgs steps
     (criteria: energy <  1.0E-05 Ry, force <  1.0E-04 Ry/Bohr)

     End of BFGS Geometry Optimization

     Final energy   =    -608.3926911323 Ry
Begin final coordinates

ATOMIC_POSITIONS (alat)
Mg      -0.000810596   0.000836489  -0.000002949
Mg      -0.000850332   0.499145054   0.500002998
Mg       0.500826113   0.000878040   0.500002983
Mg       0.500823062   0.499147254  -0.000003084
O        0.500887409   0.000905429  -0.000003187
O       -0.000882529   0.499091976  -0.000003187
O       -0.000882293   0.000904948   0.500003210
O        0.500889166   0.499090810   0.500003217
End final coordinates



     Writing output data file diamond.1.003571.70.4.save
 
     init_run     :      0.61s CPU      0.64s WALL (       1 calls)
     electrons    :     48.04s CPU     49.22s WALL (       5 calls)
     update_pot   :      0.45s CPU      0.45s WALL (       4 calls)
     forces       :      0.92s CPU      0.93s WALL (       5 calls)
     stress       :      2.17s CPU      2.18s WALL (       5 calls)

     Called by init_run:
     wfcinit      :      0.50s CPU      0.52s WALL (       1 calls)
     potinit      :      0.05s CPU      0.05s WALL (       1 calls)

     Called by electrons:
     c_bands      :     41.96s CPU     43.01s WALL (      31 calls)
     sum_band     :      5.89s CPU      6.01s WALL (      31 calls)
     v_of_rho     :      0.16s CPU      0.17s WALL (      32 calls)
     mix_rho      :      0.02s CPU      0.02s WALL (      31 calls)

     Called by c_bands:
     init_us_2    :      0.61s CPU      0.65s WALL (    2628 calls)
     cegterg      :     39.15s CPU     40.11s WALL (    1116 calls)

     Called by sum_band:

     Called by *egterg:
     h_psi        :     28.84s CPU     29.41s WALL (    3646 calls)
     g_psi        :      0.21s CPU      0.22s WALL (    2494 calls)
     cdiaghg      :      5.47s CPU      5.48s WALL (    3322 calls)

     Called by h_psi:
     h_psi:pot    :     28.73s CPU     29.26s WALL (    3646 calls)
     h_psi:calbec :      1.62s CPU      1.63s WALL (    3646 calls)
     vloc_psi     :     25.78s CPU     26.29s WALL (    3646 calls)
     add_vuspsi   :      1.32s CPU      1.34s WALL (    3646 calls)

     General routines
     calbec       :      2.14s CPU      2.15s WALL (    4546 calls)
     fft          :      0.11s CPU      0.12s WALL (     484 calls)
     fftw         :     29.20s CPU     28.86s WALL (  223978 calls)
     davcio       :      0.00s CPU      0.01s WALL (      36 calls)
 
     Parallel routines
     fft_scatter  :      7.82s CPU      7.67s WALL (  224462 calls)
 
     PWSCF        :    52.63s CPU        54.00s WALL

 
   This run was terminated on:  16:15: 4  22Apr2018            

=------------------------------------------------------------------------------=
   JOB DONE.
=------------------------------------------------------------------------------=
