
     Program PWSCF v.6.1 (svn rev. 13369) starts on 22Apr2018 at 16:23: 5 

     This program is part of the open-source Quantum ESPRESSO suite
     for quantum simulation of materials; please cite
         "P. Giannozzi et al., J. Phys.:Condens. Matter 21 395502 (2009);
          URL http://www.quantum-espresso.org", 
     in publications or presentations arising from this work. More details at
     http://www.quantum-espresso.org/quote

     Parallel version (MPI), running on     8 processors
     R & G space division:  proc/nbgrp/npool/nimage =       8
     Waiting for input...
     Reading input from standard input
Warning: card       &CELL ignored
Warning: card       CELL_DYNAMICS = 'BFGS' ignored
Warning: card       PRESS = 0.0D0 ignored
Warning: card       PRESS_CONV_THR = 0.01D0 ignored
Warning: card       / ignored

     Current dimensions of program PWSCF are:
     Max number of different atomic species (ntypx) = 10
     Max number of k-points (npk) =  40000
     Max angular momentum in pseudopotentials (lmaxx) =  3

     Subspace diagonalization in iterative solution of the eigenvalue problem:
     a serial algorithm will be used

 
     Parallelization info
     --------------------
     sticks:   dense  smooth     PW     G-vecs:    dense   smooth      PW
     Min         181     181     52                 5155     5155     814
     Max         182     182     53                 5157     5157     817
     Sum        1453    1453    421                41247    41247    6531
 


     bravais-lattice index     =            0
     lattice parameter (alat)  =       8.0448  a.u.
     unit-cell volume          =     520.6402 (a.u.)^3
     number of atoms/cell      =            8
     number of atomic types    =            2
     number of electrons       =        64.00
     number of Kohn-Sham states=           32
     kinetic-energy cutoff     =      70.0000  Ry
     charge density cutoff     =     280.0000  Ry
     convergence threshold     =      1.0E-08
     mixing beta               =       0.7000
     number of iterations used =            8  plain     mixing
     Exchange-correlation      = PBE ( 1  4  3  4 0 0)
     nstep                     =           50


     celldm(1)=   8.044750  celldm(2)=   0.000000  celldm(3)=   0.000000
     celldm(4)=   0.000000  celldm(5)=   0.000000  celldm(6)=   0.000000

     crystal axes: (cart. coord. in units of alat)
               a(1) = (   1.009286   0.000000   0.000000 )  
               a(2) = (   0.000000   0.990714   0.000000 )  
               a(3) = (   0.000000   0.000000   1.000086 )  

     reciprocal axes: (cart. coord. in units 2 pi/alat)
               b(1) = (  0.990799  0.000000  0.000000 )  
               b(2) = (  0.000000  1.009373  0.000000 )  
               b(3) = (  0.000000  0.000000  0.999914 )  


     PseudoPot. # 1 for Mg read from file:
     ../pseudo/Mg.pbe.UPF
     MD5 check sum: 4c04d8c6e0476e83eaecaf72fa8acc4d
     Pseudo is Norm-conserving, Zval = 10.0
     Generated using ONCVPSP code by D. R. Hamann
     Using radial grid of 1510 points,  4 beta functions with: 
                l(1) =   0
                l(2) =   0
                l(3) =   1
                l(4) =   1

     PseudoPot. # 2 for O  read from file:
     ../pseudo/O.pbe.UPF
     MD5 check sum: 3e3f909f7470e8921608ab6b1f57bbae
     Pseudo is Norm-conserving + core correction, Zval =  6.0
     Generated using ONCVPSP code by D. R. Hamann
     Using radial grid of  936 points,  5 beta functions with: 
                l(1) =   0
                l(2) =   0
                l(3) =   1
                l(4) =   1
                l(5) =   2

     atomic species   valence    mass     pseudopotential
        Mg            10.00    24.30500     Mg( 1.00)
        O              6.00    15.99940     O ( 1.00)

     No symmetry found



   Cartesian axes

     site n.     atom                  positions (alat units)
         1           Mg  tau(   1) = (   0.0000000   0.0000000   0.0000000  )
         2           Mg  tau(   2) = (   0.0000000   0.5000000   0.5000000  )
         3           Mg  tau(   3) = (   0.5000000   0.0000000   0.5000000  )
         4           Mg  tau(   4) = (   0.5000000   0.5000000   0.0000000  )
         5           O   tau(   5) = (   0.5000000   0.0000000   0.0000000  )
         6           O   tau(   6) = (   0.0000000   0.5000000   0.0000000  )
         7           O   tau(   7) = (   0.0000000   0.0000000   0.5000000  )
         8           O   tau(   8) = (   0.5000000   0.5000000   0.5000000  )

     number of k points=    36
                       cart. coord. in units 2pi/alat
        k(    1) = (   0.0000000   0.0000000   0.0000000), wk =   0.0312500
        k(    2) = (   0.0000000   0.0000000   0.2499784), wk =   0.0625000
        k(    3) = (   0.0000000   0.0000000  -0.4999569), wk =   0.0312500
        k(    4) = (   0.0000000   0.2523433   0.0000000), wk =   0.0625000
        k(    5) = (   0.0000000   0.2523433   0.2499784), wk =   0.0625000
        k(    6) = (   0.0000000   0.2523433  -0.4999569), wk =   0.0625000
        k(    7) = (   0.0000000  -0.5046865   0.0000000), wk =   0.0312500
        k(    8) = (   0.0000000  -0.5046865   0.2499784), wk =   0.0625000
        k(    9) = (   0.0000000  -0.5046865  -0.4999569), wk =   0.0312500
        k(   10) = (   0.2476999   0.0000000   0.0000000), wk =   0.0625000
        k(   11) = (   0.2476999   0.0000000   0.2499784), wk =   0.0625000
        k(   12) = (   0.2476999   0.0000000  -0.4999569), wk =   0.0625000
        k(   13) = (   0.2476999   0.2523433   0.0000000), wk =   0.0625000
        k(   14) = (   0.2476999   0.2523433   0.2499784), wk =   0.0625000
        k(   15) = (   0.2476999   0.2523433  -0.4999569), wk =   0.0625000
        k(   16) = (   0.2476999  -0.5046865   0.0000000), wk =   0.0625000
        k(   17) = (   0.2476999  -0.5046865   0.2499784), wk =   0.0625000
        k(   18) = (   0.2476999  -0.5046865  -0.4999569), wk =   0.0625000
        k(   19) = (  -0.4953997   0.0000000   0.0000000), wk =   0.0312500
        k(   20) = (  -0.4953997   0.0000000   0.2499784), wk =   0.0625000
        k(   21) = (  -0.4953997   0.0000000  -0.4999569), wk =   0.0312500
        k(   22) = (  -0.4953997   0.2523433   0.0000000), wk =   0.0625000
        k(   23) = (  -0.4953997   0.2523433   0.2499784), wk =   0.0625000
        k(   24) = (  -0.4953997   0.2523433  -0.4999569), wk =   0.0625000
        k(   25) = (  -0.4953997  -0.5046865   0.0000000), wk =   0.0312500
        k(   26) = (  -0.4953997  -0.5046865   0.2499784), wk =   0.0625000
        k(   27) = (  -0.4953997  -0.5046865  -0.4999569), wk =   0.0312500
        k(   28) = (   0.0000000  -0.2523433   0.2499784), wk =   0.0625000
        k(   29) = (  -0.2476999   0.0000000   0.2499784), wk =   0.0625000
        k(   30) = (  -0.2476999   0.2523433   0.0000000), wk =   0.0625000
        k(   31) = (  -0.2476999  -0.2523433   0.2499784), wk =   0.0625000
        k(   32) = (  -0.2476999   0.2523433  -0.2499784), wk =   0.0625000
        k(   33) = (   0.2476999  -0.2523433  -0.2499784), wk =   0.0625000
        k(   34) = (  -0.2476999   0.2523433   0.4999569), wk =   0.0625000
        k(   35) = (  -0.2476999   0.5046865   0.2499784), wk =   0.0625000
        k(   36) = (   0.4953997  -0.2523433   0.2499784), wk =   0.0625000

     Dense  grid:    41247 G-vectors     FFT dimensions: (  45,  45,  45)

     Estimated max dynamical RAM per process >      17.22MB

     Estimated total allocated dynamical RAM >     137.73MB

     Check: negative/imaginary core charge=   -0.000007    0.000000

     Initial potential from superposition of free atoms

     starting charge   63.99678, renormalised to   64.00000
     Starting wfc are   36 randomized atomic wfcs

     total cpu time spent up to now is        0.8 secs

     per-process dynamical memory:    51.3 Mb

     Self-consistent Calculation

     iteration #  1     ecut=    70.00 Ry     beta=0.70
     Davidson diagonalization with overlap
     ethr =  1.00E-02,  avg # of iterations =  2.0

     total cpu time spent up to now is        2.3 secs

     total energy              =    -607.71865233 Ry
     Harris-Foulkes estimate   =    -608.84355178 Ry
     estimated scf accuracy    <       1.56309951 Ry

     iteration #  2     ecut=    70.00 Ry     beta=0.70
     Davidson diagonalization with overlap
     ethr =  2.44E-03,  avg # of iterations =  2.9

     total cpu time spent up to now is        3.9 secs

     total energy              =    -608.10438975 Ry
     Harris-Foulkes estimate   =    -608.80197458 Ry
     estimated scf accuracy    <       1.44786797 Ry

     iteration #  3     ecut=    70.00 Ry     beta=0.70
     Davidson diagonalization with overlap
     ethr =  2.26E-03,  avg # of iterations =  2.0

     total cpu time spent up to now is        5.4 secs

     total energy              =    -608.38994963 Ry
     Harris-Foulkes estimate   =    -608.39062452 Ry
     estimated scf accuracy    <       0.00678285 Ry

     iteration #  4     ecut=    70.00 Ry     beta=0.70
     Davidson diagonalization with overlap
     ethr =  1.06E-05,  avg # of iterations =  2.0

     total cpu time spent up to now is        6.9 secs

     total energy              =    -608.39143420 Ry
     Harris-Foulkes estimate   =    -608.39147927 Ry
     estimated scf accuracy    <       0.00011155 Ry

     iteration #  5     ecut=    70.00 Ry     beta=0.70
     Davidson diagonalization with overlap
     ethr =  1.74E-07,  avg # of iterations =  2.0

     total cpu time spent up to now is        8.2 secs

     total energy              =    -608.39144219 Ry
     Harris-Foulkes estimate   =    -608.39144056 Ry
     estimated scf accuracy    <       0.00001026 Ry

     iteration #  6     ecut=    70.00 Ry     beta=0.70
     Davidson diagonalization with overlap
     ethr =  1.60E-08,  avg # of iterations =  2.0

     total cpu time spent up to now is        9.8 secs

     total energy              =    -608.39144349 Ry
     Harris-Foulkes estimate   =    -608.39144390 Ry
     estimated scf accuracy    <       0.00000085 Ry

     iteration #  7     ecut=    70.00 Ry     beta=0.70
     Davidson diagonalization with overlap
     ethr =  1.33E-09,  avg # of iterations =  2.1

     total cpu time spent up to now is       11.3 secs

     total energy              =    -608.39144358 Ry
     Harris-Foulkes estimate   =    -608.39144365 Ry
     estimated scf accuracy    <       0.00000020 Ry

     iteration #  8     ecut=    70.00 Ry     beta=0.70
     Davidson diagonalization with overlap
     ethr =  3.15E-10,  avg # of iterations =  2.0

     total cpu time spent up to now is       12.7 secs

     total energy              =    -608.39144357 Ry
     Harris-Foulkes estimate   =    -608.39144359 Ry
     estimated scf accuracy    <       0.00000005 Ry

     iteration #  9     ecut=    70.00 Ry     beta=0.70
     Davidson diagonalization with overlap
     ethr =  7.80E-11,  avg # of iterations =  2.0

     total cpu time spent up to now is       14.3 secs

     End of self-consistent calculation

          k = 0.0000 0.0000 0.0000 (  5145 PWs)   bands (ev):

   -64.8323 -64.8230 -64.8226 -64.8220 -31.6337 -31.6280 -31.6233 -31.5972
   -31.5949 -31.5928 -31.5892 -31.5855 -31.5854 -31.5710 -31.5631 -31.5571
    -9.3670  -7.9399  -7.9157  -7.8915   3.7277   3.7563   3.7895   6.3130
     6.3243   6.3702   6.3868   6.4381   6.4448   7.6483   7.6722   7.6899

          k = 0.0000 0.0000 0.2500 (  5157 PWs)   bands (ev):

   -64.8309 -64.8240 -64.8229 -64.8221 -31.6278 -31.6188 -31.6169 -31.6026
   -31.5937 -31.5913 -31.5899 -31.5899 -31.5823 -31.5760 -31.5751 -31.5640
    -9.1586  -8.1307  -7.9046  -7.8701   4.0198   4.0773   4.0930   5.8423
     5.8715   6.1232   6.2131   6.4911   6.5974   6.6587   7.4204   7.4770

          k = 0.0000 0.0000-0.5000 (  5134 PWs)   bands (ev):

   -64.8277 -64.8272 -64.8228 -64.8222 -31.6149 -31.6146 -31.6024 -31.6022
   -31.5989 -31.5987 -31.5896 -31.5896 -31.5842 -31.5840 -31.5736 -31.5733
    -8.6485  -8.6480  -7.8587  -7.8586   4.8226   4.8233   4.8700   4.8708
     5.1226   5.1230   5.9707   5.9710   6.9254   6.9259   7.0099   7.0104

          k = 0.0000 0.2523 0.0000 (  5161 PWs)   bands (ev):

   -64.8308 -64.8238 -64.8229 -64.8223 -31.6275 -31.6218 -31.6145 -31.6007
   -31.5943 -31.5943 -31.5890 -31.5866 -31.5858 -31.5754 -31.5701 -31.5696
    -9.1534  -8.1071  -7.9051  -7.8878   4.0260   4.0521   4.1098   5.8952
     5.9079   6.1110   6.1553   6.4826   6.5362   6.6382   7.4377   7.4643

          k = 0.0000 0.2523 0.2500 (  5143 PWs)   bands (ev):

   -64.8296 -64.8239 -64.8236 -64.8227 -31.6226 -31.6188 -31.6147 -31.6026
   -31.5987 -31.5973 -31.5881 -31.5837 -31.5808 -31.5798 -31.5788 -31.5628
    -8.9638  -8.0654  -8.0479  -7.9038   4.1532   4.1627   4.3074   5.0705
     5.8191   6.0439   6.0901   6.4412   6.4574   6.6143   7.1929   7.5006

          k = 0.0000 0.2523-0.5000 (  5142 PWs)   bands (ev):

   -64.8270 -64.8265 -64.8235 -64.8229 -31.6128 -31.6126 -31.6110 -31.6107
   -31.6066 -31.6065 -31.5885 -31.5882 -31.5790 -31.5789 -31.5684 -31.5682
    -8.5091  -8.5087  -7.9454  -7.9453   4.4042   4.4045   4.7272   4.7276
     5.0799   5.0806   6.5626   6.5629   6.6086   6.6091   7.0773   7.0775

          k = 0.0000-0.5047 0.0000 (  5142 PWs)   bands (ev):

   -64.8277 -64.8269 -64.8229 -64.8224 -31.6151 -31.6127 -31.6086 -31.6058
   -31.5956 -31.5923 -31.5870 -31.5861 -31.5842 -31.5836 -31.5800 -31.5782
    -8.6569  -8.6062  -7.8653  -7.8643   4.8086   4.8302   4.8885   4.9104
     5.0968   5.1307   5.9243   5.9246   6.9042   6.9466   6.9545   6.9953

          k = 0.0000-0.5047 0.2500 (  5144 PWs)   bands (ev):

   -64.8270 -64.8263 -64.8236 -64.8230 -31.6149 -31.6135 -31.6114 -31.6091
   -31.6055 -31.6041 -31.5908 -31.5888 -31.5769 -31.5762 -31.5708 -31.5706
    -8.5201  -8.4754  -7.9552  -7.9472   4.3877   4.4181   4.7021   4.7392
     5.0608   5.1382   6.5195   6.5515   6.5565   6.6102   7.0787   7.0950

          k = 0.0000-0.5047-0.5000 (  5152 PWs)   bands (ev):

   -64.8254 -64.8252 -64.8251 -64.8242 -31.6163 -31.6161 -31.6153 -31.6152
   -31.6011 -31.6008 -31.5990 -31.5987 -31.5695 -31.5693 -31.5685 -31.5683
    -8.2149  -8.2146  -8.1871  -8.1868   4.2498   4.2500   4.2643   4.2644
     5.7359   5.7365   5.8054   5.8060   7.0646   7.0649   7.0869   7.0871

          k = 0.2477 0.0000 0.0000 (  5158 PWs)   bands (ev):

   -64.8309 -64.8243 -64.8226 -64.8221 -31.6252 -31.6223 -31.6173 -31.5978
   -31.5977 -31.5962 -31.5914 -31.5858 -31.5827 -31.5807 -31.5688 -31.5627
    -9.1640  -8.1533  -7.8865  -7.8692   4.0396   4.0707   4.0780   5.8062
     5.8228   6.1824   6.2282   6.5474   6.6000   6.6753   7.4335   7.4632

          k = 0.2477 0.0000 0.2500 (  5151 PWs)   bands (ev):

   -64.8297 -64.8241 -64.8237 -64.8224 -31.6244 -31.6192 -31.6116 -31.6083
   -31.5932 -31.5902 -31.5885 -31.5874 -31.5852 -31.5841 -31.5697 -31.5670
    -8.9732  -8.0832  -8.0664  -7.8805   4.1581   4.1649   4.3494   5.0694
     5.8732   6.0216   6.0635   6.5121   6.5214   6.5577   7.1522   7.5072

          k = 0.2477 0.0000-0.5000 (  5164 PWs)   bands (ev):

   -64.8270 -64.8265 -64.8235 -64.8229 -31.6196 -31.6194 -31.6096 -31.6094
   -31.5982 -31.5979 -31.5842 -31.5841 -31.5784 -31.5782 -31.5777 -31.5774
    -8.5151  -8.5146  -7.9522  -7.9521   4.4299   4.4302   4.7712   4.7715
     5.1127   5.1134   6.5180   6.5184   6.5537   6.5542   7.1096   7.1097

          k = 0.2477 0.2523 0.0000 (  5150 PWs)   bands (ev):

   -64.8297 -64.8241 -64.8235 -64.8226 -31.6242 -31.6173 -31.6150 -31.6063
   -31.5934 -31.5920 -31.5905 -31.5889 -31.5840 -31.5800 -31.5731 -31.5647
    -8.9686  -8.0826  -8.0483  -7.8919   4.1528   4.1690   4.3256   5.0708
     5.8450   6.0103   6.0984   6.4665   6.4969   6.5881   7.1737   7.5032

          k = 0.2477 0.2523 0.2500 (  5149 PWs)   bands (ev):

   -64.8287 -64.8241 -64.8239 -64.8232 -31.6261 -31.6232 -31.6213 -31.6045
   -31.5932 -31.5919 -31.5909 -31.5852 -31.5800 -31.5775 -31.5735 -31.5645
    -8.7987  -8.0446  -8.0326  -8.0201   3.9962   3.9988   4.0034   5.0877
     5.8304   5.8440   5.8588   6.6775   6.7062   6.7308   7.3508   7.3571

          k = 0.2477 0.2523-0.5000 (  5140 PWs)   bands (ev):

   -64.8265 -64.8260 -64.8240 -64.8234 -31.6266 -31.6265 -31.6199 -31.6195
   -31.5921 -31.5918 -31.5804 -31.5801 -31.5774 -31.5773 -31.5707 -31.5705
    -8.4015  -8.4012  -7.9988  -7.9988   3.8206   3.8210   4.1967   4.1972
     5.8281   5.8285   6.7379   6.7383   6.8673   6.8686   7.0161   7.0165

          k = 0.2477-0.5047 0.0000 (  5140 PWs)   bands (ev):

   -64.8270 -64.8263 -64.8236 -64.8230 -31.6182 -31.6167 -31.6076 -31.6066
   -31.6050 -31.6025 -31.5848 -31.5828 -31.5789 -31.5781 -31.5750 -31.5744
    -8.5232  -8.4783  -7.9590  -7.9495   4.4022   4.4329   4.7250   4.7619
     5.0736   5.1513   6.5045   6.5216   6.5338   6.5793   7.0951   7.1103

          k = 0.2477-0.5047 0.2500 (  5140 PWs)   bands (ev):

   -64.8264 -64.8259 -64.8240 -64.8235 -31.6274 -31.6270 -31.6191 -31.6188
   -31.5941 -31.5939 -31.5807 -31.5796 -31.5749 -31.5748 -31.5719 -31.5712
    -8.4113  -8.3732  -8.0022  -8.0015   3.8180   3.8185   4.1637   4.2015
     5.8288   5.8305   6.7308   6.7317   6.8721   6.8892   6.9820   7.0177

          k = 0.2477-0.5047-0.5000 (  5136 PWs)   bands (ev):

   -64.8253 -64.8251 -64.8251 -64.8242 -31.6298 -31.6295 -31.6295 -31.6293
   -31.5858 -31.5856 -31.5850 -31.5847 -31.5693 -31.5691 -31.5687 -31.5685
    -8.1764  -8.1762  -8.1565  -8.1563   3.6184   3.6186   3.6373   3.6375
     6.4914   6.4918   6.5325   6.5328   7.0685   7.0687   7.0841   7.0843

          k =-0.4954 0.0000 0.0000 (  5158 PWs)   bands (ev):

   -64.8280 -64.8272 -64.8226 -64.8221 -31.6104 -31.6081 -31.6073 -31.6047
   -31.6036 -31.6012 -31.5974 -31.5972 -31.5782 -31.5769 -31.5736 -31.5721
    -8.6889  -8.6391  -7.8523  -7.8513   4.7820   4.8081   4.8592   4.8850
     5.1160   5.1431   6.0174   6.0177   6.9391   6.9829   6.9866   7.0289

          k =-0.4954 0.0000 0.2500 (  5160 PWs)   bands (ev):

   -64.8272 -64.8265 -64.8234 -64.8228 -31.6177 -31.6164 -31.6125 -31.6108
   -31.6002 -31.5979 -31.5874 -31.5864 -31.5779 -31.5762 -31.5752 -31.5747
    -8.5472  -8.5031  -7.9511  -7.9416   4.4139   4.4458   4.7621   4.7938
     5.0582   5.1327   6.5276   6.5553   6.5616   6.6031   7.0927   7.1049

          k =-0.4954 0.0000-0.5000 (  5196 PWs)   bands (ev):

   -64.8254 -64.8252 -64.8251 -64.8242 -31.6200 -31.6198 -31.6190 -31.6189
   -31.5894 -31.5891 -31.5875 -31.5872 -31.5785 -31.5783 -31.5777 -31.5776
    -8.2280  -8.2277  -8.1997  -8.1995   4.3210   4.3211   4.3329   4.3331
     5.7309   5.7316   5.7979   5.7985   7.0354   7.0357   7.0594   7.0597

          k =-0.4954 0.2523 0.0000 (  5152 PWs)   bands (ev):

   -64.8272 -64.8265 -64.8234 -64.8228 -31.6157 -31.6145 -31.6117 -31.6099
   -31.6066 -31.6045 -31.5843 -31.5833 -31.5825 -31.5810 -31.5696 -31.5691
    -8.5442  -8.5003  -7.9465  -7.9387   4.4027   4.4341   4.7407   4.7731
     5.0382   5.1129   6.5600   6.5733   6.5865   6.6271   7.0758   7.0889

          k =-0.4954 0.2523 0.2500 (  5144 PWs)   bands (ev):

   -64.8266 -64.8260 -64.8239 -64.8233 -31.6263 -31.6261 -31.6208 -31.6201
   -31.5891 -31.5886 -31.5825 -31.5820 -31.5782 -31.5781 -31.5714 -31.5703
    -8.4285  -8.3910  -7.9960  -7.9953   3.8223   3.8227   4.1943   4.2292
     5.8267   5.8283   6.7453   6.7460   6.8475   6.8604   7.0137   7.0474

          k =-0.4954 0.2523-0.5000 (  5148 PWs)   bands (ev):

   -64.8253 -64.8251 -64.8251 -64.8242 -31.6309 -31.6306 -31.6305 -31.6304
   -31.5790 -31.5789 -31.5788 -31.5787 -31.5749 -31.5747 -31.5745 -31.5743
    -8.1832  -8.1829  -8.1629  -8.1627   3.6422   3.6424   3.6604   3.6606
     6.5154   6.5157   6.5534   6.5537   7.0402   7.0404   7.0573   7.0576

          k =-0.4954-0.5047 0.0000 (  5192 PWs)   bands (ev):

   -64.8255 -64.8252 -64.8250 -64.8242 -31.6189 -31.6178 -31.6175 -31.6170
   -31.5972 -31.5952 -31.5950 -31.5931 -31.5741 -31.5735 -31.5729 -31.5724
    -8.2354  -8.2070  -8.2058  -8.1794   4.2795   4.2914   4.2936   4.3060
     5.6973   5.7645   5.7678   5.8340   7.0377   7.0615   7.0620   7.0839

          k =-0.4954-0.5047 0.2500 (  5136 PWs)   bands (ev):

   -64.8254 -64.8252 -64.8250 -64.8242 -31.6305 -31.6302 -31.6301 -31.6300
   -31.5834 -31.5827 -31.5823 -31.5818 -31.5713 -31.5711 -31.5706 -31.5704
    -8.1900  -8.1694  -8.1685  -8.1499   3.6212   3.6387   3.6404   3.6584
     6.4829   6.5221   6.5240   6.5619   7.0458   7.0630   7.0631   7.0784

          k =-0.4954-0.5047-0.5000 (  5128 PWs)   bands (ev):

   -64.8252 -64.8252 -64.8251 -64.8242 -31.6382 -31.6380 -31.6379 -31.6378
   -31.5776 -31.5774 -31.5774 -31.5773 -31.5680 -31.5678 -31.5677 -31.5676
    -8.1320  -8.1319  -8.1309  -8.1308   3.2168   3.2169   3.2172   3.2173
     7.0471   7.0472   7.0482   7.0483   7.0787   7.0788   7.0797   7.0798

          k = 0.0000-0.2523 0.2500 (  5143 PWs)   bands (ev):

   -64.8296 -64.8239 -64.8236 -64.8227 -31.6226 -31.6188 -31.6147 -31.6026
   -31.5987 -31.5973 -31.5881 -31.5837 -31.5808 -31.5798 -31.5788 -31.5628
    -8.9638  -8.0654  -8.0479  -7.9038   4.1532   4.1627   4.3074   5.0705
     5.8191   6.0439   6.0901   6.4412   6.4574   6.6143   7.1929   7.5006

          k =-0.2477 0.0000 0.2500 (  5151 PWs)   bands (ev):

   -64.8297 -64.8241 -64.8237 -64.8224 -31.6244 -31.6192 -31.6116 -31.6083
   -31.5932 -31.5902 -31.5885 -31.5874 -31.5852 -31.5841 -31.5697 -31.5670
    -8.9732  -8.0832  -8.0664  -7.8805   4.1581   4.1649   4.3494   5.0694
     5.8732   6.0216   6.0635   6.5121   6.5214   6.5577   7.1522   7.5072

          k =-0.2477 0.2523 0.0000 (  5150 PWs)   bands (ev):

   -64.8297 -64.8241 -64.8235 -64.8226 -31.6242 -31.6173 -31.6150 -31.6063
   -31.5934 -31.5920 -31.5905 -31.5889 -31.5840 -31.5800 -31.5731 -31.5647
    -8.9686  -8.0826  -8.0483  -7.8919   4.1528   4.1690   4.3256   5.0708
     5.8450   6.0103   6.0984   6.4665   6.4969   6.5881   7.1737   7.5032

          k =-0.2477-0.2523 0.2500 (  5149 PWs)   bands (ev):

   -64.8287 -64.8241 -64.8239 -64.8232 -31.6261 -31.6232 -31.6213 -31.6045
   -31.5932 -31.5919 -31.5909 -31.5852 -31.5800 -31.5775 -31.5735 -31.5645
    -8.7987  -8.0446  -8.0326  -8.0201   3.9962   3.9988   4.0034   5.0877
     5.8304   5.8440   5.8588   6.6775   6.7062   6.7308   7.3508   7.3571

          k =-0.2477 0.2523-0.2500 (  5149 PWs)   bands (ev):

   -64.8287 -64.8241 -64.8239 -64.8232 -31.6262 -31.6232 -31.6214 -31.6045
   -31.5932 -31.5919 -31.5908 -31.5852 -31.5800 -31.5775 -31.5736 -31.5645
    -8.7987  -8.0446  -8.0326  -8.0201   3.9962   3.9988   4.0034   5.0877
     5.8304   5.8440   5.8588   6.6775   6.7062   6.7308   7.3508   7.3571

          k = 0.2477-0.2523-0.2500 (  5149 PWs)   bands (ev):

   -64.8287 -64.8241 -64.8239 -64.8232 -31.6262 -31.6232 -31.6214 -31.6045
   -31.5932 -31.5919 -31.5908 -31.5852 -31.5800 -31.5775 -31.5736 -31.5645
    -8.7987  -8.0446  -8.0326  -8.0201   3.9962   3.9988   4.0034   5.0877
     5.8304   5.8440   5.8588   6.6775   6.7062   6.7308   7.3508   7.3571

          k =-0.2477 0.2523 0.5000 (  5140 PWs)   bands (ev):

   -64.8265 -64.8260 -64.8240 -64.8234 -31.6268 -31.6264 -31.6197 -31.6197
   -31.5920 -31.5918 -31.5803 -31.5802 -31.5774 -31.5772 -31.5707 -31.5705
    -8.4015  -8.4012  -7.9989  -7.9987   3.8205   3.8211   4.1968   4.1971
     5.8281   5.8285   6.7381   6.7382   6.8674   6.8684   7.0161   7.0165

          k =-0.2477 0.5047 0.2500 (  5140 PWs)   bands (ev):

   -64.8264 -64.8259 -64.8240 -64.8235 -31.6274 -31.6270 -31.6191 -31.6188
   -31.5941 -31.5939 -31.5807 -31.5796 -31.5749 -31.5748 -31.5719 -31.5712
    -8.4113  -8.3732  -8.0022  -8.0015   3.8180   3.8185   4.1637   4.2015
     5.8288   5.8305   6.7308   6.7317   6.8721   6.8892   6.9820   7.0177

          k = 0.4954-0.2523 0.2500 (  5144 PWs)   bands (ev):

   -64.8266 -64.8260 -64.8239 -64.8233 -31.6263 -31.6261 -31.6208 -31.6201
   -31.5891 -31.5886 -31.5825 -31.5820 -31.5782 -31.5781 -31.5714 -31.5703
    -8.4285  -8.3910  -7.9960  -7.9953   3.8223   3.8227   4.1943   4.2292
     5.8267   5.8283   6.7453   6.7460   6.8475   6.8604   7.0137   7.0474

     highest occupied level (ev):     7.6899

!    total energy              =    -608.39144357 Ry
     Harris-Foulkes estimate   =    -608.39144358 Ry
     estimated scf accuracy    <          3.6E-09 Ry

     The total energy is the sum of the following terms:

     one-electron contribution =    -303.76230020 Ry
     hartree contribution      =     168.17272339 Ry
     xc contribution           =     -97.84938248 Ry
     ewald contribution        =    -374.95248429 Ry

     convergence has been achieved in   9 iterations

     Forces acting on atoms (cartesian axes, Ry/au):

     atom    1 type  1   force =    -0.00453994    0.00569458   -0.00004624
     atom    2 type  1   force =    -0.00454356   -0.00565107    0.00004460
     atom    3 type  1   force =     0.00449336    0.00569762    0.00004496
     atom    4 type  1   force =     0.00436507   -0.00553513   -0.00004610
     atom    5 type  2   force =     0.00537508    0.00636926   -0.00005337
     atom    6 type  2   force =    -0.00527200   -0.00646381   -0.00005315
     atom    7 type  2   force =    -0.00527090    0.00636907    0.00005467
     atom    8 type  2   force =     0.00539289   -0.00648053    0.00005465

     Total force =     0.022055     Total SCF correction =     0.000073


     Computing stress (Cartesian axis) and pressure

          total   stress  (Ry/bohr**3)                   (kbar)     P=  -66.73
  -0.00055621   0.00000002  -0.00000000        -81.82      0.00     -0.00
   0.00000002  -0.00033929   0.00000000          0.00    -49.91      0.00
  -0.00000000   0.00000000  -0.00046543         -0.00      0.00    -68.47


     BFGS Geometry Optimization

     number of scf cycles    =   1
     number of bfgs steps    =   0

     energy   new            =    -608.3914435732 Ry

     new trust radius        =       0.0084311052 bohr
     new conv_thr            =       0.0000000100 Ry


ATOMIC_POSITIONS (alat)
Mg      -0.000564336   0.000707863  -0.000005748
Mg      -0.000564786   0.499297545   0.500005544
Mg       0.500558545   0.000708241   0.500005588
Mg       0.500542598   0.499311958  -0.000005731
O        0.500668148   0.000791729  -0.000006635
O       -0.000655334   0.499196519  -0.000006607
O       -0.000655197   0.000791705   0.500006796
O        0.500670362   0.499194440   0.500006793



     Writing output data file diamond.1.009286.70.4.save
     NEW-OLD atomic charge density approx. for the potential

     Check: negative/imaginary core charge=   -0.000007    0.000000

     total cpu time spent up to now is       15.2 secs

     per-process dynamical memory:    56.0 Mb

     Self-consistent Calculation

     iteration #  1     ecut=    70.00 Ry     beta=0.70
     Davidson diagonalization with overlap
     ethr =  1.00E-06,  avg # of iterations =  3.0

     total cpu time spent up to now is       17.6 secs

     total energy              =    -608.39182235 Ry
     Harris-Foulkes estimate   =    -608.39188935 Ry
     estimated scf accuracy    <       0.00009136 Ry

     iteration #  2     ecut=    70.00 Ry     beta=0.70
     Davidson diagonalization with overlap
     ethr =  1.43E-07,  avg # of iterations =  2.2

     total cpu time spent up to now is       19.1 secs

     total energy              =    -608.39185075 Ry
     Harris-Foulkes estimate   =    -608.39186051 Ry
     estimated scf accuracy    <       0.00001625 Ry

     iteration #  3     ecut=    70.00 Ry     beta=0.70
     Davidson diagonalization with overlap
     ethr =  2.54E-08,  avg # of iterations =  2.0

     total cpu time spent up to now is       20.5 secs

     total energy              =    -608.39185423 Ry
     Harris-Foulkes estimate   =    -608.39185419 Ry
     estimated scf accuracy    <       0.00000011 Ry

     iteration #  4     ecut=    70.00 Ry     beta=0.70
     Davidson diagonalization with overlap
     ethr =  1.74E-10,  avg # of iterations =  2.9

     total cpu time spent up to now is       22.3 secs

     total energy              =    -608.39185426 Ry
     Harris-Foulkes estimate   =    -608.39185427 Ry
     estimated scf accuracy    <       0.00000002 Ry

     iteration #  5     ecut=    70.00 Ry     beta=0.70
     Davidson diagonalization with overlap
     ethr =  3.59E-11,  avg # of iterations =  2.0

     total cpu time spent up to now is       23.8 secs

     End of self-consistent calculation

          k = 0.0000 0.0000 0.0000 (  5145 PWs)   bands (ev):

   -64.8331 -64.8238 -64.8234 -64.8228 -31.6344 -31.6286 -31.6239 -31.5979
   -31.5956 -31.5935 -31.5899 -31.5862 -31.5860 -31.5717 -31.5639 -31.5578
    -9.3662  -7.9395  -7.9151  -7.8911   3.7280   3.7572   3.7896   6.3134
     6.3243   6.3708   6.3873   6.4382   6.4452   7.6490   7.6723   7.6905

          k = 0.0000 0.0000 0.2500 (  5157 PWs)   bands (ev):

   -64.8317 -64.8248 -64.8237 -64.8229 -31.6285 -31.6194 -31.6175 -31.6033
   -31.5943 -31.5921 -31.5906 -31.5905 -31.5831 -31.5767 -31.5759 -31.5647
    -9.1578  -8.1300  -7.9041  -7.8696   4.0201   4.0774   4.0939   5.8427
     5.8718   6.1243   6.2144   6.4904   6.5971   6.6589   7.4206   7.4772

          k = 0.0000 0.0000-0.5000 (  5134 PWs)   bands (ev):

   -64.8285 -64.8280 -64.8236 -64.8230 -31.6155 -31.6152 -31.6027 -31.6025
   -31.5999 -31.5998 -31.5901 -31.5901 -31.5850 -31.5848 -31.5744 -31.5741
    -8.6476  -8.6473  -7.8582  -7.8581   4.8233   4.8238   4.8706   4.8711
     5.1227   5.1230   5.9719   5.9723   6.9252   6.9255   7.0098   7.0101

          k = 0.0000 0.2523 0.0000 (  5161 PWs)   bands (ev):

   -64.8316 -64.8246 -64.8237 -64.8232 -31.6282 -31.6225 -31.6151 -31.6015
   -31.5950 -31.5950 -31.5897 -31.5872 -31.5864 -31.5761 -31.5708 -31.5704
    -9.1524  -8.1067  -7.9046  -7.8872   4.0264   4.0531   4.1100   5.8950
     5.9081   6.1115   6.1558   6.4832   6.5365   6.6386   7.4377   7.4645

          k = 0.0000 0.2523 0.2500 (  5143 PWs)   bands (ev):

   -64.8304 -64.8247 -64.8244 -64.8235 -31.6232 -31.6194 -31.6153 -31.6033
   -31.5994 -31.5981 -31.5886 -31.5846 -31.5814 -31.5806 -31.5795 -31.5635
    -8.9629  -8.0647  -8.0475  -7.9033   4.1541   4.1630   4.3079   5.0710
     5.8195   6.0447   6.0901   6.4417   6.4573   6.6141   7.1930   7.5010

          k = 0.0000 0.2523-0.5000 (  5142 PWs)   bands (ev):

   -64.8278 -64.8273 -64.8243 -64.8237 -31.6133 -31.6131 -31.6114 -31.6111
   -31.6075 -31.6074 -31.5892 -31.5890 -31.5797 -31.5796 -31.5691 -31.5689
    -8.5083  -8.5080  -7.9450  -7.9449   4.4046   4.4049   4.7280   4.7283
     5.0802   5.0807   6.5652   6.5655   6.6067   6.6070   7.0774   7.0775

          k = 0.0000-0.5047 0.0000 (  5142 PWs)   bands (ev):

   -64.8284 -64.8278 -64.8237 -64.8232 -31.6154 -31.6137 -31.6089 -31.6069
   -31.5958 -31.5935 -31.5872 -31.5866 -31.5851 -31.5847 -31.5805 -31.5792
    -8.6478  -8.6140  -7.8646  -7.8639   4.8222   4.8441   4.8756   4.8977
     5.1025   5.1250   5.9249   5.9252   6.9130   6.9463   6.9548   6.9872

          k = 0.0000-0.5047 0.2500 (  5144 PWs)   bands (ev):

   -64.8277 -64.8271 -64.8244 -64.8239 -31.6153 -31.6143 -31.6115 -31.6099
   -31.6061 -31.6052 -31.5912 -31.5898 -31.5775 -31.5770 -31.5715 -31.5714
    -8.5120  -8.4823  -7.9533  -7.9480   4.3932   4.4137   4.7090   4.7335
     5.0734   5.1251   6.5279   6.5484   6.5630   6.5996   7.0818   7.0927

          k = 0.0000-0.5047-0.5000 (  5152 PWs)   bands (ev):

   -64.8261 -64.8259 -64.8259 -64.8250 -31.6167 -31.6165 -31.6160 -31.6159
   -31.6015 -31.6012 -31.6000 -31.5997 -31.5700 -31.5698 -31.5693 -31.5692
    -8.2096  -8.2094  -8.1911  -8.1909   4.2528   4.2530   4.2621   4.2623
     5.7476   5.7480   5.7939   5.7944   7.0689   7.0691   7.0836   7.0838

          k = 0.2477 0.0000 0.0000 (  5158 PWs)   bands (ev):

   -64.8317 -64.8251 -64.8234 -64.8229 -31.6258 -31.6230 -31.6179 -31.5985
   -31.5984 -31.5969 -31.5921 -31.5865 -31.5834 -31.5813 -31.5695 -31.5634
    -9.1631  -8.1529  -7.8859  -7.8687   4.0406   4.0710   4.0783   5.8065
     5.8226   6.1832   6.2290   6.5474   6.6004   6.6757   7.4337   7.4632

          k = 0.2477 0.0000 0.2500 (  5151 PWs)   bands (ev):

   -64.8305 -64.8249 -64.8245 -64.8232 -31.6250 -31.6198 -31.6121 -31.6090
   -31.5939 -31.5908 -31.5893 -31.5880 -31.5859 -31.5849 -31.5704 -31.5677
    -8.9723  -8.0828  -8.0658  -7.8801   4.1584   4.1657   4.3497   5.0700
     5.8736   6.0215   6.0642   6.5121   6.5239   6.5556   7.1522   7.5076

          k = 0.2477 0.0000-0.5000 (  5164 PWs)   bands (ev):

   -64.8278 -64.8273 -64.8243 -64.8237 -31.6202 -31.6200 -31.6101 -31.6100
   -31.5989 -31.5986 -31.5849 -31.5848 -31.5792 -31.5790 -31.5785 -31.5782
    -8.5142  -8.5139  -7.9518  -7.9517   4.4305   4.4307   4.7720   4.7723
     5.1127   5.1132   6.5221   6.5224   6.5502   6.5505   7.1097   7.1097

          k = 0.2477 0.2523 0.0000 (  5150 PWs)   bands (ev):

   -64.8305 -64.8249 -64.8243 -64.8234 -31.6248 -31.6180 -31.6156 -31.6070
   -31.5941 -31.5925 -31.5912 -31.5897 -31.5847 -31.5807 -31.5738 -31.5654
    -8.9676  -8.0821  -8.0479  -7.8914   4.1532   4.1692   4.3268   5.0707
     5.8457   6.0108   6.0987   6.4676   6.4979   6.5864   7.1735   7.5038

          k = 0.2477 0.2523 0.2500 (  5149 PWs)   bands (ev):

   -64.8295 -64.8249 -64.8247 -64.8240 -31.6267 -31.6238 -31.6219 -31.6051
   -31.5939 -31.5926 -31.5917 -31.5859 -31.5807 -31.5782 -31.5743 -31.5652
    -8.7977  -8.0441  -8.0320  -8.0197   3.9965   3.9993   4.0037   5.0882
     5.8307   5.8444   5.8590   6.6780   6.7061   6.7312   7.3512   7.3574

          k = 0.2477 0.2523-0.5000 (  5140 PWs)   bands (ev):

   -64.8273 -64.8268 -64.8248 -64.8242 -31.6272 -31.6271 -31.6204 -31.6202
   -31.5927 -31.5925 -31.5811 -31.5808 -31.5781 -31.5780 -31.5714 -31.5712
    -8.4007  -8.4004  -7.9984  -7.9984   3.8211   3.8213   4.1970   4.1974
     5.8285   5.8287   6.7391   6.7395   6.8676   6.8683   7.0159   7.0162

          k = 0.2477-0.5047 0.0000 (  5140 PWs)   bands (ev):

   -64.8277 -64.8271 -64.8244 -64.8239 -31.6186 -31.6175 -31.6081 -31.6073
   -31.6053 -31.6035 -31.5852 -31.5838 -31.5794 -31.5789 -31.5757 -31.5752
    -8.5150  -8.4851  -7.9569  -7.9506   4.4074   4.4281   4.7316   4.7558
     5.0873   5.1391   6.5098   6.5293   6.5314   6.5698   7.0978   7.1080

          k = 0.2477-0.5047 0.2500 (  5140 PWs)   bands (ev):

   -64.8272 -64.8267 -64.8248 -64.8243 -31.6279 -31.6277 -31.6196 -31.6194
   -31.5948 -31.5946 -31.5812 -31.5805 -31.5756 -31.5755 -31.5725 -31.5721
    -8.4043  -8.3789  -8.0016  -8.0011   3.8185   3.8188   4.1704   4.1953
     5.8296   5.8308   6.7313   6.7319   6.8751   6.8867   6.9882   7.0119

          k = 0.2477-0.5047-0.5000 (  5136 PWs)   bands (ev):

   -64.8261 -64.8259 -64.8259 -64.8250 -31.6303 -31.6301 -31.6300 -31.6300
   -31.5864 -31.5862 -31.5858 -31.5856 -31.5699 -31.5697 -31.5695 -31.5693
    -8.1724  -8.1723  -8.1592  -8.1590   3.6219   3.6221   3.6343   3.6345
     6.4986   6.4989   6.5259   6.5262   7.0717   7.0718   7.0819   7.0821

          k =-0.4954 0.0000 0.0000 (  5158 PWs)   bands (ev):

   -64.8287 -64.8281 -64.8234 -64.8229 -31.6108 -31.6090 -31.6074 -31.6054
   -31.6042 -31.6024 -31.5980 -31.5979 -31.5788 -31.5778 -31.5741 -31.5729
    -8.6814  -8.6453  -7.8516  -7.8509   4.7932   4.8187   4.8493   4.8747
     5.1199   5.1394   6.0182   6.0185   6.9457   6.9800   6.9895   7.0227

          k =-0.4954 0.0000 0.2500 (  5160 PWs)   bands (ev):

   -64.8279 -64.8274 -64.8242 -64.8237 -31.6182 -31.6172 -31.6128 -31.6115
   -31.6007 -31.5989 -31.5879 -31.5872 -31.5784 -31.5771 -31.5758 -31.5755
    -8.5405  -8.5085  -7.9492  -7.9424   4.4188   4.4422   4.7673   4.7900
     5.0679   5.1222   6.5377   6.5571   6.5606   6.5934   7.0947   7.1036

          k =-0.4954 0.0000-0.5000 (  5196 PWs)   bands (ev):

   -64.8262 -64.8260 -64.8259 -64.8250 -31.6205 -31.6203 -31.6197 -31.6196
   -31.5899 -31.5896 -31.5884 -31.5881 -31.5791 -31.5789 -31.5785 -31.5784
    -8.2234  -8.2232  -8.2030  -8.2028   4.3233   4.3234   4.3316   4.3317
     5.7401   5.7406   5.7887   5.7892   7.0393   7.0395   7.0566   7.0568

          k =-0.4954 0.2523 0.0000 (  5152 PWs)   bands (ev):

   -64.8279 -64.8274 -64.8242 -64.8237 -31.6161 -31.6152 -31.6121 -31.6108
   -31.6070 -31.6054 -31.5849 -31.5841 -31.5831 -31.5819 -31.5703 -31.5699
    -8.5374  -8.5056  -7.9450  -7.9393   4.4070   4.4301   4.7456   4.7687
     5.0492   5.1035   6.5642   6.5807   6.5834   6.6198   7.0776   7.0872

          k =-0.4954 0.2523 0.2500 (  5144 PWs)   bands (ev):

   -64.8274 -64.8269 -64.8247 -64.8242 -31.6269 -31.6267 -31.6213 -31.6208
   -31.5898 -31.5894 -31.5832 -31.5827 -31.5790 -31.5788 -31.5719 -31.5711
    -8.4226  -8.3954  -7.9954  -7.9949   3.8227   3.8230   4.1995   4.2244
     5.8274   5.8286   6.7460   6.7465   6.8493   6.8588   7.0185   7.0429

          k =-0.4954 0.2523-0.5000 (  5148 PWs)   bands (ev):

   -64.8261 -64.8259 -64.8259 -64.8250 -31.6315 -31.6312 -31.6312 -31.6310
   -31.5797 -31.5796 -31.5794 -31.5793 -31.5756 -31.5754 -31.5752 -31.5751
    -8.1797  -8.1795  -8.1650  -8.1649   3.6450   3.6452   3.6580   3.6582
     6.5209   6.5211   6.5485   6.5487   7.0431   7.0433   7.0554   7.0556

          k =-0.4954-0.5047 0.0000 (  5192 PWs)   bands (ev):

   -64.8262 -64.8260 -64.8258 -64.8250 -31.6191 -31.6185 -31.6182 -31.6178
   -31.5973 -31.5958 -31.5958 -31.5943 -31.5746 -31.5741 -31.5737 -31.5734
    -8.2260  -8.2064  -8.2057  -8.1871   4.2840   4.2924   4.2932   4.3018
     5.7186   5.7655   5.7674   5.8137   7.0455   7.0613   7.0623   7.0773

          k =-0.4954-0.5047 0.2500 (  5136 PWs)   bands (ev):

   -64.8261 -64.8260 -64.8259 -64.8250 -31.6310 -31.6308 -31.6307 -31.6306
   -31.5839 -31.5834 -31.5831 -31.5827 -31.5719 -31.5717 -31.5713 -31.5712
    -8.1830  -8.1689  -8.1683  -8.1552   3.6272   3.6398   3.6398   3.6526
     6.4956   6.5228   6.5239   6.5505   7.0515   7.0627   7.0637   7.0740

          k =-0.4954-0.5047-0.5000 (  5128 PWs)   bands (ev):

   -64.8260 -64.8260 -64.8259 -64.8250 -31.6388 -31.6386 -31.6385 -31.6385
   -31.5783 -31.5781 -31.5781 -31.5780 -31.5687 -31.5685 -31.5684 -31.5683
    -8.1311  -8.1310  -8.1306  -8.1305   3.2170   3.2171   3.2172   3.2173
     7.0479   7.0480   7.0484   7.0485   7.0794   7.0795   7.0799   7.0800

          k = 0.0000-0.2523 0.2500 (  5143 PWs)   bands (ev):

   -64.8304 -64.8247 -64.8244 -64.8235 -31.6232 -31.6194 -31.6153 -31.6033
   -31.5994 -31.5981 -31.5886 -31.5846 -31.5814 -31.5806 -31.5795 -31.5635
    -8.9629  -8.0647  -8.0475  -7.9033   4.1541   4.1630   4.3079   5.0710
     5.8195   6.0447   6.0901   6.4417   6.4573   6.6141   7.1930   7.5010

          k =-0.2477 0.0000 0.2500 (  5151 PWs)   bands (ev):

   -64.8305 -64.8249 -64.8245 -64.8232 -31.6250 -31.6198 -31.6121 -31.6090
   -31.5939 -31.5908 -31.5893 -31.5880 -31.5859 -31.5849 -31.5704 -31.5677
    -8.9723  -8.0828  -8.0658  -7.8801   4.1584   4.1657   4.3497   5.0700
     5.8736   6.0215   6.0642   6.5121   6.5239   6.5556   7.1522   7.5076

          k =-0.2477 0.2523 0.0000 (  5150 PWs)   bands (ev):

   -64.8305 -64.8249 -64.8243 -64.8234 -31.6248 -31.6180 -31.6156 -31.6070
   -31.5941 -31.5924 -31.5912 -31.5897 -31.5847 -31.5807 -31.5738 -31.5654
    -8.9676  -8.0821  -8.0479  -7.8914   4.1532   4.1692   4.3268   5.0707
     5.8457   6.0108   6.0987   6.4676   6.4979   6.5864   7.1735   7.5038

          k =-0.2477-0.2523 0.2500 (  5149 PWs)   bands (ev):

   -64.8295 -64.8249 -64.8247 -64.8240 -31.6267 -31.6238 -31.6219 -31.6051
   -31.5939 -31.5926 -31.5917 -31.5859 -31.5807 -31.5782 -31.5743 -31.5652
    -8.7977  -8.0441  -8.0320  -8.0197   3.9965   3.9993   4.0037   5.0882
     5.8307   5.8444   5.8590   6.6780   6.7061   6.7312   7.3512   7.3574

          k =-0.2477 0.2523-0.2500 (  5149 PWs)   bands (ev):

   -64.8295 -64.8249 -64.8247 -64.8240 -31.6268 -31.6238 -31.6220 -31.6050
   -31.5939 -31.5926 -31.5916 -31.5859 -31.5807 -31.5782 -31.5743 -31.5652
    -8.7977  -8.0441  -8.0320  -8.0197   3.9965   3.9993   4.0037   5.0882
     5.8307   5.8444   5.8590   6.6780   6.7061   6.7312   7.3512   7.3574

          k = 0.2477-0.2523-0.2500 (  5149 PWs)   bands (ev):

   -64.8295 -64.8249 -64.8247 -64.8240 -31.6268 -31.6238 -31.6220 -31.6050
   -31.5939 -31.5926 -31.5916 -31.5859 -31.5807 -31.5782 -31.5743 -31.5652
    -8.7977  -8.0441  -8.0320  -8.0197   3.9965   3.9993   4.0037   5.0882
     5.8307   5.8444   5.8590   6.6780   6.7061   6.7312   7.3512   7.3574

          k =-0.2477 0.2523 0.5000 (  5140 PWs)   bands (ev):

   -64.8273 -64.8268 -64.8248 -64.8242 -31.6273 -31.6270 -31.6203 -31.6202
   -31.5928 -31.5924 -31.5810 -31.5809 -31.5781 -31.5780 -31.5714 -31.5712
    -8.4007  -8.4004  -7.9985  -7.9983   3.8210   3.8213   4.1971   4.1973
     5.8286   5.8287   6.7392   6.7394   6.8677   6.8682   7.0159   7.0162

          k =-0.2477 0.5047 0.2500 (  5140 PWs)   bands (ev):

   -64.8272 -64.8267 -64.8248 -64.8243 -31.6279 -31.6277 -31.6196 -31.6194
   -31.5948 -31.5946 -31.5812 -31.5804 -31.5756 -31.5755 -31.5725 -31.5721
    -8.4043  -8.3789  -8.0016  -8.0011   3.8185   3.8188   4.1704   4.1953
     5.8296   5.8308   6.7313   6.7319   6.8751   6.8867   6.9882   7.0119

          k = 0.4954-0.2523 0.2500 (  5144 PWs)   bands (ev):

   -64.8274 -64.8269 -64.8247 -64.8242 -31.6269 -31.6267 -31.6213 -31.6208
   -31.5898 -31.5894 -31.5832 -31.5827 -31.5790 -31.5788 -31.5720 -31.5711
    -8.4226  -8.3954  -7.9954  -7.9949   3.8227   3.8230   4.1995   4.2244
     5.8274   5.8286   6.7460   6.7465   6.8493   6.8588   7.0185   7.0429

     highest occupied level (ev):     7.6905

!    total energy              =    -608.39185426 Ry
     Harris-Foulkes estimate   =    -608.39185426 Ry
     estimated scf accuracy    <          1.7E-09 Ry

     The total energy is the sum of the following terms:

     one-electron contribution =    -303.69016817 Ry
     hartree contribution      =     168.13611103 Ry
     xc contribution           =     -97.84854753 Ry
     ewald contribution        =    -374.98924960 Ry

     convergence has been achieved in   5 iterations

     Forces acting on atoms (cartesian axes, Ry/au):

     atom    1 type  1   force =    -0.00335928    0.00383377   -0.00003345
     atom    2 type  1   force =    -0.00344410   -0.00388423    0.00003312
     atom    3 type  1   force =     0.00338451    0.00394011    0.00003313
     atom    4 type  1   force =     0.00331087   -0.00382098   -0.00003425
     atom    5 type  2   force =     0.00378259    0.00416394   -0.00003645
     atom    6 type  2   force =    -0.00373673   -0.00418920   -0.00003652
     atom    7 type  2   force =    -0.00373265    0.00415709    0.00003713
     atom    8 type  2   force =     0.00379478   -0.00420051    0.00003729

     Total force =     0.015228     Total SCF correction =     0.000350


     Computing stress (Cartesian axis) and pressure

          total   stress  (Ry/bohr**3)                   (kbar)     P=  -67.11
  -0.00055929   0.00000002  -0.00000000        -82.27      0.00     -0.00
   0.00000002  -0.00034379   0.00000000          0.00    -50.57      0.00
  -0.00000000   0.00000000  -0.00046546         -0.00      0.00    -68.47


     number of scf cycles    =   2
     number of bfgs steps    =   1

     energy   old            =    -608.3914435732 Ry
     energy   new            =    -608.3918542596 Ry

     CASE: energy  _new < energy  _old

     new trust radius        =       0.0092742157 bohr
     new conv_thr            =       0.0000000041 Ry


ATOMIC_POSITIONS (alat)
Mg      -0.001248065   0.001488589  -0.000012557
Mg      -0.001265687   0.498506639   0.500012284
Mg       0.501247343   0.001510496   0.500012331
Mg       0.501216386   0.498533952  -0.000012702
O        0.501438252   0.001639845  -0.000014057
O       -0.001416070   0.498343214  -0.000014043
O       -0.001415107   0.001638434   0.500014357
O        0.501442949   0.498338832   0.500014386



     Writing output data file diamond.1.009286.70.4.save
     NEW-OLD atomic charge density approx. for the potential

     Check: negative/imaginary core charge=   -0.000008    0.000000

     total cpu time spent up to now is       24.6 secs

     per-process dynamical memory:    56.0 Mb

     Self-consistent Calculation

     iteration #  1     ecut=    70.00 Ry     beta=0.70
     Davidson diagonalization with overlap
     ethr =  1.00E-06,  avg # of iterations =  3.1

     total cpu time spent up to now is       27.0 secs

     total energy              =    -608.39209953 Ry
     Harris-Foulkes estimate   =    -608.39218248 Ry
     estimated scf accuracy    <       0.00011316 Ry

     iteration #  2     ecut=    70.00 Ry     beta=0.70
     Davidson diagonalization with overlap
     ethr =  1.77E-07,  avg # of iterations =  2.2

     total cpu time spent up to now is       28.5 secs

     total energy              =    -608.39213472 Ry
     Harris-Foulkes estimate   =    -608.39214678 Ry
     estimated scf accuracy    <       0.00002009 Ry

     iteration #  3     ecut=    70.00 Ry     beta=0.70
     Davidson diagonalization with overlap
     ethr =  3.14E-08,  avg # of iterations =  2.0

     total cpu time spent up to now is       29.9 secs

     total energy              =    -608.39213902 Ry
     Harris-Foulkes estimate   =    -608.39213896 Ry
     estimated scf accuracy    <       0.00000013 Ry

     iteration #  4     ecut=    70.00 Ry     beta=0.70
     Davidson diagonalization with overlap
     ethr =  2.06E-10,  avg # of iterations =  2.8

     total cpu time spent up to now is       31.7 secs

     total energy              =    -608.39213905 Ry
     Harris-Foulkes estimate   =    -608.39213906 Ry
     estimated scf accuracy    <       0.00000002 Ry

     iteration #  5     ecut=    70.00 Ry     beta=0.70
     Davidson diagonalization with overlap
     ethr =  2.44E-11,  avg # of iterations =  2.0

     total cpu time spent up to now is       33.2 secs

     End of self-consistent calculation

          k = 0.0000 0.0000 0.0000 (  5145 PWs)   bands (ev):

   -64.8334 -64.8241 -64.8237 -64.8231 -31.6346 -31.6288 -31.6241 -31.5981
   -31.5959 -31.5938 -31.5901 -31.5864 -31.5862 -31.5719 -31.5641 -31.5580
    -9.3656  -7.9392  -7.9147  -7.8908   3.7281   3.7577   3.7897   6.3136
     6.3243   6.3711   6.3876   6.4382   6.4455   7.6494   7.6724   7.6909

          k = 0.0000 0.0000 0.2500 (  5157 PWs)   bands (ev):

   -64.8320 -64.8251 -64.8240 -64.8233 -31.6286 -31.6196 -31.6177 -31.6035
   -31.5945 -31.5925 -31.5908 -31.5907 -31.5833 -31.5770 -31.5762 -31.5649
    -9.1572  -8.1296  -7.9039  -7.8694   4.0202   4.0775   4.0944   5.8430
     5.8721   6.1249   6.2153   6.4899   6.5968   6.6590   7.4208   7.4774

          k = 0.0000 0.0000-0.5000 (  5134 PWs)   bands (ev):

   -64.8288 -64.8283 -64.8239 -64.8234 -31.6156 -31.6153 -31.6027 -31.6024
   -31.6004 -31.6004 -31.5903 -31.5902 -31.5854 -31.5851 -31.5747 -31.5744
    -8.6471  -8.6469  -7.8579  -7.8579   4.8237   4.8240   4.8711   4.8713
     5.1227   5.1230   5.9728   5.9731   6.9250   6.9252   7.0097   7.0098

          k = 0.0000 0.2523 0.0000 (  5161 PWs)   bands (ev):

   -64.8319 -64.8249 -64.8240 -64.8235 -31.6283 -31.6227 -31.6153 -31.6017
   -31.5953 -31.5951 -31.5899 -31.5875 -31.5866 -31.5764 -31.5711 -31.5707
    -9.1518  -8.1065  -7.9044  -7.8869   4.0266   4.0538   4.1102   5.8948
     5.9082   6.1119   6.1562   6.4835   6.5366   6.6389   7.4376   7.4646

          k = 0.0000 0.2523 0.2500 (  5143 PWs)   bands (ev):

   -64.8307 -64.8250 -64.8247 -64.8239 -31.6234 -31.6196 -31.6154 -31.6035
   -31.5996 -31.5983 -31.5888 -31.5850 -31.5815 -31.5809 -31.5798 -31.5637
    -8.9623  -8.0643  -8.0473  -7.9031   4.1546   4.1631   4.3081   5.0713
     5.8197   6.0452   6.0900   6.4419   6.4573   6.6140   7.1930   7.5012

          k = 0.0000 0.2523-0.5000 (  5142 PWs)   bands (ev):

   -64.8280 -64.8276 -64.8246 -64.8240 -31.6135 -31.6133 -31.6114 -31.6111
   -31.6080 -31.6079 -31.5895 -31.5892 -31.5800 -31.5798 -31.5694 -31.5692
    -8.5077  -8.5075  -7.9447  -7.9446   4.4050   4.4051   4.7285   4.7287
     5.0803   5.0806   6.5672   6.5675   6.6050   6.6052   7.0773   7.0774

          k = 0.0000-0.5047 0.0000 (  5142 PWs)   bands (ev):

   -64.8286 -64.8281 -64.8240 -64.8235 -31.6151 -31.6143 -31.6087 -31.6077
   -31.5955 -31.5943 -31.5869 -31.5866 -31.5856 -31.5854 -31.5805 -31.5798
    -8.6383  -8.6228  -7.8641  -7.8638   4.8367   4.8589   4.8614   4.8837
     5.1086   5.1188   5.9254   5.9256   6.9222   6.9373   6.9636   6.9783

          k = 0.0000-0.5047 0.2500 (  5144 PWs)   bands (ev):

   -64.8279 -64.8275 -64.8247 -64.8242 -31.6153 -31.6148 -31.6112 -31.6103
   -31.6063 -31.6058 -31.5911 -31.5904 -31.5776 -31.5773 -31.5718 -31.5717
    -8.5036  -8.4900  -7.9515  -7.9491   4.3990   4.4087   4.7162   4.7271
     5.0870   5.1109   6.5356   6.5446   6.5711   6.5882   7.0849   7.0901

          k = 0.0000-0.5047-0.5000 (  5152 PWs)   bands (ev):

   -64.8264 -64.8263 -64.8262 -64.8254 -31.6167 -31.6165 -31.6163 -31.6162
   -31.6014 -31.6012 -31.6007 -31.6004 -31.5701 -31.5699 -31.5697 -31.5696
    -8.2041  -8.2040  -8.1957  -8.1956   4.2558   4.2560   4.2597   4.2598
     5.7601   5.7603   5.7815   5.7817   7.0732   7.0734   7.0798   7.0800

          k = 0.2477 0.0000 0.0000 (  5158 PWs)   bands (ev):

   -64.8320 -64.8254 -64.8237 -64.8232 -31.6260 -31.6232 -31.6180 -31.5988
   -31.5986 -31.5971 -31.5923 -31.5868 -31.5837 -31.5816 -31.5698 -31.5636
    -9.1625  -8.1527  -7.8855  -7.8684   4.0413   4.0712   4.0785   5.8067
     5.8223   6.1836   6.2294   6.5474   6.6008   6.6760   7.4337   7.4632

          k = 0.2477 0.0000 0.2500 (  5151 PWs)   bands (ev):

   -64.8308 -64.8252 -64.8248 -64.8236 -31.6251 -31.6200 -31.6123 -31.6092
   -31.5942 -31.5910 -31.5896 -31.5882 -31.5861 -31.5853 -31.5707 -31.5680
    -8.9717  -8.0826  -8.0654  -7.8798   4.1586   4.1663   4.3499   5.0703
     5.8739   6.0214   6.0646   6.5121   6.5261   6.5536   7.1522   7.5079

          k = 0.2477 0.0000-0.5000 (  5164 PWs)   bands (ev):

   -64.8280 -64.8276 -64.8246 -64.8240 -31.6204 -31.6202 -31.6103 -31.6102
   -31.5991 -31.5989 -31.5851 -31.5850 -31.5794 -31.5793 -31.5787 -31.5785
    -8.5136  -8.5135  -7.9516  -7.9515   4.4308   4.4309   4.7725   4.7727
     5.1128   5.1131   6.5253   6.5256   6.5474   6.5475   7.1096   7.1097

          k = 0.2477 0.2523 0.0000 (  5150 PWs)   bands (ev):

   -64.8308 -64.8252 -64.8246 -64.8237 -31.6250 -31.6182 -31.6157 -31.6072
   -31.5944 -31.5925 -31.5915 -31.5901 -31.5849 -31.5810 -31.5741 -31.5656
    -8.9669  -8.0819  -8.0477  -7.8911   4.1533   4.1694   4.3275   5.0707
     5.8461   6.0110   6.0990   6.4682   6.4986   6.5851   7.1734   7.5041

          k = 0.2477 0.2523 0.2500 (  5149 PWs)   bands (ev):

   -64.8297 -64.8252 -64.8250 -64.8243 -31.6269 -31.6240 -31.6221 -31.6052
   -31.5941 -31.5929 -31.5919 -31.5862 -31.5810 -31.5785 -31.5746 -31.5654
    -8.7971  -8.0439  -8.0316  -8.0195   3.9967   3.9997   4.0039   5.0885
     5.8308   5.8447   5.8591   6.6782   6.7059   6.7314   7.3513   7.3575

          k = 0.2477 0.2523-0.5000 (  5140 PWs)   bands (ev):

   -64.8275 -64.8271 -64.8251 -64.8245 -31.6274 -31.6273 -31.6206 -31.6204
   -31.5930 -31.5928 -31.5813 -31.5811 -31.5783 -31.5782 -31.5717 -31.5715
    -8.4001  -8.3999  -7.9982  -7.9981   3.8214   3.8214   4.1972   4.1975
     5.8288   5.8288   6.7399   6.7402   6.8678   6.8681   7.0158   7.0159

          k = 0.2477-0.5047 0.0000 (  5140 PWs)   bands (ev):

   -64.8279 -64.8275 -64.8247 -64.8242 -31.6185 -31.6179 -31.6081 -31.6077
   -31.6051 -31.6042 -31.5851 -31.5844 -31.5795 -31.5792 -31.5759 -31.5756
    -8.5065  -8.4928  -7.9550  -7.9520   4.4130   4.4227   4.7384   4.7492
     5.1017   5.1257   6.5153   6.5242   6.5419   6.5594   7.1006   7.1053

          k = 0.2477-0.5047 0.2500 (  5140 PWs)   bands (ev):

   -64.8274 -64.8271 -64.8251 -64.8246 -31.6281 -31.6279 -31.6198 -31.6196
   -31.5950 -31.5949 -31.5813 -31.5809 -31.5759 -31.5758 -31.5727 -31.5724
    -8.3970  -8.3853  -8.0011  -8.0009   3.8188   3.8190   4.1774   4.1885
     5.8303   5.8308   6.7317   6.7320   6.8783   6.8838   6.9947   7.0054

          k = 0.2477-0.5047-0.5000 (  5136 PWs)   bands (ev):

   -64.8263 -64.8263 -64.8262 -64.8254 -31.6305 -31.6303 -31.6302 -31.6302
   -31.5865 -31.5863 -31.5862 -31.5860 -31.5701 -31.5699 -31.5698 -31.5696
    -8.1684  -8.1683  -8.1624  -8.1623   3.6255   3.6256   3.6310   3.6311
     6.5062   6.5064   6.5188   6.5189   7.0748   7.0750   7.0794   7.0796

          k =-0.4954 0.0000 0.0000 (  5158 PWs)   bands (ev):

   -64.8289 -64.8285 -64.8237 -64.8232 -31.6107 -31.6096 -31.6070 -31.6058
   -31.6042 -31.6031 -31.5982 -31.5981 -31.5789 -31.5783 -31.5741 -31.5734
    -8.6730  -8.6529  -7.8511  -7.8507   4.8059   4.8311   4.8373   4.8625
     5.1244   5.1350   6.0186   6.0189   6.9533   6.9722   6.9971   7.0154

          k =-0.4954 0.0000 0.2500 (  5160 PWs)   bands (ev):

   -64.8282 -64.8277 -64.8244 -64.8240 -31.6182 -31.6176 -31.6127 -31.6119
   -31.6006 -31.5995 -31.5880 -31.5876 -31.5784 -31.5776 -31.5761 -31.5758
    -8.5330  -8.5152  -7.9474  -7.9436   4.4242   4.4375   4.7730   4.7852
     5.0796   5.1099   6.5471   6.5584   6.5612   6.5826   7.0969   7.1019

          k =-0.4954 0.0000-0.5000 (  5196 PWs)   bands (ev):

   -64.8264 -64.8262 -64.8262 -64.8254 -31.6205 -31.6203 -31.6200 -31.6199
   -31.5898 -31.5896 -31.5889 -31.5886 -31.5793 -31.5791 -31.5788 -31.5788
    -8.2185  -8.2184  -8.2071  -8.2070   4.3256   4.3258   4.3299   4.3299
     5.7509   5.7511   5.7780   5.7782   7.0435   7.0437   7.0529   7.0531

          k =-0.4954 0.2523 0.0000 (  5152 PWs)   bands (ev):

   -64.8282 -64.8277 -64.8244 -64.8240 -31.6161 -31.6156 -31.6121 -31.6113
   -31.6069 -31.6060 -31.5849 -31.5845 -31.5831 -31.5824 -31.5705 -31.5702
    -8.5299  -8.5122  -7.9434  -7.9403   4.4121   4.4252   4.7511   4.7635
     5.0617   5.0920   6.5687   6.5794   6.5895   6.6111   7.0797   7.0852

          k =-0.4954 0.2523 0.2500 (  5144 PWs)   bands (ev):

   -64.8276 -64.8272 -64.8250 -64.8245 -31.6270 -31.6269 -31.6214 -31.6211
   -31.5900 -31.5897 -31.5833 -31.5831 -31.5792 -31.5791 -31.5721 -31.5715
    -8.4162  -8.4011  -7.9950  -7.9947   3.8230   3.8232   4.2053   4.2188
     5.8280   5.8286   6.7464   6.7467   6.8514   6.8569   7.0240   7.0375

          k =-0.4954 0.2523-0.5000 (  5148 PWs)   bands (ev):

   -64.8264 -64.8263 -64.8262 -64.8254 -31.6316 -31.6314 -31.6314 -31.6313
   -31.5800 -31.5798 -31.5797 -31.5796 -31.5758 -31.5756 -31.5755 -31.5754
    -8.1760  -8.1759  -8.1679  -8.1678   3.6481   3.6483   3.6552   3.6552
     6.5272   6.5274   6.5425   6.5427   7.0462   7.0464   7.0530   7.0531

          k =-0.4954-0.5047 0.0000 (  5192 PWs)   bands (ev):

   -64.8264 -64.8263 -64.8262 -64.8254 -31.6190 -31.6187 -31.6184 -31.6182
   -31.5969 -31.5961 -31.5960 -31.5952 -31.5746 -31.5743 -31.5740 -31.5739
    -8.2159  -8.2070  -8.2047  -8.1961   4.2889   4.2927   4.2931   4.2970
     5.7423   5.7638   5.7694   5.7908   7.0539   7.0608   7.0629   7.0697

          k =-0.4954-0.5047 0.2500 (  5136 PWs)   bands (ev):

   -64.8263 -64.8263 -64.8262 -64.8254 -31.6312 -31.6310 -31.6309 -31.6308
   -31.5839 -31.5836 -31.5835 -31.5832 -31.5721 -31.5719 -31.5717 -31.5716
    -8.1756  -8.1692  -8.1676  -8.1615   3.6337   3.6393   3.6405   3.6462
     6.5095   6.5219   6.5251   6.5374   7.0575   7.0624   7.0640   7.0688

          k =-0.4954-0.5047-0.5000 (  5128 PWs)   bands (ev):

   -64.8263 -64.8263 -64.8262 -64.8254 -31.6390 -31.6388 -31.6387 -31.6387
   -31.5786 -31.5784 -31.5784 -31.5783 -31.5689 -31.5687 -31.5687 -31.5685
    -8.1305  -8.1304  -8.1303  -8.1303   3.2171   3.2172   3.2172   3.2173
     7.0483   7.0484   7.0485   7.0486   7.0798   7.0799   7.0800   7.0801

          k = 0.0000-0.2523 0.2500 (  5143 PWs)   bands (ev):

   -64.8307 -64.8250 -64.8247 -64.8239 -31.6234 -31.6196 -31.6154 -31.6035
   -31.5996 -31.5983 -31.5888 -31.5850 -31.5815 -31.5809 -31.5798 -31.5637
    -8.9623  -8.0643  -8.0473  -7.9031   4.1546   4.1631   4.3081   5.0713
     5.8197   6.0452   6.0900   6.4419   6.4573   6.6140   7.1930   7.5012

          k =-0.2477 0.0000 0.2500 (  5151 PWs)   bands (ev):

   -64.8308 -64.8252 -64.8248 -64.8236 -31.6251 -31.6200 -31.6123 -31.6092
   -31.5942 -31.5910 -31.5896 -31.5882 -31.5861 -31.5853 -31.5707 -31.5680
    -8.9717  -8.0826  -8.0654  -7.8798   4.1586   4.1663   4.3499   5.0703
     5.8739   6.0214   6.0646   6.5121   6.5261   6.5536   7.1522   7.5079

          k =-0.2477 0.2523 0.0000 (  5150 PWs)   bands (ev):

   -64.8308 -64.8252 -64.8246 -64.8237 -31.6250 -31.6182 -31.6158 -31.6072
   -31.5944 -31.5925 -31.5915 -31.5901 -31.5849 -31.5810 -31.5741 -31.5656
    -8.9669  -8.0819  -8.0477  -7.8911   4.1533   4.1694   4.3275   5.0707
     5.8461   6.0110   6.0990   6.4682   6.4986   6.5851   7.1734   7.5041

          k =-0.2477-0.2523 0.2500 (  5149 PWs)   bands (ev):

   -64.8297 -64.8252 -64.8250 -64.8243 -31.6269 -31.6240 -31.6221 -31.6052
   -31.5941 -31.5929 -31.5919 -31.5862 -31.5810 -31.5785 -31.5746 -31.5654
    -8.7971  -8.0439  -8.0316  -8.0195   3.9967   3.9997   4.0039   5.0885
     5.8308   5.8447   5.8591   6.6782   6.7059   6.7314   7.3513   7.3575

          k =-0.2477 0.2523-0.2500 (  5149 PWs)   bands (ev):

   -64.8297 -64.8252 -64.8250 -64.8243 -31.6269 -31.6240 -31.6221 -31.6052
   -31.5941 -31.5929 -31.5919 -31.5862 -31.5810 -31.5785 -31.5746 -31.5654
    -8.7971  -8.0439  -8.0316  -8.0195   3.9967   3.9997   4.0039   5.0885
     5.8308   5.8447   5.8591   6.6782   6.7059   6.7314   7.3513   7.3575

          k = 0.2477-0.2523-0.2500 (  5149 PWs)   bands (ev):

   -64.8297 -64.8252 -64.8250 -64.8243 -31.6269 -31.6240 -31.6221 -31.6052
   -31.5941 -31.5929 -31.5919 -31.5862 -31.5810 -31.5785 -31.5746 -31.5654
    -8.7971  -8.0439  -8.0316  -8.0195   3.9967   3.9997   4.0039   5.0885
     5.8308   5.8447   5.8591   6.6782   6.7059   6.7314   7.3513   7.3575

          k =-0.2477 0.2523 0.5000 (  5140 PWs)   bands (ev):

   -64.8275 -64.8271 -64.8251 -64.8245 -31.6275 -31.6273 -31.6205 -31.6204
   -31.5930 -31.5927 -31.5813 -31.5811 -31.5783 -31.5782 -31.5717 -31.5715
    -8.4001  -8.3999  -7.9982  -7.9981   3.8213   3.8215   4.1973   4.1974
     5.8288   5.8288   6.7399   6.7402   6.8679   6.8679   7.0158   7.0159

          k =-0.2477 0.5047 0.2500 (  5140 PWs)   bands (ev):

   -64.8274 -64.8271 -64.8251 -64.8246 -31.6281 -31.6279 -31.6198 -31.6196
   -31.5950 -31.5949 -31.5813 -31.5809 -31.5759 -31.5758 -31.5727 -31.5724
    -8.3970  -8.3853  -8.0011  -8.0009   3.8188   3.8190   4.1774   4.1885
     5.8303   5.8308   6.7317   6.7320   6.8783   6.8838   6.9947   7.0054

          k = 0.4954-0.2523 0.2500 (  5144 PWs)   bands (ev):

   -64.8276 -64.8272 -64.8250 -64.8245 -31.6270 -31.6269 -31.6214 -31.6211
   -31.5900 -31.5897 -31.5833 -31.5831 -31.5792 -31.5791 -31.5721 -31.5715
    -8.4162  -8.4011  -7.9950  -7.9947   3.8230   3.8232   4.2053   4.2188
     5.8280   5.8286   6.7464   6.7467   6.8514   6.8569   7.0240   7.0375

     highest occupied level (ev):     7.6909

!    total energy              =    -608.39213906 Ry
     Harris-Foulkes estimate   =    -608.39213906 Ry
     estimated scf accuracy    <          1.7E-09 Ry

     The total energy is the sum of the following terms:

     one-electron contribution =    -303.63777635 Ry
     hartree contribution      =     168.10951289 Ry
     xc contribution           =     -97.84795052 Ry
     ewald contribution        =    -375.01592508 Ry

     convergence has been achieved in   5 iterations

     Forces acting on atoms (cartesian axes, Ry/au):

     atom    1 type  1   force =    -0.00192543    0.00178715   -0.00001767
     atom    2 type  1   force =    -0.00208367   -0.00191261    0.00001857
     atom    3 type  1   force =     0.00202333    0.00196856    0.00001854
     atom    4 type  1   force =     0.00199960   -0.00189751   -0.00001915
     atom    5 type  2   force =     0.00196278    0.00181828   -0.00001778
     atom    6 type  2   force =    -0.00197448   -0.00178834   -0.00001780
     atom    7 type  2   force =    -0.00196795    0.00180612    0.00001763
     atom    8 type  2   force =     0.00196582   -0.00178167    0.00001766

     Total force =     0.007675     Total SCF correction =     0.000393


     Computing stress (Cartesian axis) and pressure

          total   stress  (Ry/bohr**3)                   (kbar)     P=  -67.43
  -0.00056212   0.00000001  -0.00000000        -82.69      0.00     -0.00
   0.00000001  -0.00034712   0.00000000          0.00    -51.06      0.00
  -0.00000000   0.00000000  -0.00046587         -0.00      0.00    -68.53


     number of scf cycles    =   3
     number of bfgs steps    =   2

     energy   old            =    -608.3918542596 Ry
     energy   new            =    -608.3921390569 Ry

     CASE: energy  _new < energy  _old

     new trust radius        =       0.0090371752 bohr
     new conv_thr            =       0.0000000021 Ry


ATOMIC_POSITIONS (alat)
Mg      -0.001999305   0.002244865  -0.000019665
Mg      -0.002062955   0.497715277   0.500019587
Mg       0.502024830   0.002320252   0.500019629
Mg       0.501981946   0.497751530  -0.000020242
O        0.502233593   0.002431063  -0.000021442
O       -0.002210528   0.497557282  -0.000021438
O       -0.002207617   0.002426089   0.500021761
O        0.502240036   0.497553641   0.500021809



     Writing output data file diamond.1.009286.70.4.save
     NEW-OLD atomic charge density approx. for the potential

     Check: negative/imaginary core charge=   -0.000008    0.000000

     total cpu time spent up to now is       34.0 secs

     per-process dynamical memory:    56.0 Mb

     Self-consistent Calculation

     iteration #  1     ecut=    70.00 Ry     beta=0.70
     Davidson diagonalization with overlap
     ethr =  1.00E-06,  avg # of iterations =  3.0

     total cpu time spent up to now is       36.4 secs

     total energy              =    -608.39219845 Ry
     Harris-Foulkes estimate   =    -608.39227968 Ry
     estimated scf accuracy    <       0.00011090 Ry

     iteration #  2     ecut=    70.00 Ry     beta=0.70
     Davidson diagonalization with overlap
     ethr =  1.73E-07,  avg # of iterations =  2.2

     total cpu time spent up to now is       37.9 secs

     total energy              =    -608.39223304 Ry
     Harris-Foulkes estimate   =    -608.39224490 Ry
     estimated scf accuracy    <       0.00001982 Ry

     iteration #  3     ecut=    70.00 Ry     beta=0.70
     Davidson diagonalization with overlap
     ethr =  3.10E-08,  avg # of iterations =  2.0

     total cpu time spent up to now is       39.3 secs

     total energy              =    -608.39223727 Ry
     Harris-Foulkes estimate   =    -608.39223721 Ry
     estimated scf accuracy    <       0.00000013 Ry

     iteration #  4     ecut=    70.00 Ry     beta=0.70
     Davidson diagonalization with overlap
     ethr =  2.03E-10,  avg # of iterations =  2.8

     total cpu time spent up to now is       41.0 secs

     total energy              =    -608.39223731 Ry
     Harris-Foulkes estimate   =    -608.39223731 Ry
     estimated scf accuracy    <          8.9E-09 Ry

     iteration #  5     ecut=    70.00 Ry     beta=0.70
     Davidson diagonalization with overlap
     ethr =  1.39E-11,  avg # of iterations =  2.0

     total cpu time spent up to now is       42.6 secs

     End of self-consistent calculation

          k = 0.0000 0.0000 0.0000 (  5145 PWs)   bands (ev):

   -64.8335 -64.8242 -64.8238 -64.8232 -31.6346 -31.6289 -31.6242 -31.5981
   -31.5959 -31.5939 -31.5903 -31.5864 -31.5863 -31.5720 -31.5642 -31.5581
    -9.3654  -7.9391  -7.9146  -7.8907   3.7281   3.7580   3.7897   6.3137
     6.3243   6.3712   6.3877   6.4382   6.4456   7.6495   7.6725   7.6911

          k = 0.0000 0.0000 0.2500 (  5157 PWs)   bands (ev):

   -64.8321 -64.8252 -64.8241 -64.8234 -31.6287 -31.6197 -31.6177 -31.6036
   -31.5945 -31.5926 -31.5909 -31.5908 -31.5834 -31.5771 -31.5763 -31.5650
    -9.1570  -8.1295  -7.9038  -7.8693   4.0202   4.0776   4.0946   5.8430
     5.8722   6.1252   6.2156   6.4897   6.5967   6.6591   7.4208   7.4774

          k = 0.0000 0.0000-0.5000 (  5134 PWs)   bands (ev):

   -64.8288 -64.8284 -64.8240 -64.8235 -31.6157 -31.6154 -31.6026 -31.6023
   -31.6006 -31.6006 -31.5903 -31.5903 -31.5855 -31.5853 -31.5748 -31.5745
    -8.6469  -8.6467  -7.8579  -7.8577   4.8239   4.8240   4.8713   4.8714
     5.1227   5.1230   5.9731   5.9735   6.9250   6.9251   7.0097   7.0097

          k = 0.0000 0.2523 0.0000 (  5161 PWs)   bands (ev):

   -64.8320 -64.8250 -64.8242 -64.8236 -31.6284 -31.6228 -31.6153 -31.6018
   -31.5954 -31.5952 -31.5900 -31.5876 -31.5866 -31.5765 -31.5711 -31.5708
    -9.1516  -8.1064  -7.9043  -7.8867   4.0267   4.0541   4.1103   5.8947
     5.9083   6.1120   6.1564   6.4836   6.5365   6.6389   7.4376   7.4646

          k = 0.0000 0.2523 0.2500 (  5143 PWs)   bands (ev):

   -64.8308 -64.8251 -64.8248 -64.8240 -31.6234 -31.6197 -31.6155 -31.6036
   -31.5997 -31.5984 -31.5889 -31.5851 -31.5815 -31.5811 -31.5799 -31.5638
    -8.9621  -8.0641  -8.0472  -7.9030   4.1548   4.1632   4.3082   5.0714
     5.8197   6.0453   6.0900   6.4420   6.4573   6.6140   7.1930   7.5013

          k = 0.0000 0.2523-0.5000 (  5142 PWs)   bands (ev):

   -64.8281 -64.8277 -64.8247 -64.8242 -31.6135 -31.6133 -31.6113 -31.6110
   -31.6082 -31.6082 -31.5896 -31.5893 -31.5800 -31.5799 -31.5695 -31.5692
    -8.5075  -8.5074  -7.9446  -7.9445   4.4051   4.4052   4.7287   4.7289
     5.0803   5.0804   6.5681   6.5683   6.6043   6.6044   7.0774   7.0774

          k = 0.0000-0.5047 0.0000 (  5142 PWs)   bands (ev):

   -64.8287 -64.8283 -64.8241 -64.8237 -31.6149 -31.6147 -31.6083 -31.6082
   -31.5950 -31.5949 -31.5865 -31.5864 -31.5860 -31.5859 -31.5803 -31.5801
    -8.6312  -8.6295  -7.8638  -7.8637   4.8479   4.8504   4.8703   4.8727
     5.1129   5.1144   5.9255   5.9258   6.9289   6.9308   6.9700   6.9718

          k = 0.0000-0.5047 0.2500 (  5144 PWs)   bands (ev):

   -64.8280 -64.8276 -64.8248 -64.8243 -31.6152 -31.6150 -31.6108 -31.6106
   -31.6062 -31.6062 -31.5909 -31.5907 -31.5776 -31.5776 -31.5719 -31.5718
    -8.4974  -8.4958  -7.9503  -7.9500   4.4037   4.4044   4.7209   4.7227
     5.0976   5.1000   6.5404   6.5415   6.5779   6.5799   7.0874   7.0878

          k = 0.0000-0.5047-0.5000 (  5152 PWs)   bands (ev):

   -64.8264 -64.8264 -64.8264 -64.8255 -31.6167 -31.6165 -31.6164 -31.6164
   -31.6013 -31.6011 -31.6010 -31.6008 -31.5701 -31.5699 -31.5699 -31.5698
    -8.2003  -8.2001  -8.1993  -8.1992   4.2574   4.2575   4.2584   4.2586
     5.7697   5.7698   5.7720   5.7720   7.0762   7.0763   7.0771   7.0773

          k = 0.2477 0.0000 0.0000 (  5158 PWs)   bands (ev):

   -64.8321 -64.8255 -64.8238 -64.8233 -31.6260 -31.6233 -31.6181 -31.5989
   -31.5987 -31.5972 -31.5924 -31.5869 -31.5838 -31.5816 -31.5699 -31.5637
    -9.1622  -8.1527  -7.8853  -7.8683   4.0415   4.0714   4.0785   5.8067
     5.8222   6.1837   6.2296   6.5474   6.6009   6.6761   7.4337   7.4632

          k = 0.2477 0.0000 0.2500 (  5151 PWs)   bands (ev):

   -64.8309 -64.8253 -64.8249 -64.8237 -31.6252 -31.6201 -31.6123 -31.6093
   -31.5943 -31.5910 -31.5898 -31.5883 -31.5862 -31.5854 -31.5708 -31.5680
    -8.9715  -8.0825  -8.0652  -7.8797   4.1586   4.1665   4.3501   5.0703
     5.8740   6.0213   6.0648   6.5121   6.5272   6.5526   7.1522   7.5080

          k = 0.2477 0.0000-0.5000 (  5164 PWs)   bands (ev):

   -64.8281 -64.8277 -64.8247 -64.8242 -31.6204 -31.6202 -31.6104 -31.6103
   -31.5992 -31.5989 -31.5851 -31.5851 -31.5795 -31.5794 -31.5788 -31.5786
    -8.5134  -8.5133  -7.9515  -7.9514   4.4309   4.4309   4.7727   4.7729
     5.1130   5.1131   6.5263   6.5265   6.5466   6.5466   7.1097   7.1097

          k = 0.2477 0.2523 0.0000 (  5150 PWs)   bands (ev):

   -64.8309 -64.8253 -64.8247 -64.8239 -31.6250 -31.6183 -31.6158 -31.6073
   -31.5945 -31.5926 -31.5916 -31.5902 -31.5850 -31.5811 -31.5742 -31.5657
    -8.9667  -8.0818  -8.0475  -7.8909   4.1534   4.1695   4.3278   5.0706
     5.8463   6.0111   6.0991   6.4684   6.4989   6.5847   7.1734   7.5042

          k = 0.2477 0.2523 0.2500 (  5149 PWs)   bands (ev):

   -64.8299 -64.8253 -64.8251 -64.8245 -31.6270 -31.6241 -31.6222 -31.6052
   -31.5942 -31.5930 -31.5920 -31.5863 -31.5811 -31.5785 -31.5747 -31.5655
    -8.7969  -8.0438  -8.0314  -8.0193   3.9968   3.9998   4.0040   5.0886
     5.8308   5.8448   5.8592   6.6783   6.7059   6.7315   7.3514   7.3576

          k = 0.2477 0.2523-0.5000 (  5140 PWs)   bands (ev):

   -64.8276 -64.8272 -64.8252 -64.8247 -31.6275 -31.6273 -31.6206 -31.6205
   -31.5931 -31.5929 -31.5814 -31.5812 -31.5784 -31.5783 -31.5718 -31.5716
    -8.3999  -8.3998  -7.9981  -7.9980   3.8215   3.8215   4.1973   4.1975
     5.8288   5.8289   6.7402   6.7405   6.8679   6.8680   7.0157   7.0158

          k = 0.2477-0.5047 0.0000 (  5140 PWs)   bands (ev):

   -64.8280 -64.8276 -64.8248 -64.8243 -31.6184 -31.6182 -31.6080 -31.6079
   -31.6048 -31.6046 -31.5850 -31.5848 -31.5795 -31.5794 -31.5759 -31.5758
    -8.5002  -8.4987  -7.9536  -7.9532   4.4176   4.4182   4.7430   4.7447
     5.1127   5.1151   6.5193   6.5204   6.5496   6.5517   7.1028   7.1031

          k = 0.2477-0.5047 0.2500 (  5140 PWs)   bands (ev):

   -64.8275 -64.8272 -64.8252 -64.8248 -31.6281 -31.6280 -31.6198 -31.6197
   -31.5952 -31.5950 -31.5812 -31.5811 -31.5760 -31.5759 -31.5727 -31.5726
    -8.3916  -8.3903  -8.0010  -8.0009   3.8190   3.8190   4.1821   4.1838
     5.8306   5.8307   6.7319   6.7321   6.8809   6.8812   6.9994   7.0007

          k = 0.2477-0.5047-0.5000 (  5136 PWs)   bands (ev):

   -64.8264 -64.8264 -64.8263 -64.8255 -31.6306 -31.6303 -31.6303 -31.6302
   -31.5865 -31.5863 -31.5863 -31.5862 -31.5701 -31.5699 -31.5699 -31.5698
    -8.1656  -8.1655  -8.1649  -8.1648   3.6279   3.6279   3.6288   3.6289
     6.5119   6.5120   6.5133   6.5133   7.0769   7.0770   7.0776   7.0777

          k =-0.4954 0.0000 0.0000 (  5158 PWs)   bands (ev):

   -64.8290 -64.8286 -64.8238 -64.8234 -31.6105 -31.6101 -31.6066 -31.6063
   -31.6040 -31.6036 -31.5982 -31.5982 -31.5788 -31.5786 -31.5740 -31.5737
    -8.6644  -8.6613  -7.8508  -7.8508   4.8192   4.8244   4.8443   4.8494
     5.1291   5.1303   6.0188   6.0190   6.9614   6.9642   7.0050   7.0077

          k =-0.4954 0.0000 0.2500 (  5160 PWs)   bands (ev):

   -64.8282 -64.8279 -64.8245 -64.8241 -31.6181 -31.6179 -31.6125 -31.6123
   -31.6003 -31.6000 -31.5880 -31.5878 -31.5782 -31.5779 -31.5761 -31.5760
    -8.5254  -8.5226  -7.9456  -7.9450   4.4298   4.4322   4.7785   4.7798
     5.0922   5.0972   6.5530   6.5546   6.5693   6.5727   7.0990   7.1000

          k =-0.4954 0.0000-0.5000 (  5196 PWs)   bands (ev):

   -64.8264 -64.8264 -64.8264 -64.8256 -31.6205 -31.6203 -31.6202 -31.6201
   -31.5896 -31.5893 -31.5893 -31.5890 -31.5793 -31.5791 -31.5790 -31.5790
    -8.2135  -8.2134  -8.2118  -8.2116   4.3278   4.3279   4.3279   4.3280
     5.7624   5.7624   5.7667   5.7668   7.0477   7.0479   7.0490   7.0491

          k =-0.4954 0.2523 0.0000 (  5152 PWs)   bands (ev):

   -64.8282 -64.8279 -64.8245 -64.8241 -31.6160 -31.6158 -31.6119 -31.6116
   -31.6067 -31.6064 -31.5849 -31.5847 -31.5830 -31.5827 -31.5705 -31.5703
    -8.5222  -8.5195  -7.9420  -7.9415   4.4175   4.4199   4.7566   4.7580
     5.0745   5.0795   6.5733   6.5750   6.5987   6.6020   7.0820   7.0830

          k =-0.4954 0.2523 0.2500 (  5144 PWs)   bands (ev):

   -64.8277 -64.8273 -64.8251 -64.8246 -31.6271 -31.6270 -31.6213 -31.6212
   -31.5900 -31.5898 -31.5833 -31.5832 -31.5793 -31.5792 -31.5720 -31.5718
    -8.4096  -8.4073  -7.9948  -7.9947   3.8232   3.8232   4.2113   4.2128
     5.8284   5.8285   6.7465   6.7467   6.8536   6.8548   7.0298   7.0318

          k =-0.4954 0.2523-0.5000 (  5148 PWs)   bands (ev):

   -64.8264 -64.8264 -64.8264 -64.8255 -31.6317 -31.6314 -31.6314 -31.6313
   -31.5801 -31.5799 -31.5798 -31.5797 -31.5759 -31.5757 -31.5756 -31.5756
    -8.1724  -8.1723  -8.1712  -8.1711   3.6513   3.6514   3.6521   3.6521
     6.5338   6.5339   6.5361   6.5363   7.0493   7.0494   7.0502   7.0503

          k =-0.4954-0.5047 0.0000 (  5192 PWs)   bands (ev):

   -64.8264 -64.8264 -64.8263 -64.8255 -31.6189 -31.6187 -31.6185 -31.6184
   -31.5964 -31.5963 -31.5961 -31.5959 -31.5745 -31.5743 -31.5742 -31.5741
    -8.2071  -8.2061  -8.2054  -8.2044   4.2924   4.2925   4.2933   4.2935
     5.7634   5.7656   5.7678   5.7700   7.0608   7.0618   7.0620   7.0630

          k =-0.4954-0.5047 0.2500 (  5136 PWs)   bands (ev):

   -64.8264 -64.8264 -64.8263 -64.8255 -31.6312 -31.6310 -31.6310 -31.6309
   -31.5838 -31.5836 -31.5836 -31.5835 -31.5721 -31.5719 -31.5718 -31.5717
    -8.1693  -8.1686  -8.1681  -8.1673   3.6391   3.6399   3.6401   3.6408
     6.5217   6.5230   6.5241   6.5255   7.0625   7.0632   7.0633   7.0641

          k =-0.4954-0.5047-0.5000 (  5128 PWs)   bands (ev):

   -64.8264 -64.8264 -64.8263 -64.8255 -31.6391 -31.6388 -31.6388 -31.6387
   -31.5787 -31.5785 -31.5785 -31.5784 -31.5690 -31.5688 -31.5688 -31.5686
    -8.1304  -8.1302  -8.1302  -8.1301   3.2171   3.2172   3.2172   3.2173
     7.0485   7.0485   7.0486   7.0487   7.0800   7.0801   7.0801   7.0802

          k = 0.0000-0.2523 0.2500 (  5143 PWs)   bands (ev):

   -64.8308 -64.8251 -64.8248 -64.8240 -31.6234 -31.6197 -31.6155 -31.6036
   -31.5997 -31.5984 -31.5889 -31.5851 -31.5815 -31.5811 -31.5799 -31.5638
    -8.9621  -8.0641  -8.0472  -7.9030   4.1548   4.1632   4.3082   5.0714
     5.8197   6.0453   6.0900   6.4420   6.4573   6.6140   7.1930   7.5013

          k =-0.2477 0.0000 0.2500 (  5151 PWs)   bands (ev):

   -64.8309 -64.8253 -64.8249 -64.8237 -31.6252 -31.6201 -31.6123 -31.6093
   -31.5943 -31.5910 -31.5898 -31.5883 -31.5862 -31.5854 -31.5708 -31.5680
    -8.9715  -8.0825  -8.0652  -7.8797   4.1586   4.1665   4.3501   5.0703
     5.8740   6.0213   6.0648   6.5121   6.5272   6.5526   7.1522   7.5080

          k =-0.2477 0.2523 0.0000 (  5150 PWs)   bands (ev):

   -64.8309 -64.8253 -64.8247 -64.8239 -31.6250 -31.6183 -31.6158 -31.6073
   -31.5945 -31.5925 -31.5916 -31.5902 -31.5850 -31.5811 -31.5742 -31.5657
    -8.9667  -8.0818  -8.0475  -7.8909   4.1534   4.1695   4.3278   5.0706
     5.8463   6.0111   6.0991   6.4684   6.4989   6.5847   7.1734   7.5042

          k =-0.2477-0.2523 0.2500 (  5149 PWs)   bands (ev):

   -64.8299 -64.8253 -64.8251 -64.8245 -31.6270 -31.6241 -31.6222 -31.6052
   -31.5942 -31.5930 -31.5920 -31.5863 -31.5811 -31.5785 -31.5747 -31.5655
    -8.7969  -8.0438  -8.0314  -8.0193   3.9968   3.9998   4.0040   5.0886
     5.8308   5.8448   5.8592   6.6783   6.7059   6.7315   7.3514   7.3576

          k =-0.2477 0.2523-0.2500 (  5149 PWs)   bands (ev):

   -64.8299 -64.8253 -64.8251 -64.8245 -31.6270 -31.6241 -31.6222 -31.6052
   -31.5942 -31.5930 -31.5920 -31.5863 -31.5811 -31.5785 -31.5747 -31.5655
    -8.7969  -8.0438  -8.0314  -8.0193   3.9968   3.9998   4.0040   5.0886
     5.8308   5.8448   5.8592   6.6783   6.7059   6.7315   7.3514   7.3576

          k = 0.2477-0.2523-0.2500 (  5149 PWs)   bands (ev):

   -64.8299 -64.8253 -64.8251 -64.8245 -31.6270 -31.6241 -31.6222 -31.6052
   -31.5942 -31.5930 -31.5920 -31.5863 -31.5811 -31.5785 -31.5747 -31.5655
    -8.7969  -8.0438  -8.0314  -8.0193   3.9968   3.9998   4.0040   5.0886
     5.8308   5.8448   5.8592   6.6783   6.7059   6.7315   7.3514   7.3576

          k =-0.2477 0.2523 0.5000 (  5140 PWs)   bands (ev):

   -64.8276 -64.8272 -64.8252 -64.8247 -31.6275 -31.6273 -31.6206 -31.6205
   -31.5931 -31.5928 -31.5814 -31.5812 -31.5784 -31.5783 -31.5718 -31.5716
    -8.3999  -8.3998  -7.9981  -7.9980   3.8215   3.8215   4.1974   4.1975
     5.8288   5.8289   6.7402   6.7405   6.8679   6.8680   7.0157   7.0158

          k =-0.2477 0.5047 0.2500 (  5140 PWs)   bands (ev):

   -64.8275 -64.8272 -64.8252 -64.8248 -31.6281 -31.6280 -31.6198 -31.6197
   -31.5952 -31.5950 -31.5812 -31.5811 -31.5760 -31.5759 -31.5727 -31.5726
    -8.3916  -8.3903  -8.0010  -8.0009   3.8190   3.8190   4.1821   4.1838
     5.8306   5.8307   6.7319   6.7321   6.8809   6.8812   6.9994   7.0007

          k = 0.4954-0.2523 0.2500 (  5144 PWs)   bands (ev):

   -64.8277 -64.8273 -64.8251 -64.8246 -31.6271 -31.6270 -31.6213 -31.6212
   -31.5900 -31.5898 -31.5833 -31.5832 -31.5793 -31.5792 -31.5720 -31.5718
    -8.4096  -8.4073  -7.9948  -7.9947   3.8232   3.8232   4.2113   4.2128
     5.8284   5.8285   6.7465   6.7467   6.8536   6.8548   7.0298   7.0318

     highest occupied level (ev):     7.6911

!    total energy              =    -608.39223731 Ry
     Harris-Foulkes estimate   =    -608.39223731 Ry
     estimated scf accuracy    <          1.1E-09 Ry

     The total energy is the sum of the following terms:

     one-electron contribution =    -303.61706951 Ry
     hartree contribution      =     168.09906368 Ry
     xc contribution           =     -97.84772556 Ry
     ewald contribution        =    -375.02650592 Ry

     convergence has been achieved in   5 iterations

     Forces acting on atoms (cartesian axes, Ry/au):

     atom    1 type  1   force =    -0.00034346   -0.00019033   -0.00000106
     atom    2 type  1   force =    -0.00053174    0.00004378    0.00000265
     atom    3 type  1   force =     0.00048640   -0.00000310    0.00000263
     atom    4 type  1   force =     0.00049920    0.00002578   -0.00000278
     atom    5 type  2   force =     0.00010635   -0.00036124    0.00000072
     atom    6 type  2   force =    -0.00015555    0.00040889    0.00000068
     atom    7 type  2   force =    -0.00014814   -0.00036852   -0.00000132
     atom    8 type  2   force =     0.00008694    0.00044475   -0.00000153

     Total force =     0.001273     Total SCF correction =     0.000311
     SCF correction compared to forces is large: reduce conv_thr to get better values


     Computing stress (Cartesian axis) and pressure

          total   stress  (Ry/bohr**3)                   (kbar)     P=  -67.54
  -0.00056337   0.00000001  -0.00000000        -82.87      0.00     -0.00
   0.00000001  -0.00034810   0.00000000          0.00    -51.21      0.00
  -0.00000000   0.00000000  -0.00046595         -0.00      0.00    -68.54


     number of scf cycles    =   4
     number of bfgs steps    =   3

     energy   old            =    -608.3921390569 Ry
     energy   new            =    -608.3922373080 Ry

     CASE: energy  _new < energy  _old

     new trust radius        =       0.0006487554 bohr
     new conv_thr            =       0.0000000005 Ry


ATOMIC_POSITIONS (alat)
Mg      -0.002055204   0.002234437  -0.000019920
Mg      -0.002143155   0.497706840   0.500020045
Mg       0.502099036   0.002334076   0.500020083
Mg       0.502057520   0.497741024  -0.000020719
O        0.502260789   0.002400046  -0.000021482
O       -0.002243836   0.497594292  -0.000021483
O       -0.002239967   0.002394113   0.500021727
O        0.502264816   0.497595174   0.500021749



     Writing output data file diamond.1.009286.70.4.save
     NEW-OLD atomic charge density approx. for the potential

     Check: negative/imaginary core charge=   -0.000008    0.000000

     total cpu time spent up to now is       43.5 secs

     per-process dynamical memory:    56.0 Mb

     Self-consistent Calculation

     iteration #  1     ecut=    70.00 Ry     beta=0.70
     Davidson diagonalization with overlap
     ethr =  1.00E-06,  avg # of iterations =  2.0

     Threshold (ethr) on eigenvalues was too large:
     Diagonalizing with lowered threshold

     Davidson diagonalization with overlap
     ethr =  2.28E-10,  avg # of iterations =  3.0

     total cpu time spent up to now is       46.9 secs

     total energy              =    -608.39223865 Ry
     Harris-Foulkes estimate   =    -608.39223879 Ry
[...]



     Writing output data file diamond.1.009286.70.4.save
     NEW-OLD atomic charge density approx. for the potential

     Check: negative/imaginary core charge=   -0.000008    0.000000

     total cpu time spent up to now is       62.8 secs

     per-process dynamical memory:    56.0 Mb

     Self-consistent Calculation

     iteration #  1     ecut=    70.00 Ry     beta=0.70
     Davidson diagonalization with overlap
     ethr =  1.00E-06,  avg # of iterations =  2.0

     Threshold (ethr) on eigenvalues was too large:
     Diagonalizing with lowered threshold

     Davidson diagonalization with overlap
     ethr =  3.20E-10,  avg # of iterations =  2.8

     total cpu time spent up to now is       66.2 secs

     total energy              =    -608.39224002 Ry
     Harris-Foulkes estimate   =    -608.39224020 Ry
     estimated scf accuracy    <       0.00000024 Ry

     iteration #  2     ecut=    70.00 Ry     beta=0.70
     Davidson diagonalization with overlap
     ethr =  3.81E-10,  avg # of iterations =  2.2

     total cpu time spent up to now is       67.7 secs

     total energy              =    -608.39224009 Ry
     Harris-Foulkes estimate   =    -608.39224012 Ry
     estimated scf accuracy    <       0.00000004 Ry

     iteration #  3     ecut=    70.00 Ry     beta=0.70
     Davidson diagonalization with overlap
     ethr =  6.43E-11,  avg # of iterations =  2.0

     total cpu time spent up to now is       69.1 secs

     total energy              =    -608.39224010 Ry
     Harris-Foulkes estimate   =    -608.39224010 Ry
     estimated scf accuracy    <          3.7E-10 Ry

     iteration #  4     ecut=    70.00 Ry     beta=0.70
     Davidson diagonalization with overlap
     ethr =  5.70E-13,  avg # of iterations =  2.7

     total cpu time spent up to now is       70.8 secs

     total energy              =    -608.39224010 Ry
     Harris-Foulkes estimate   =    -608.39224010 Ry
     estimated scf accuracy    <          1.0E-10 Ry

     iteration #  5     ecut=    70.00 Ry     beta=0.70
     Davidson diagonalization with overlap
     ethr =  1.62E-13,  avg # of iterations =  3.0

     total cpu time spent up to now is       72.5 secs

     End of self-consistent calculation

          k = 0.0000 0.0000 0.0000 (  5145 PWs)   bands (ev):

   -64.8335 -64.8242 -64.8238 -64.8232 -31.6346 -31.6289 -31.6242 -31.5981
   -31.5959 -31.5939 -31.5903 -31.5864 -31.5863 -31.5720 -31.5643 -31.5581
    -9.3655  -7.9391  -7.9146  -7.8907   3.7281   3.7580   3.7897   6.3137
     6.3243   6.3712   6.3877   6.4382   6.4456   7.6495   7.6724   7.6911

          k = 0.0000 0.0000 0.2500 (  5157 PWs)   bands (ev):

   -64.8321 -64.8252 -64.8241 -64.8234 -31.6287 -31.6197 -31.6177 -31.6036
   -31.5945 -31.5926 -31.5909 -31.5908 -31.5834 -31.5771 -31.5762 -31.5650
    -9.1571  -8.1295  -7.9038  -7.8693   4.0202   4.0776   4.0946   5.8430
     5.8722   6.1251   6.2156   6.4897   6.5967   6.6591   7.4208   7.4774

          k = 0.0000 0.0000-0.5000 (  5134 PWs)   bands (ev):

   -64.8288 -64.8284 -64.8240 -64.8235 -31.6157 -31.6154 -31.6026 -31.6023
   -31.6006 -31.6006 -31.5903 -31.5903 -31.5855 -31.5853 -31.5748 -31.5745
    -8.6469  -8.6468  -7.8579  -7.8578   4.8239   4.8240   4.8713   4.8714
     5.1226   5.1229   5.9731   5.9734   6.9250   6.9251   7.0096   7.0097

          k = 0.0000 0.2523 0.0000 (  5161 PWs)   bands (ev):

   -64.8320 -64.8250 -64.8242 -64.8236 -31.6284 -31.6228 -31.6153 -31.6018
   -31.5954 -31.5952 -31.5901 -31.5876 -31.5866 -31.5765 -31.5711 -31.5708
    -9.1516  -8.1065  -7.9043  -7.8868   4.0266   4.0540   4.1102   5.8947
     5.9083   6.1120   6.1564   6.4836   6.5365   6.6389   7.4376   7.4646

          k = 0.0000 0.2523 0.2500 (  5143 PWs)   bands (ev):

   -64.8308 -64.8251 -64.8248 -64.8240 -31.6234 -31.6197 -31.6155 -31.6036
   -31.5997 -31.5984 -31.5889 -31.5851 -31.5815 -31.5811 -31.5799 -31.5638
    -8.9621  -8.0642  -8.0472  -7.9030   4.1548   4.1632   4.3082   5.0714
     5.8197   6.0453   6.0900   6.4420   6.4572   6.6140   7.1930   7.5013

          k = 0.0000 0.2523-0.5000 (  5142 PWs)   bands (ev):

   -64.8281 -64.8277 -64.8247 -64.8242 -31.6135 -31.6133 -31.6113 -31.6110
   -31.6082 -31.6082 -31.5896 -31.5893 -31.5800 -31.5800 -31.5695 -31.5693
    -8.5075  -8.5074  -7.9447  -7.9446   4.4051   4.4052   4.7287   4.7289
     5.0803   5.0803   6.5681   6.5683   6.6043   6.6043   7.0774   7.0774

          k = 0.0000-0.5047 0.0000 (  5142 PWs)   bands (ev):

   -64.8287 -64.8283 -64.8241 -64.8237 -31.6149 -31.6147 -31.6084 -31.6082
   -31.5950 -31.5949 -31.5865 -31.5863 -31.5860 -31.5860 -31.5803 -31.5801
    -8.6308  -8.6300  -7.8639  -7.8638   4.8484   4.8498   4.8708   4.8722
     5.1133   5.1139   5.9255   5.9258   6.9294   6.9302   6.9705   6.9713

          k = 0.0000-0.5047 0.2500 (  5144 PWs)   bands (ev):

   -64.8280 -64.8276 -64.8248 -64.8243 -31.6152 -31.6150 -31.6108 -31.6106
   -31.6063 -31.6062 -31.5909 -31.5907 -31.5776 -31.5776 -31.5719 -31.5718
    -8.4970  -8.4963  -7.9502  -7.9501   4.4037   4.4043   4.7215   4.7221
     5.0981   5.0995   6.5407   6.5412   6.5784   6.5793   7.0874   7.0877

          k = 0.0000-0.5047-0.5000 (  5152 PWs)   bands (ev):

   -64.8264 -64.8264 -64.8264 -64.8255 -31.6167 -31.6165 -31.6164 -31.6164
   -31.6012 -31.6011 -31.6010 -31.6008 -31.5701 -31.5699 -31.5699 -31.5698
    -8.2000  -8.1999  -8.1995  -8.1995   4.2578   4.2579   4.2580   4.2581
     5.7702   5.7703   5.7714   5.7714   7.0765   7.0766   7.0768   7.0770

          k = 0.2477 0.0000 0.0000 (  5158 PWs)   bands (ev):

   -64.8321 -64.8255 -64.8238 -64.8233 -31.6260 -31.6233 -31.6181 -31.5989
   -31.5987 -31.5972 -31.5924 -31.5869 -31.5838 -31.5816 -31.5699 -31.5637
    -9.1623  -8.1527  -7.8854  -7.8683   4.0415   4.0713   4.0785   5.8067
     5.8222   6.1836   6.2295   6.5474   6.6009   6.6761   7.4337   7.4631

          k = 0.2477 0.0000 0.2500 (  5151 PWs)   bands (ev):

   -64.8309 -64.8253 -64.8249 -64.8237 -31.6252 -31.6201 -31.6123 -31.6093
   -31.5943 -31.5910 -31.5898 -31.5883 -31.5862 -31.5854 -31.5708 -31.5680
    -8.9715  -8.0826  -8.0652  -7.8797   4.1586   4.1665   4.3500   5.0703
     5.8740   6.0213   6.0648   6.5121   6.5272   6.5526   7.1522   7.5080

          k = 0.2477 0.0000-0.5000 (  5164 PWs)   bands (ev):

   -64.8281 -64.8277 -64.8247 -64.8242 -31.6204 -31.6202 -31.6104 -31.6103
   -31.5992 -31.5989 -31.5851 -31.5851 -31.5795 -31.5794 -31.5789 -31.5786
    -8.5134  -8.5133  -7.9515  -7.9514   4.4309   4.4309   4.7727   4.7729
     5.1130   5.1131   6.5263   6.5265   6.5465   6.5466   7.1096   7.1097

          k = 0.2477 0.2523 0.0000 (  5150 PWs)   bands (ev):

   -64.8309 -64.8253 -64.8247 -64.8239 -31.6250 -31.6183 -31.6158 -31.6073
   -31.5945 -31.5926 -31.5916 -31.5902 -31.5850 -31.5811 -31.5742 -31.5657
    -8.9667  -8.0818  -8.0476  -7.8910   4.1534   4.1695   4.3278   5.0706
     5.8463   6.0110   6.0991   6.4684   6.4989   6.5846   7.1733   7.5042

          k = 0.2477 0.2523 0.2500 (  5149 PWs)   bands (ev):

   -64.8299 -64.8253 -64.8251 -64.8245 -31.6270 -31.6241 -31.6222 -31.6052
   -31.5942 -31.5930 -31.5920 -31.5863 -31.5811 -31.5785 -31.5747 -31.5655
    -8.7969  -8.0439  -8.0315  -8.0194   3.9968   3.9998   4.0040   5.0886
     5.8308   5.8448   5.8591   6.6782   6.7059   6.7315   7.3514   7.3576

          k = 0.2477 0.2523-0.5000 (  5140 PWs)   bands (ev):

   -64.8276 -64.8272 -64.8252 -64.8247 -31.6275 -31.6273 -31.6206 -31.6205
   -31.5931 -31.5929 -31.5814 -31.5812 -31.5784 -31.5783 -31.5718 -31.5716
    -8.3999  -8.3998  -7.9981  -7.9980   3.8215   3.8215   4.1973   4.1975
     5.8288   5.8289   6.7402   6.7404   6.8678   6.8680   7.0157   7.0157

          k = 0.2477-0.5047 0.0000 (  5140 PWs)   bands (ev):

   -64.8280 -64.8276 -64.8248 -64.8243 -31.6184 -31.6182 -31.6080 -31.6079
   -31.6048 -31.6046 -31.5850 -31.5848 -31.5795 -31.5794 -31.5759 -31.5758
    -8.4998  -8.4991  -7.9535  -7.9533   4.4176   4.4182   4.7436   4.7441
     5.1132   5.1146   6.5196   6.5201   6.5501   6.5511   7.1028   7.1031

          k = 0.2477-0.5047 0.2500 (  5140 PWs)   bands (ev):

   -64.8275 -64.8272 -64.8252 -64.8248 -31.6281 -31.6280 -31.6198 -31.6197
   -31.5952 -31.5950 -31.5812 -31.5811 -31.5760 -31.5759 -31.5727 -31.5726
    -8.3913  -8.3907  -8.0010  -8.0009   3.8189   3.8190   4.1827   4.1832
     5.8306   5.8307   6.7319   6.7321   6.8809   6.8812   6.9997   7.0003

          k = 0.2477-0.5047-0.5000 (  5136 PWs)   bands (ev):

   -64.8264 -64.8264 -64.8264 -64.8255 -31.6306 -31.6303 -31.6303 -31.6302
   -31.5865 -31.5863 -31.5863 -31.5862 -31.5701 -31.5699 -31.5699 -31.5698
    -8.1655  -8.1653  -8.1651  -8.1650   3.6282   3.6282   3.6284   3.6285
     6.5122   6.5122   6.5129   6.5129   7.0771   7.0772   7.0773   7.0775

          k =-0.4954 0.0000 0.0000 (  5158 PWs)   bands (ev):

   -64.8290 -64.8286 -64.8238 -64.8234 -31.6104 -31.6102 -31.6065 -31.6064
   -31.6039 -31.6037 -31.5982 -31.5982 -31.5788 -31.5786 -31.5740 -31.5738
    -8.6633  -8.6624  -7.8509  -7.8508   4.8210   4.8225   4.8461   4.8476
     5.1294   5.1299   6.0187   6.0190   6.9624   6.9632   7.0059   7.0067

          k =-0.4954 0.0000 0.2500 (  5160 PWs)   bands (ev):

   -64.8282 -64.8279 -64.8246 -64.8241 -31.6180 -31.6179 -31.6124 -31.6123
   -31.6003 -31.6000 -31.5879 -31.5878 -31.5782 -31.5780 -31.5761 -31.5760
    -8.5244  -8.5236  -7.9454  -7.9453   4.4306   4.4314   4.7790   4.7794
     5.0939   5.0954   6.5535   6.5540   6.5705   6.5715   7.0993   7.0996

          k =-0.4954 0.0000-0.5000 (  5196 PWs)   bands (ev):

   -64.8264 -64.8264 -64.8264 -64.8256 -31.6205 -31.6203 -31.6202 -31.6201
   -31.5895 -31.5894 -31.5893 -31.5891 -31.5793 -31.5791 -31.5790 -31.5790
    -8.2129  -8.2128  -8.2124  -8.2123   4.3277   4.3279   4.3279   4.3280
     5.7639   5.7639   5.7652   5.7653   7.0481   7.0483   7.0485   7.0487

          k =-0.4954 0.2523 0.0000 (  5152 PWs)   bands (ev):

   -64.8282 -64.8279 -64.8246 -64.8241 -31.6159 -31.6158 -31.6118 -31.6117
   -31.6067 -31.6064 -31.5848 -31.5848 -31.5830 -31.5828 -31.5705 -31.5703
    -8.5213  -8.5205  -7.9418  -7.9417   4.4183   4.4190   4.7571   4.7575
     5.0762   5.0778   6.5739   6.5744   6.5998   6.6008   7.0823   7.0826

          k =-0.4954 0.2523 0.2500 (  5144 PWs)   bands (ev):

   -64.8277 -64.8274 -64.8251 -64.8246 -31.6271 -31.6270 -31.6213 -31.6213
   -31.5900 -31.5898 -31.5833 -31.5833 -31.5793 -31.5792 -31.5720 -31.5718
    -8.4088  -8.4081  -7.9948  -7.9947   3.8232   3.8232   4.2118   4.2123
     5.8284   5.8285   6.7465   6.7467   6.8540   6.8543   7.0305   7.0311

          k =-0.4954 0.2523-0.5000 (  5148 PWs)   bands (ev):

   -64.8264 -64.8264 -64.8264 -64.8255 -31.6317 -31.6314 -31.6314 -31.6313
   -31.5801 -31.5799 -31.5798 -31.5797 -31.5759 -31.5757 -31.5756 -31.5756
    -8.1720  -8.1719  -8.1716  -8.1715   3.6516   3.6517   3.6518   3.6519
     6.5346   6.5347   6.5353   6.5354   7.0495   7.0497   7.0498   7.0500

          k =-0.4954-0.5047 0.0000 (  5192 PWs)   bands (ev):

   -64.8264 -64.8264 -64.8264 -64.8255 -31.6188 -31.6187 -31.6185 -31.6184
   -31.5964 -31.5962 -31.5962 -31.5960 -31.5745 -31.5743 -31.5742 -31.5741
    -8.2063  -8.2059  -8.2058  -8.2053   4.2928   4.2929   4.2930   4.2931
     5.7654   5.7665   5.7668   5.7679   7.0615   7.0619   7.0619   7.0623

          k =-0.4954-0.5047 0.2500 (  5136 PWs)   bands (ev):

   -64.8264 -64.8264 -64.8264 -64.8255 -31.6312 -31.6310 -31.6310 -31.6309
   -31.5838 -31.5836 -31.5836 -31.5835 -31.5721 -31.5719 -31.5718 -31.5717
    -8.1687  -8.1684  -8.1683  -8.1680   3.6397   3.6399   3.6400   3.6402
     6.5228   6.5234   6.5237   6.5243   7.0630   7.0632   7.0633   7.0635

          k =-0.4954-0.5047-0.5000 (  5128 PWs)   bands (ev):

   -64.8264 -64.8264 -64.8263 -64.8255 -31.6391 -31.6388 -31.6388 -31.6387
   -31.5787 -31.5785 -31.5785 -31.5784 -31.5690 -31.5688 -31.5688 -31.5686
    -8.1304  -8.1302  -8.1302  -8.1302   3.2171   3.2172   3.2172   3.2172
     7.0484   7.0485   7.0486   7.0487   7.0799   7.0800   7.0801   7.0802

          k = 0.0000-0.2523 0.2500 (  5143 PWs)   bands (ev):

   -64.8308 -64.8251 -64.8248 -64.8240 -31.6234 -31.6197 -31.6155 -31.6036
   -31.5997 -31.5984 -31.5889 -31.5851 -31.5815 -31.5811 -31.5799 -31.5638
    -8.9621  -8.0642  -8.0472  -7.9030   4.1548   4.1632   4.3082   5.0714
     5.8197   6.0453   6.0900   6.4420   6.4572   6.6140   7.1930   7.5013

          k =-0.2477 0.0000 0.2500 (  5151 PWs)   bands (ev):

   -64.8309 -64.8253 -64.8249 -64.8237 -31.6252 -31.6201 -31.6123 -31.6093
   -31.5943 -31.5910 -31.5898 -31.5883 -31.5862 -31.5854 -31.5708 -31.5680
    -8.9715  -8.0826  -8.0652  -7.8797   4.1586   4.1665   4.3500   5.0703
     5.8740   6.0213   6.0648   6.5121   6.5272   6.5526   7.1522   7.5080

          k =-0.2477 0.2523 0.0000 (  5150 PWs)   bands (ev):

   -64.8309 -64.8253 -64.8247 -64.8239 -31.6250 -31.6183 -31.6158 -31.6073
   -31.5945 -31.5925 -31.5916 -31.5902 -31.5850 -31.5811 -31.5742 -31.5657
    -8.9667  -8.0818  -8.0476  -7.8910   4.1534   4.1695   4.3278   5.0706
     5.8463   6.0110   6.0991   6.4684   6.4989   6.5846   7.1733   7.5042

          k =-0.2477-0.2523 0.2500 (  5149 PWs)   bands (ev):

   -64.8299 -64.8253 -64.8251 -64.8245 -31.6270 -31.6241 -31.6222 -31.6052
   -31.5942 -31.5930 -31.5920 -31.5863 -31.5811 -31.5785 -31.5747 -31.5655
    -8.7969  -8.0439  -8.0315  -8.0194   3.9968   3.9998   4.0040   5.0886
     5.8308   5.8448   5.8591   6.6782   6.7059   6.7315   7.3514   7.3576

          k =-0.2477 0.2523-0.2500 (  5149 PWs)   bands (ev):

   -64.8299 -64.8253 -64.8251 -64.8245 -31.6270 -31.6241 -31.6222 -31.6052
   -31.5942 -31.5930 -31.5920 -31.5863 -31.5811 -31.5785 -31.5747 -31.5655
    -8.7969  -8.0439  -8.0315  -8.0194   3.9968   3.9998   4.0040   5.0886
     5.8308   5.8448   5.8591   6.6782   6.7058   6.7315   7.3514   7.3576

          k = 0.2477-0.2523-0.2500 (  5149 PWs)   bands (ev):

   -64.8299 -64.8253 -64.8251 -64.8245 -31.6270 -31.6241 -31.6222 -31.6052
   -31.5942 -31.5930 -31.5920 -31.5863 -31.5811 -31.5785 -31.5747 -31.5655
    -8.7969  -8.0439  -8.0315  -8.0194   3.9968   3.9998   4.0040   5.0886
     5.8308   5.8448   5.8591   6.6782   6.7058   6.7315   7.3514   7.3576

          k =-0.2477 0.2523 0.5000 (  5140 PWs)   bands (ev):

   -64.8276 -64.8272 -64.8252 -64.8247 -31.6275 -31.6273 -31.6206 -31.6205
   -31.5931 -31.5928 -31.5814 -31.5812 -31.5784 -31.5783 -31.5718 -31.5716
    -8.3999  -8.3998  -7.9981  -7.9980   3.8215   3.8215   4.1973   4.1975
     5.8288   5.8289   6.7402   6.7404   6.8678   6.8680   7.0157   7.0157

          k =-0.2477 0.5047 0.2500 (  5140 PWs)   bands (ev):

   -64.8275 -64.8272 -64.8252 -64.8248 -31.6281 -31.6280 -31.6198 -31.6197
   -31.5952 -31.5950 -31.5812 -31.5811 -31.5760 -31.5759 -31.5727 -31.5726
    -8.3913  -8.3907  -8.0010  -8.0009   3.8189   3.8190   4.1827   4.1832
     5.8306   5.8307   6.7319   6.7321   6.8809   6.8812   6.9997   7.0003

          k = 0.4954-0.2523 0.2500 (  5144 PWs)   bands (ev):

   -64.8277 -64.8274 -64.8251 -64.8246 -31.6271 -31.6270 -31.6213 -31.6213
   -31.5900 -31.5898 -31.5833 -31.5833 -31.5793 -31.5792 -31.5720 -31.5718
    -8.4088  -8.4081  -7.9948  -7.9947   3.8232   3.8232   4.2118   4.2123
     5.8284   5.8285   6.7465   6.7467   6.8540   6.8543   7.0305   7.0311

     highest occupied level (ev):     7.6911

!    total energy              =    -608.39224010 Ry
     Harris-Foulkes estimate   =    -608.39224010 Ry
     estimated scf accuracy    <          1.4E-11 Ry

     The total energy is the sum of the following terms:

     one-electron contribution =    -303.61660409 Ry
     hartree contribution      =     168.09889031 Ry
     xc contribution           =     -97.84774944 Ry
     ewald contribution        =    -375.02677689 Ry

     convergence has been achieved in   5 iterations

     Forces acting on atoms (cartesian axes, Ry/au):

     atom    1 type  1   force =     0.00005450   -0.00004625    0.00000060
     atom    2 type  1   force =    -0.00002406    0.00001637   -0.00000009
     atom    3 type  1   force =     0.00000730    0.00000057   -0.00000011
     atom    4 type  1   force =     0.00001514    0.00001208    0.00000004
     atom    5 type  2   force =     0.00000101    0.00001884   -0.00000007
     atom    6 type  2   force =    -0.00001434   -0.00003062   -0.00000006
     atom    7 type  2   force =    -0.00001461    0.00002006   -0.00000000
     atom    8 type  2   force =    -0.00002494    0.00000895   -0.00000031

     Total force =     0.000096     Total SCF correction =     0.000020
     SCF correction compared to forces is large: reduce conv_thr to get better values


     Computing stress (Cartesian axis) and pressure

          total   stress  (Ry/bohr**3)                   (kbar)     P=  -67.52
  -0.00056328   0.00000001  -0.00000000        -82.86      0.00     -0.00
   0.00000001  -0.00034796   0.00000000          0.00    -51.19      0.00
  -0.00000000   0.00000000  -0.00046581         -0.00      0.00    -68.52


     bfgs converged in   7 scf cycles and   6 bfgs steps
     (criteria: energy <  1.0E-05 Ry, force <  1.0E-04 Ry/Bohr)

     End of BFGS Geometry Optimization

     Final energy   =    -608.3922401018 Ry
Begin final coordinates

ATOMIC_POSITIONS (alat)
Mg      -0.002144188   0.002164217  -0.000020056
Mg      -0.002313546   0.497722794   0.500020834
Mg       0.502250878   0.002334877   0.500020862
Mg       0.502215366   0.497750099  -0.000021553
O        0.502293043   0.002301573  -0.000021323
O       -0.002296431   0.497704862  -0.000021328
O       -0.002290460   0.002292920   0.500021346
O        0.502285339   0.497728659   0.500021218
End final coordinates



     Writing output data file diamond.1.009286.70.4.save
 
     init_run     :      0.62s CPU      0.65s WALL (       1 calls)
     electrons    :     65.70s CPU     66.82s WALL (       7 calls)
     update_pot   :      0.65s CPU      0.66s WALL (       6 calls)
     forces       :      1.32s CPU      1.32s WALL (       7 calls)
     stress       :      3.00s CPU      3.00s WALL (       7 calls)

     Called by init_run:
     wfcinit      :      0.50s CPU      0.53s WALL (       1 calls)
     potinit      :      0.05s CPU      0.05s WALL (       1 calls)

     Called by electrons:
     c_bands      :     57.69s CPU     58.59s WALL (      41 calls)
     sum_band     :      7.74s CPU      7.93s WALL (      41 calls)
     v_of_rho     :      0.23s CPU      0.24s WALL (      45 calls)
     mix_rho      :      0.03s CPU      0.03s WALL (      41 calls)

     Called by c_bands:
     init_us_2    :      0.84s CPU      0.86s WALL (    3492 calls)
     cegterg      :     53.81s CPU     54.68s WALL (    1476 calls)

     Called by sum_band:

     Called by *egterg:
     h_psi        :     39.37s CPU     40.22s WALL (    5008 calls)
     g_psi        :      0.30s CPU      0.30s WALL (    3496 calls)
     cdiaghg      :      7.67s CPU      7.68s WALL (    4648 calls)

     Called by h_psi:
     h_psi:pot    :     39.20s CPU     40.02s WALL (    5008 calls)
     h_psi:calbec :      2.18s CPU      2.20s WALL (    5008 calls)
     vloc_psi     :     35.19s CPU     35.98s WALL (    5008 calls)
     add_vuspsi   :      1.82s CPU      1.83s WALL (    5008 calls)

     General routines
     calbec       :      2.88s CPU      2.89s WALL (    6268 calls)
     fft          :      0.18s CPU      0.18s WALL (     675 calls)
     fftw         :     38.66s CPU     39.14s WALL (  302870 calls)
     davcio       :      0.00s CPU      0.01s WALL (      36 calls)
 
     Parallel routines
     fft_scatter  :     10.84s CPU     10.43s WALL (  303545 calls)
 
     PWSCF        :  1m11.85s CPU     1m13.20s WALL

 
   This run was terminated on:  16:24:18  22Apr2018            

=------------------------------------------------------------------------------=
   JOB DONE.
=------------------------------------------------------------------------------=
