
     Program PWSCF v.6.1 (svn rev. 13369) starts on 22Apr2018 at 16:15: 5 

     This program is part of the open-source Quantum ESPRESSO suite
     for quantum simulation of materials; please cite
         "P. Giannozzi et al., J. Phys.:Condens. Matter 21 395502 (2009);
          URL http://www.quantum-espresso.org", 
     in publications or presentations arising from this work. More details at
     http://www.quantum-espresso.org/quote

     Parallel version (MPI), running on     8 processors
     R & G space division:  proc/nbgrp/npool/nimage =       8
     Waiting for input...
     Reading input from standard input
Warning: card       &CELL ignored
Warning: card       CELL_DYNAMICS = 'BFGS' ignored
Warning: card       PRESS = 0.0D0 ignored
Warning: card       PRESS_CONV_THR = 0.01D0 ignored
Warning: card       / ignored

     Current dimensions of program PWSCF are:
     Max number of different atomic species (ntypx) = 10
     Max number of k-points (npk) =  40000
     Max angular momentum in pseudopotentials (lmaxx) =  3

     Subspace diagonalization in iterative solution of the eigenvalue problem:
     a serial algorithm will be used

 
     Parallelization info
     --------------------
     sticks:   dense  smooth     PW     G-vecs:    dense   smooth      PW
     Min         180     180     52                 5153     5153     816
     Max         182     182     53                 5155     5155     819
     Sum        1445    1445    421                41231    41231    6547
 


     bravais-lattice index     =            0
     lattice parameter (alat)  =       8.0448  a.u.
     unit-cell volume          =     520.6402 (a.u.)^3
     number of atoms/cell      =            8
     number of atomic types    =            2
     number of electrons       =        64.00
     number of Kohn-Sham states=           32
     kinetic-energy cutoff     =      70.0000  Ry
     charge density cutoff     =     280.0000  Ry
     convergence threshold     =      1.0E-08
     mixing beta               =       0.7000
     number of iterations used =            8  plain     mixing
     Exchange-correlation      = PBE ( 1  4  3  4 0 0)
     nstep                     =           50


     celldm(1)=   8.044750  celldm(2)=   0.000000  celldm(3)=   0.000000
     celldm(4)=   0.000000  celldm(5)=   0.000000  celldm(6)=   0.000000

     crystal axes: (cart. coord. in units of alat)
               a(1) = (   1.004286   0.000000   0.000000 )  
               a(2) = (   0.000000   0.995714   0.000000 )  
               a(3) = (   0.000000   0.000000   1.000018 )  

     reciprocal axes: (cart. coord. in units 2 pi/alat)
               b(1) = (  0.995732  0.000000  0.000000 )  
               b(2) = (  0.000000  1.004304  0.000000 )  
               b(3) = (  0.000000  0.000000  0.999982 )  


     PseudoPot. # 1 for Mg read from file:
     ../pseudo/Mg.pbe.UPF
     MD5 check sum: 4c04d8c6e0476e83eaecaf72fa8acc4d
     Pseudo is Norm-conserving, Zval = 10.0
     Generated using ONCVPSP code by D. R. Hamann
     Using radial grid of 1510 points,  4 beta functions with: 
                l(1) =   0
                l(2) =   0
                l(3) =   1
                l(4) =   1

     PseudoPot. # 2 for O  read from file:
     ../pseudo/O.pbe.UPF
     MD5 check sum: 3e3f909f7470e8921608ab6b1f57bbae
     Pseudo is Norm-conserving + core correction, Zval =  6.0
     Generated using ONCVPSP code by D. R. Hamann
     Using radial grid of  936 points,  5 beta functions with: 
                l(1) =   0
                l(2) =   0
                l(3) =   1
                l(4) =   1
                l(5) =   2

     atomic species   valence    mass     pseudopotential
        Mg            10.00    24.30500     Mg( 1.00)
        O              6.00    15.99940     O ( 1.00)

     No symmetry found



   Cartesian axes

     site n.     atom                  positions (alat units)
         1           Mg  tau(   1) = (   0.0000000   0.0000000   0.0000000  )
         2           Mg  tau(   2) = (   0.0000000   0.5000000   0.5000000  )
         3           Mg  tau(   3) = (   0.5000000   0.0000000   0.5000000  )
         4           Mg  tau(   4) = (   0.5000000   0.5000000   0.0000000  )
         5           O   tau(   5) = (   0.5000000   0.0000000   0.0000000  )
         6           O   tau(   6) = (   0.0000000   0.5000000   0.0000000  )
         7           O   tau(   7) = (   0.0000000   0.0000000   0.5000000  )
         8           O   tau(   8) = (   0.5000000   0.5000000   0.5000000  )

     number of k points=    36
                       cart. coord. in units 2pi/alat
        k(    1) = (   0.0000000   0.0000000   0.0000000), wk =   0.0312500
        k(    2) = (   0.0000000   0.0000000   0.2499954), wk =   0.0625000
        k(    3) = (   0.0000000   0.0000000  -0.4999908), wk =   0.0312500
        k(    4) = (   0.0000000   0.2510761   0.0000000), wk =   0.0625000
        k(    5) = (   0.0000000   0.2510761   0.2499954), wk =   0.0625000
        k(    6) = (   0.0000000   0.2510761  -0.4999908), wk =   0.0625000
        k(    7) = (   0.0000000  -0.5021522   0.0000000), wk =   0.0312500
        k(    8) = (   0.0000000  -0.5021522   0.2499954), wk =   0.0625000
        k(    9) = (   0.0000000  -0.5021522  -0.4999908), wk =   0.0312500
        k(   10) = (   0.2489331   0.0000000   0.0000000), wk =   0.0625000
        k(   11) = (   0.2489331   0.0000000   0.2499954), wk =   0.0625000
        k(   12) = (   0.2489331   0.0000000  -0.4999908), wk =   0.0625000
        k(   13) = (   0.2489331   0.2510761   0.0000000), wk =   0.0625000
        k(   14) = (   0.2489331   0.2510761   0.2499954), wk =   0.0625000
        k(   15) = (   0.2489331   0.2510761  -0.4999908), wk =   0.0625000
        k(   16) = (   0.2489331  -0.5021522   0.0000000), wk =   0.0625000
        k(   17) = (   0.2489331  -0.5021522   0.2499954), wk =   0.0625000
        k(   18) = (   0.2489331  -0.5021522  -0.4999908), wk =   0.0625000
        k(   19) = (  -0.4978661   0.0000000   0.0000000), wk =   0.0312500
        k(   20) = (  -0.4978661   0.0000000   0.2499954), wk =   0.0625000
        k(   21) = (  -0.4978661   0.0000000  -0.4999908), wk =   0.0312500
        k(   22) = (  -0.4978661   0.2510761   0.0000000), wk =   0.0625000
        k(   23) = (  -0.4978661   0.2510761   0.2499954), wk =   0.0625000
        k(   24) = (  -0.4978661   0.2510761  -0.4999908), wk =   0.0625000
        k(   25) = (  -0.4978661  -0.5021522   0.0000000), wk =   0.0312500
        k(   26) = (  -0.4978661  -0.5021522   0.2499954), wk =   0.0625000
        k(   27) = (  -0.4978661  -0.5021522  -0.4999908), wk =   0.0312500
        k(   28) = (   0.0000000  -0.2510761   0.2499954), wk =   0.0625000
        k(   29) = (  -0.2489331   0.0000000   0.2499954), wk =   0.0625000
        k(   30) = (  -0.2489331   0.2510761   0.0000000), wk =   0.0625000
        k(   31) = (  -0.2489331  -0.2510761   0.2499954), wk =   0.0625000
        k(   32) = (  -0.2489331   0.2510761  -0.2499954), wk =   0.0625000
        k(   33) = (   0.2489331  -0.2510761  -0.2499954), wk =   0.0625000
        k(   34) = (  -0.2489331   0.2510761   0.4999908), wk =   0.0625000
        k(   35) = (  -0.2489331   0.5021522   0.2499954), wk =   0.0625000
        k(   36) = (   0.4978661  -0.2510761   0.2499954), wk =   0.0625000

     Dense  grid:    41231 G-vectors     FFT dimensions: (  45,  45,  45)

     Estimated max dynamical RAM per process >      17.22MB

     Estimated total allocated dynamical RAM >     137.72MB

     Check: negative/imaginary core charge=   -0.000007    0.000000

     Initial potential from superposition of free atoms

     starting charge   63.99678, renormalised to   64.00000
     Starting wfc are   36 randomized atomic wfcs

     total cpu time spent up to now is        0.8 secs

     per-process dynamical memory:    51.3 Mb

     Self-consistent Calculation

     iteration #  1     ecut=    70.00 Ry     beta=0.70
     Davidson diagonalization with overlap
     ethr =  1.00E-02,  avg # of iterations =  2.0

     total cpu time spent up to now is        2.3 secs

     total energy              =    -607.71963108 Ry
     Harris-Foulkes estimate   =    -608.84364699 Ry
     estimated scf accuracy    <       1.56189194 Ry

     iteration #  2     ecut=    70.00 Ry     beta=0.70
     Davidson diagonalization with overlap
     ethr =  2.44E-03,  avg # of iterations =  2.9

     total cpu time spent up to now is        4.0 secs

     total energy              =    -608.10547768 Ry
     Harris-Foulkes estimate   =    -608.80316489 Ry
     estimated scf accuracy    <       1.44838012 Ry

     iteration #  3     ecut=    70.00 Ry     beta=0.70
     Davidson diagonalization with overlap
     ethr =  2.26E-03,  avg # of iterations =  2.0

     total cpu time spent up to now is        5.5 secs

     total energy              =    -608.39099591 Ry
     Harris-Foulkes estimate   =    -608.39165681 Ry
     estimated scf accuracy    <       0.00675522 Ry

     iteration #  4     ecut=    70.00 Ry     beta=0.70
     Davidson diagonalization with overlap
     ethr =  1.06E-05,  avg # of iterations =  2.0

     total cpu time spent up to now is        7.0 secs

     total energy              =    -608.39247508 Ry
     Harris-Foulkes estimate   =    -608.39251965 Ry
     estimated scf accuracy    <       0.00011098 Ry

     iteration #  5     ecut=    70.00 Ry     beta=0.70
     Davidson diagonalization with overlap
     ethr =  1.73E-07,  avg # of iterations =  1.7

     total cpu time spent up to now is        8.2 secs

     total energy              =    -608.39248266 Ry
     Harris-Foulkes estimate   =    -608.39248114 Ry
     estimated scf accuracy    <       0.00001035 Ry

     iteration #  6     ecut=    70.00 Ry     beta=0.70
     Davidson diagonalization with overlap
     ethr =  1.62E-08,  avg # of iterations =  2.0

     total cpu time spent up to now is        9.9 secs

     total energy              =    -608.39248411 Ry
     Harris-Foulkes estimate   =    -608.39248460 Ry
     estimated scf accuracy    <       0.00000111 Ry

     iteration #  7     ecut=    70.00 Ry     beta=0.70
     Davidson diagonalization with overlap
     ethr =  1.73E-09,  avg # of iterations =  2.0

     total cpu time spent up to now is       11.4 secs

     total energy              =    -608.39248417 Ry
     Harris-Foulkes estimate   =    -608.39248427 Ry
     estimated scf accuracy    <       0.00000027 Ry

     iteration #  8     ecut=    70.00 Ry     beta=0.70
     Davidson diagonalization with overlap
     ethr =  4.16E-10,  avg # of iterations =  2.0

     total cpu time spent up to now is       12.8 secs

     total energy              =    -608.39248417 Ry
     Harris-Foulkes estimate   =    -608.39248420 Ry
     estimated scf accuracy    <       0.00000005 Ry

     iteration #  9     ecut=    70.00 Ry     beta=0.70
     Davidson diagonalization with overlap
     ethr =  8.36E-11,  avg # of iterations =  2.0

     total cpu time spent up to now is       14.6 secs

     End of self-consistent calculation

          k = 0.0000 0.0000 0.0000 (  5153 PWs)   bands (ev):

   -64.8339 -64.8245 -64.8244 -64.8236 -31.6326 -31.6304 -31.6282 -31.5955
   -31.5945 -31.5938 -31.5919 -31.5911 -31.5901 -31.5676 -31.5633 -31.5610
    -9.3652  -7.9254  -7.9142  -7.9030   3.7441   3.7575   3.7721   6.3493
     6.3535   6.3759   6.3835   6.4067   6.4102   7.6619   7.6724   7.6814

          k = 0.0000 0.0000 0.2500 (  5161 PWs)   bands (ev):

   -64.8325 -64.8257 -64.8245 -64.8238 -31.6266 -31.6213 -31.6201 -31.6012
   -31.5945 -31.5942 -31.5928 -31.5909 -31.5859 -31.5776 -31.5732 -31.5681
    -9.1568  -8.1291  -7.8937  -7.8778   4.0352   4.0615   4.0948   5.8507
     5.8648   6.1493   6.1909   6.5187   6.5677   6.6588   7.4370   7.4632

          k = 0.0000 0.0000-0.5000 (  5126 PWs)   bands (ev):

   -64.8293 -64.8288 -64.8244 -64.8239 -31.6127 -31.6125 -31.6067 -31.6064
   -31.6013 -31.6013 -31.5905 -31.5905 -31.5821 -31.5818 -31.5779 -31.5777
    -8.6465  -8.6464  -7.8570  -7.8570   4.8364   4.8366   4.8581   4.8583
     5.1226   5.1229   5.9727   5.9730   6.9485   6.9486   6.9881   6.9882

          k = 0.0000 0.2511 0.0000 (  5161 PWs)   bands (ev):

   -64.8325 -64.8256 -64.8245 -64.8239 -31.6265 -31.6237 -31.6182 -31.6001
   -31.5968 -31.5919 -31.5905 -31.5900 -31.5894 -31.5752 -31.5733 -31.5710
    -9.1543  -8.1183  -7.8940  -7.8860   4.0381   4.0507   4.1021   5.8746
     5.8812   6.1434   6.1641   6.5153   6.5402   6.6496   7.4444   7.4573

          k = 0.0000 0.2511 0.2500 (  5149 PWs)   bands (ev):

   -64.8313 -64.8256 -64.8253 -64.8243 -31.6215 -31.6203 -31.6181 -31.6053
   -31.5964 -31.5956 -31.5907 -31.5860 -31.5849 -31.5839 -31.5773 -31.5663
    -8.9644  -8.0641  -8.0561  -7.8961   4.1583   4.1624   4.3187   5.0714
     5.8344   6.0507   6.0717   6.4648   6.4720   6.5980   7.1826   7.5036

          k = 0.0000 0.2511-0.5000 (  5146 PWs)   bands (ev):

   -64.8286 -64.8281 -64.8251 -64.8245 -31.6153 -31.6152 -31.6097 -31.6095
   -31.6083 -31.6081 -31.5870 -31.5867 -31.5822 -31.5821 -31.5725 -31.5723
    -8.5088  -8.5087  -7.9458  -7.9457   4.4122   4.4123   4.7406   4.7408
     5.0888   5.0889   6.5557   6.5560   6.5902   6.5903   7.0865   7.0866

          k = 0.0000-0.5022 0.0000 (  5118 PWs)   bands (ev):

   -64.8293 -64.8287 -64.8245 -64.8239 -31.6125 -31.6113 -31.6093 -31.6081
   -31.5990 -31.5975 -31.5885 -31.5884 -31.5827 -31.5820 -31.5807 -31.5800
    -8.6505  -8.6272  -7.8600  -7.8598   4.8294   4.8406   4.8660   4.8773
     5.1113   5.1262   5.9511   5.9514   6.9392   6.9591   6.9619   6.9815

          k = 0.0000-0.5022 0.2500 (  5146 PWs)   bands (ev):

   -64.8286 -64.8281 -64.8252 -64.8246 -31.6167 -31.6160 -31.6095 -31.6086
   -31.6080 -31.6071 -31.5879 -31.5870 -31.5806 -31.5803 -31.5738 -31.5737
    -8.5140  -8.4935  -7.9504  -7.9465   4.4045   4.4188   4.7292   4.7457
     5.0798   5.1153   6.5368   6.5505   6.5658   6.5913   7.0875   7.0945

          k = 0.0000-0.5022-0.5000 (  5176 PWs)   bands (ev):

   -64.8269 -64.8269 -64.8268 -64.8258 -31.6178 -31.6177 -31.6172 -31.6171
   -31.5994 -31.5992 -31.5984 -31.5982 -31.5738 -31.5736 -31.5732 -31.5731
    -8.2093  -8.2092  -8.1964  -8.1963   4.2737   4.2738   4.2800   4.2801
     5.7530   5.7531   5.7848   5.7849   7.0642   7.0643   7.0747   7.0748

          k = 0.2489 0.0000 0.0000 (  5160 PWs)   bands (ev):

   -64.8325 -64.8258 -64.8244 -64.8238 -31.6237 -31.6235 -31.6213 -31.5983
   -31.5959 -31.5951 -31.5949 -31.5877 -31.5852 -31.5815 -31.5709 -31.5682
    -9.1592  -8.1397  -7.8854  -7.8774   4.0452   4.0589   4.0871   5.8344
     5.8419   6.1765   6.1976   6.5453   6.5695   6.6667   7.4427   7.4560

          k = 0.2489 0.0000 0.2500 (  5155 PWs)   bands (ev):

   -64.8313 -64.8257 -64.8253 -64.8241 -31.6224 -31.6207 -31.6165 -31.6082
   -31.5933 -31.5911 -31.5903 -31.5891 -31.5883 -31.5859 -31.5717 -31.5695
    -8.9688  -8.0724  -8.0646  -7.8853   4.1602   4.1634   4.3380   5.0708
     5.8594   6.0397   6.0597   6.4975   6.5037   6.5696   7.1640   7.5067

          k = 0.2489 0.0000-0.5000 (  5148 PWs)   bands (ev):

   -64.8286 -64.8281 -64.8251 -64.8245 -31.6180 -31.6179 -31.6099 -31.6099
   -31.6035 -31.6033 -31.5842 -31.5841 -31.5817 -31.5815 -31.5772 -31.5770
    -8.5115  -8.5114  -7.9490  -7.9489   4.4243   4.4244   4.7608   4.7611
     5.1035   5.1037   6.5363   6.5365   6.5641   6.5642   7.1013   7.1013

          k = 0.2489 0.2511 0.0000 (  5150 PWs)   bands (ev):

   -64.8313 -64.8257 -64.8252 -64.8242 -31.6229 -31.6189 -31.6180 -31.6069
   -31.5940 -31.5931 -31.5922 -31.5878 -31.5862 -31.5842 -31.5747 -31.5673
    -8.9666  -8.0722  -8.0563  -7.8907   4.1573   4.1653   4.3280   5.0713
     5.8468   6.0349   6.0755   6.4770   6.4912   6.5847   7.1734   7.5051

          k = 0.2489 0.2511 0.2500 (  5148 PWs)   bands (ev):

   -64.8303 -64.8257 -64.8256 -64.8248 -31.6255 -31.6245 -31.6236 -31.6055
   -31.5933 -31.5931 -31.5925 -31.5851 -31.5829 -31.5814 -31.5726 -31.5686
    -8.7968  -8.0368  -8.0312  -8.0255   3.9986   4.0000   4.0021   5.0888
     5.8391   5.8454   5.8520   6.6929   6.7056   6.7174   7.3536   7.3564

          k = 0.2489 0.2511-0.5000 (  5134 PWs)   bands (ev):

   -64.8281 -64.8277 -64.8256 -64.8250 -31.6274 -31.6273 -31.6206 -31.6204
   -31.5926 -31.5924 -31.5799 -31.5796 -31.5793 -31.5793 -31.5750 -31.5748
    -8.3997  -8.3996  -7.9976  -7.9975   3.8213   3.8213   4.1976   4.1978
     5.8298   5.8299   6.7397   6.7399   6.8683   6.8687   7.0159   7.0159

          k = 0.2489-0.5022 0.0000 (  5156 PWs)   bands (ev):

   -64.8286 -64.8281 -64.8252 -64.8246 -31.6179 -31.6172 -31.6093 -31.6085
   -31.6064 -31.6053 -31.5854 -31.5845 -31.5821 -31.5817 -31.5763 -31.5761
    -8.5154  -8.4948  -7.9521  -7.9479   4.4109   4.4253   4.7395   4.7560
     5.0865   5.1220   6.5284   6.5416   6.5511   6.5773   7.0948   7.1016

          k = 0.2489-0.5022 0.2500 (  5138 PWs)   bands (ev):

   -64.8281 -64.8276 -64.8257 -64.8251 -31.6277 -31.6276 -31.6204 -31.6202
   -31.5936 -31.5934 -31.5796 -31.5791 -31.5782 -31.5781 -31.5758 -31.5756
    -8.4043  -8.3867  -7.9990  -7.9989   3.8202   3.8203   4.1825   4.1996
     5.8303   5.8307   6.7364   6.7367   6.8709   6.8782   7.0005   7.0167

          k = 0.2489-0.5022-0.5000 (  5128 PWs)   bands (ev):

   -64.8269 -64.8268 -64.8268 -64.8258 -31.6309 -31.6306 -31.6306 -31.6306
   -31.5842 -31.5839 -31.5837 -31.5835 -31.5731 -31.5729 -31.5727 -31.5726
    -8.1714  -8.1713  -8.1621  -8.1621   3.6304   3.6305   3.6391   3.6392
     6.5098   6.5099   6.5284   6.5285   7.0666   7.0667   7.0739   7.0741

          k =-0.4979 0.0000 0.0000 (  5150 PWs)   bands (ev):

   -64.8294 -64.8289 -64.8244 -64.8238 -31.6102 -31.6090 -31.6079 -31.6067
   -31.6042 -31.6028 -31.5959 -31.5958 -31.5798 -31.5791 -31.5777 -31.5770
    -8.6654  -8.6423  -7.8541  -7.8538   4.8179   4.8288   4.8539   4.8649
     5.1196   5.1331   5.9937   5.9940   6.9549   6.9749   6.9770   6.9967

          k =-0.4979 0.0000 0.2500 (  5148 PWs)   bands (ev):

   -64.8287 -64.8282 -64.8251 -64.8245 -31.6175 -31.6168 -31.6116 -31.6108
   -31.6040 -31.6029 -31.5856 -31.5851 -31.5817 -31.5809 -31.5758 -31.5756
    -8.5266  -8.5061  -7.9483  -7.9441   4.4170   4.4316   4.7563   4.7717
     5.0779   5.1127   6.5422   6.5557   6.5631   6.5878   7.0935   7.0996

          k =-0.4979 0.0000-0.5000 (  5176 PWs)   bands (ev):

   -64.8269 -64.8269 -64.8268 -64.8258 -31.6192 -31.6190 -31.6186 -31.6185
   -31.5935 -31.5933 -31.5926 -31.5924 -31.5776 -31.5775 -31.5771 -31.5770
    -8.2153  -8.2152  -8.2023  -8.2022   4.3063   4.3065   4.3121   4.3123
     5.7509   5.7511   5.7821   5.7823   7.0510   7.0512   7.0619   7.0621

          k =-0.4979 0.2511 0.0000 (  5152 PWs)   bands (ev):

   -64.8287 -64.8282 -64.8251 -64.8245 -31.6164 -31.6158 -31.6110 -31.6102
   -31.6072 -31.6061 -31.5845 -31.5842 -31.5841 -31.5834 -31.5735 -31.5733
    -8.5252  -8.5048  -7.9465  -7.9427   4.4114   4.4259   4.7463   4.7618
     5.0698   5.1047   6.5537   6.5663   6.5744   6.5998   7.0857   7.0920

          k =-0.4979 0.2511 0.2500 (  5134 PWs)   bands (ev):

   -64.8281 -64.8277 -64.8256 -64.8250 -31.6274 -31.6272 -31.6211 -31.6209
   -31.5912 -31.5910 -31.5817 -31.5816 -31.5784 -31.5783 -31.5751 -31.5746
    -8.4123  -8.3949  -7.9962  -7.9960   3.8221   3.8222   4.1962   4.2127
     5.8293   5.8296   6.7431   6.7434   6.8590   6.8655   7.0150   7.0308

          k =-0.4979 0.2511-0.5000 (  5160 PWs)   bands (ev):

   -64.8269 -64.8268 -64.8268 -64.8258 -31.6319 -31.6316 -31.6316 -31.6315
   -31.5813 -31.5810 -31.5809 -31.5806 -31.5766 -31.5765 -31.5762 -31.5762
    -8.1745  -8.1744  -8.1652  -8.1651   3.6412   3.6413   3.6497   3.6498
     6.5201   6.5202   6.5380   6.5381   7.0536   7.0538   7.0614   7.0615

          k =-0.4979-0.5022 0.0000 (  5196 PWs)   bands (ev):

   -64.8270 -64.8269 -64.8268 -64.8258 -31.6189 -31.6184 -31.6182 -31.6178
   -31.5976 -31.5967 -31.5966 -31.5957 -31.5760 -31.5756 -31.5753 -31.5750
    -8.2187  -8.2057  -8.2055  -8.1929   4.2871   4.2929   4.2934   4.2993
     5.7353   5.7666   5.7674   5.7984   7.0520   7.0629   7.0630   7.0734

          k =-0.4979-0.5022 0.2500 (  5144 PWs)   bands (ev):

   -64.8269 -64.8269 -64.8268 -64.8258 -31.6314 -31.6312 -31.6311 -31.6311
   -31.5832 -31.5828 -31.5827 -31.5823 -31.5745 -31.5743 -31.5741 -31.5740
    -8.1776  -8.1682  -8.1680  -8.1591   3.6316   3.6399   3.6403   3.6487
     6.5057   6.5239   6.5243   6.5422   7.0563   7.0640   7.0640   7.0714

          k =-0.4979-0.5022-0.5000 (  5136 PWs)   bands (ev):

   -64.8269 -64.8268 -64.8268 -64.8258 -31.6392 -31.6390 -31.6390 -31.6389
   -31.5768 -31.5766 -31.5766 -31.5765 -31.5723 -31.5721 -31.5720 -31.5719
    -8.1303  -8.1302  -8.1300  -8.1300   3.2173   3.2174   3.2174   3.2175
     7.0573   7.0575   7.0576   7.0577   7.0719   7.0720   7.0722   7.0723

          k = 0.0000-0.2511 0.2500 (  5149 PWs)   bands (ev):

   -64.8313 -64.8256 -64.8253 -64.8243 -31.6215 -31.6203 -31.6181 -31.6053
   -31.5964 -31.5956 -31.5907 -31.5860 -31.5849 -31.5839 -31.5773 -31.5663
    -8.9644  -8.0641  -8.0561  -7.8961   4.1583   4.1624   4.3187   5.0714
     5.8344   6.0507   6.0717   6.4648   6.4720   6.5980   7.1826   7.5036

          k =-0.2489 0.0000 0.2500 (  5155 PWs)   bands (ev):

   -64.8313 -64.8257 -64.8253 -64.8241 -31.6224 -31.6207 -31.6165 -31.6082
   -31.5933 -31.5911 -31.5903 -31.5891 -31.5883 -31.5859 -31.5717 -31.5695
    -8.9688  -8.0724  -8.0646  -7.8853   4.1602   4.1634   4.3380   5.0708
     5.8594   6.0397   6.0597   6.4975   6.5037   6.5696   7.1640   7.5067

          k =-0.2489 0.2511 0.0000 (  5150 PWs)   bands (ev):

   -64.8313 -64.8257 -64.8252 -64.8242 -31.6229 -31.6189 -31.6180 -31.6069
   -31.5940 -31.5931 -31.5922 -31.5878 -31.5863 -31.5842 -31.5747 -31.5673
    -8.9666  -8.0722  -8.0563  -7.8907   4.1573   4.1653   4.3280   5.0713
     5.8468   6.0349   6.0755   6.4770   6.4912   6.5847   7.1734   7.5051

          k =-0.2489-0.2511 0.2500 (  5148 PWs)   bands (ev):

   -64.8303 -64.8257 -64.8256 -64.8248 -31.6255 -31.6245 -31.6236 -31.6055
   -31.5933 -31.5931 -31.5925 -31.5851 -31.5829 -31.5814 -31.5726 -31.5686
    -8.7968  -8.0368  -8.0312  -8.0255   3.9986   4.0000   4.0021   5.0888
     5.8391   5.8454   5.8520   6.6929   6.7056   6.7174   7.3536   7.3564

          k =-0.2489 0.2511-0.2500 (  5148 PWs)   bands (ev):

   -64.8303 -64.8257 -64.8256 -64.8248 -31.6255 -31.6245 -31.6236 -31.6054
   -31.5933 -31.5931 -31.5925 -31.5851 -31.5829 -31.5814 -31.5726 -31.5686
    -8.7968  -8.0368  -8.0312  -8.0255   3.9986   4.0000   4.0021   5.0888
     5.8391   5.8454   5.8520   6.6929   6.7056   6.7174   7.3536   7.3564

          k = 0.2489-0.2511-0.2500 (  5148 PWs)   bands (ev):

   -64.8303 -64.8257 -64.8256 -64.8248 -31.6255 -31.6245 -31.6236 -31.6054
   -31.5933 -31.5931 -31.5925 -31.5851 -31.5829 -31.5814 -31.5726 -31.5686
    -8.7968  -8.0368  -8.0312  -8.0255   3.9986   4.0000   4.0021   5.0888
     5.8391   5.8454   5.8520   6.6929   6.7056   6.7174   7.3536   7.3564

          k =-0.2489 0.2511 0.5000 (  5134 PWs)   bands (ev):

   -64.8281 -64.8277 -64.8256 -64.8250 -31.6274 -31.6272 -31.6205 -31.6205
   -31.5926 -31.5924 -31.5797 -31.5797 -31.5794 -31.5792 -31.5750 -31.5748
    -8.3997  -8.3996  -7.9976  -7.9975   3.8212   3.8214   4.1977   4.1978
     5.8298   5.8299   6.7397   6.7399   6.8684   6.8686   7.0159   7.0160

          k =-0.2489 0.5022 0.2500 (  5138 PWs)   bands (ev):

   -64.8281 -64.8276 -64.8257 -64.8251 -31.6277 -31.6276 -31.6204 -31.6202
   -31.5936 -31.5934 -31.5796 -31.5791 -31.5782 -31.5781 -31.5758 -31.5756
    -8.4043  -8.3867  -7.9990  -7.9989   3.8202   3.8203   4.1825   4.1996
     5.8303   5.8307   6.7364   6.7367   6.8709   6.8782   7.0005   7.0167

          k = 0.4979-0.2511 0.2500 (  5134 PWs)   bands (ev):

   -64.8281 -64.8277 -64.8256 -64.8250 -31.6274 -31.6272 -31.6211 -31.6209
   -31.5912 -31.5910 -31.5817 -31.5816 -31.5784 -31.5783 -31.5751 -31.5746
    -8.4123  -8.3949  -7.9962  -7.9960   3.8221   3.8222   4.1962   4.2127
     5.8293   5.8296   6.7431   6.7434   6.8590   6.8655   7.0150   7.0308

     highest occupied level (ev):     7.6814

!    total energy              =    -608.39248418 Ry
     Harris-Foulkes estimate   =    -608.39248418 Ry
     estimated scf accuracy    <          2.9E-09 Ry

     The total energy is the sum of the following terms:

     one-electron contribution =    -303.60124425 Ry
     hartree contribution      =     168.09022495 Ry
     xc contribution           =     -97.84702270 Ry
     ewald contribution        =    -375.03444219 Ry

     convergence has been achieved in   9 iterations

     Forces acting on atoms (cartesian axes, Ry/au):

     atom    1 type  1   force =    -0.00222434    0.00246467   -0.00001001
     atom    2 type  1   force =    -0.00222632   -0.00242667    0.00000933
     atom    3 type  1   force =     0.00218488    0.00246574    0.00000909
     atom    4 type  1   force =     0.00216750   -0.00241203   -0.00000930
     atom    5 type  2   force =     0.00260072    0.00278544   -0.00001084
     atom    6 type  2   force =    -0.00255618   -0.00282621   -0.00001093
     atom    7 type  2   force =    -0.00255717    0.00278588    0.00001126
     atom    8 type  2   force =     0.00261091   -0.00283681    0.00001140

     Total force =     0.010072     Total SCF correction =     0.000059


     Computing stress (Cartesian axis) and pressure

          total   stress  (Ry/bohr**3)                   (kbar)     P=  -68.06
  -0.00051275   0.00000001   0.00000000        -75.43      0.00      0.00
   0.00000001  -0.00041140   0.00000000          0.00    -60.52      0.00
   0.00000000   0.00000000  -0.00046382          0.00      0.00    -68.23


     BFGS Geometry Optimization

     number of scf cycles    =   1
     number of bfgs steps    =   0

     energy   new            =    -608.3924841771 Ry

     new trust radius        =       0.0038554486 bohr
     new conv_thr            =       0.0000000100 Ry


ATOMIC_POSITIONS (alat)
Mg      -0.000276496   0.000306370  -0.000001244
Mg      -0.000276742   0.499698353   0.500001160
Mg       0.500271591   0.000306503   0.500001130
Mg       0.500269431   0.499700173  -0.000001156
O        0.500323281   0.000346244  -0.000001347
O       -0.000317746   0.499648688  -0.000001359
O       -0.000317869   0.000346298   0.500001400
O        0.500324548   0.499647371   0.500001417



     Writing output data file diamond.1.004286.70.4.save
     NEW-OLD atomic charge density approx. for the potential

     Check: negative/imaginary core charge=   -0.000007    0.000000

     total cpu time spent up to now is       15.4 secs

     per-process dynamical memory:    52.1 Mb

     Self-consistent Calculation

     iteration #  1     ecut=    70.00 Ry     beta=0.70
     Davidson diagonalization with overlap
     ethr =  1.00E-06,  avg # of iterations =  3.0

     Threshold (ethr) on eigenvalues was too large:
     Diagonalizing with lowered threshold

     Davidson diagonalization with overlap
     ethr =  2.93E-08,  avg # of iterations =  1.1

     total cpu time spent up to now is       18.9 secs

     total energy              =    -608.39256375 Ry
     Harris-Foulkes estimate   =    -608.39257754 Ry
     estimated scf accuracy    <       0.00001879 Ry

     iteration #  2     ecut=    70.00 Ry     beta=0.70
     Davidson diagonalization with overlap
     ethr =  2.94E-08,  avg # of iterations =  2.3

     total cpu time spent up to now is       20.4 secs

     total energy              =    -608.39256945 Ry
     Harris-Foulkes estimate   =    -608.39257140 Ry
     estimated scf accuracy    <       0.00000324 Ry

     iteration #  3     ecut=    70.00 Ry     beta=0.70
     Davidson diagonalization with overlap
     ethr =  5.06E-09,  avg # of iterations =  2.0

     total cpu time spent up to now is       21.8 secs

     total energy              =    -608.39257015 Ry
     Harris-Foulkes estimate   =    -608.39257014 Ry
     estimated scf accuracy    <       0.00000002 Ry

     iteration #  4     ecut=    70.00 Ry     beta=0.70
     Davidson diagonalization with overlap
     ethr =  3.30E-11,  avg # of iterations =  2.8

     total cpu time spent up to now is       23.6 secs

     End of self-consistent calculation

          k = 0.0000 0.0000 0.0000 (  5153 PWs)   bands (ev):

   -64.8343 -64.8249 -64.8247 -64.8240 -31.6329 -31.6307 -31.6285 -31.5958
   -31.5948 -31.5942 -31.5922 -31.5914 -31.5905 -31.5679 -31.5636 -31.5613
    -9.3651  -7.9253  -7.9141  -7.9030   3.7441   3.7577   3.7721   6.3494
     6.3534   6.3760   6.3836   6.4067   6.4103   7.6620   7.6724   7.6815

          k = 0.0000 0.0000 0.2500 (  5161 PWs)   bands (ev):

   -64.8329 -64.8260 -64.8248 -64.8242 -31.6269 -31.6216 -31.6204 -31.6015
   -31.5948 -31.5945 -31.5931 -31.5912 -31.5863 -31.5779 -31.5735 -31.5684
    -9.1566  -8.1290  -7.8937  -7.8777   4.0352   4.0615   4.0949   5.8508
     5.8649   6.1495   6.1911   6.5186   6.5676   6.6588   7.4370   7.4632

          k = 0.0000 0.0000-0.5000 (  5126 PWs)   bands (ev):

   -64.8297 -64.8292 -64.8248 -64.8242 -31.6130 -31.6127 -31.6069 -31.6067
   -31.6016 -31.6016 -31.5908 -31.5908 -31.5824 -31.5821 -31.5782 -31.5780
    -8.6464  -8.6463  -7.8569  -7.8569   4.8365   4.8366   4.8582   4.8583
     5.1226   5.1228   5.9730   5.9733   6.9484   6.9485   6.9880   6.9881

          k = 0.0000 0.2511 0.0000 (  5161 PWs)   bands (ev):

   -64.8329 -64.8259 -64.8249 -64.8243 -31.6267 -31.6240 -31.6185 -31.6004
   -31.5972 -31.5922 -31.5909 -31.5903 -31.5897 -31.5756 -31.5736 -31.5713
    -9.1542  -8.1183  -7.8940  -7.8860   4.0382   4.0509   4.1022   5.8746
     5.8812   6.1435   6.1642   6.5154   6.5402   6.6497   7.4443   7.4573

          k = 0.0000 0.2511 0.2500 (  5149 PWs)   bands (ev):

   -64.8316 -64.8260 -64.8256 -64.8247 -31.6218 -31.6206 -31.6184 -31.6056
   -31.5967 -31.5959 -31.5910 -31.5864 -31.5852 -31.5842 -31.5777 -31.5666
    -8.9643  -8.0640  -8.0561  -7.8960   4.1584   4.1625   4.3188   5.0714
     5.8345   6.0509   6.0716   6.4649   6.4720   6.5979   7.1825   7.5036

          k = 0.0000 0.2511-0.5000 (  5146 PWs)   bands (ev):

   -64.8290 -64.8285 -64.8255 -64.8249 -31.6156 -31.6155 -31.6098 -31.6097
   -31.6088 -31.6086 -31.5873 -31.5870 -31.5825 -31.5824 -31.5728 -31.5726
    -8.5086  -8.5086  -7.9457  -7.9457   4.4122   4.4124   4.7407   4.7409
     5.0888   5.0889   6.5564   6.5566   6.5895   6.5896   7.0864   7.0866

          k = 0.0000-0.5022 0.0000 (  5118 PWs)   bands (ev):

   -64.8296 -64.8291 -64.8249 -64.8243 -31.6127 -31.6118 -31.6095 -31.6086
   -31.5991 -31.5981 -31.5888 -31.5887 -31.5830 -31.5824 -31.5810 -31.5804
    -8.6467  -8.6308  -7.8599  -7.8598   4.8352   4.8465   4.8603   4.8716
     5.1137   5.1238   5.9513   5.9515   6.9428   6.9583   6.9627   6.9779

          k = 0.0000-0.5022 0.2500 (  5146 PWs)   bands (ev):

   -64.8289 -64.8284 -64.8256 -64.8250 -31.6169 -31.6164 -31.6095 -31.6088
   -31.6084 -31.6077 -31.5881 -31.5874 -31.5809 -31.5806 -31.5741 -31.5740
    -8.5107  -8.4966  -7.9497  -7.9471   4.4068   4.4167   4.7319   4.7431
     5.0853   5.1096   6.5397   6.5489   6.5692   6.5867   7.0886   7.0935

          k = 0.0000-0.5022-0.5000 (  5176 PWs)   bands (ev):

   -64.8273 -64.8272 -64.8272 -64.8262 -31.6181 -31.6179 -31.6176 -31.6175
   -31.5996 -31.5994 -31.5989 -31.5986 -31.5740 -31.5739 -31.5735 -31.5735
    -8.2071  -8.2071  -8.1983  -8.1983   4.2748   4.2749   4.2790   4.2791
     5.7580   5.7581   5.7797   5.7798   7.0659   7.0661   7.0730   7.0732

          k = 0.2489 0.0000 0.0000 (  5160 PWs)   bands (ev):

   -64.8329 -64.8262 -64.8247 -64.8241 -31.6240 -31.6238 -31.6216 -31.5986
   -31.5962 -31.5954 -31.5952 -31.5880 -31.5855 -31.5818 -31.5713 -31.5685
    -9.1591  -8.1396  -7.8853  -7.8774   4.0454   4.0590   4.0871   5.8344
     5.8418   6.1766   6.1977   6.5453   6.5695   6.6667   7.4427   7.4559

          k = 0.2489 0.0000 0.2500 (  5155 PWs)   bands (ev):

   -64.8317 -64.8261 -64.8257 -64.8245 -31.6227 -31.6210 -31.6168 -31.6085
   -31.5936 -31.5914 -31.5906 -31.5894 -31.5886 -31.5862 -31.5720 -31.5698
    -8.9687  -8.0724  -8.0645  -7.8853   4.1603   4.1635   4.3380   5.0708
     5.8595   6.0397   6.0598   6.4974   6.5040   6.5694   7.1640   7.5067

          k = 0.2489 0.0000-0.5000 (  5148 PWs)   bands (ev):

   -64.8290 -64.8285 -64.8255 -64.8249 -31.6183 -31.6182 -31.6102 -31.6102
   -31.6038 -31.6036 -31.5844 -31.5844 -31.5820 -31.5818 -31.5775 -31.5773
    -8.5114  -8.5113  -7.9489  -7.9489   4.4243   4.4244   4.7610   4.7612
     5.1035   5.1036   6.5372   6.5374   6.5632   6.5633   7.1012   7.1013

          k = 0.2489 0.2511 0.0000 (  5150 PWs)   bands (ev):

   -64.8317 -64.8260 -64.8256 -64.8246 -31.6232 -31.6192 -31.6182 -31.6072
   -31.5943 -31.5934 -31.5925 -31.5881 -31.5866 -31.5845 -31.5751 -31.5676
    -8.9665  -8.0721  -8.0563  -7.8906   4.1574   4.1653   4.3283   5.0713
     5.8469   6.0349   6.0755   6.4772   6.4914   6.5843   7.1733   7.5052

          k = 0.2489 0.2511 0.2500 (  5148 PWs)   bands (ev):

   -64.8307 -64.8261 -64.8260 -64.8252 -31.6258 -31.6248 -31.6239 -31.6057
   -31.5936 -31.5934 -31.5929 -31.5854 -31.5832 -31.5818 -31.5729 -31.5689
    -8.7966  -8.0367  -8.0311  -8.0254   3.9986   4.0001   4.0021   5.0889
     5.8391   5.8454   5.8520   6.6929   6.7055   6.7175   7.3536   7.3564

          k = 0.2489 0.2511-0.5000 (  5134 PWs)   bands (ev):

   -64.8284 -64.8280 -64.8260 -64.8254 -31.6277 -31.6275 -31.6209 -31.6207
   -31.5929 -31.5927 -31.5801 -31.5799 -31.5797 -31.5796 -31.5753 -31.5751
    -8.3995  -8.3995  -7.9975  -7.9975   3.8213   3.8214   4.1977   4.1978
     5.8299   5.8299   6.7399   6.7401   6.8683   6.8686   7.0158   7.0158

          k = 0.2489-0.5022 0.0000 (  5156 PWs)   bands (ev):

   -64.8289 -64.8284 -64.8256 -64.8250 -31.6181 -31.6176 -31.6094 -31.6089
   -31.6066 -31.6058 -31.5856 -31.5849 -31.5823 -31.5820 -31.5766 -31.5764
    -8.5120  -8.4979  -7.9514  -7.9485   4.4132   4.4231   4.7422   4.7533
     5.0922   5.1165   6.5306   6.5396   6.5552   6.5731   7.0959   7.1005

          k = 0.2489-0.5022 0.2500 (  5138 PWs)   bands (ev):

   -64.8284 -64.8280 -64.8260 -64.8254 -31.6280 -31.6279 -31.6207 -31.6205
   -31.5939 -31.5937 -31.5799 -31.5795 -31.5785 -31.5785 -31.5761 -31.5760
    -8.4014  -8.3894  -7.9990  -7.9988   3.8203   3.8204   4.1853   4.1968
     5.8304   5.8307   6.7364   6.7367   6.8720   6.8771   7.0030   7.0141

          k = 0.2489-0.5022-0.5000 (  5128 PWs)   bands (ev):

   -64.8273 -64.8272 -64.8272 -64.8262 -31.6312 -31.6309 -31.6309 -31.6309
   -31.5844 -31.5842 -31.5841 -31.5839 -31.5734 -31.5732 -31.5730 -31.5730
    -8.1698  -8.1698  -8.1635  -8.1635   3.6318   3.6320   3.6377   3.6378
     6.5127   6.5129   6.5255   6.5256   7.0678   7.0680   7.0728   7.0730

          k =-0.4979 0.0000 0.0000 (  5150 PWs)   bands (ev):

   -64.8298 -64.8293 -64.8247 -64.8242 -31.6104 -31.6095 -31.6080 -31.6071
   -31.6043 -31.6034 -31.5962 -31.5961 -31.5801 -31.5795 -31.5779 -31.5774
    -8.6620  -8.6455  -7.8540  -7.8538   4.8232   4.8340   4.8489   4.8597
     5.1216   5.1311   5.9938   5.9941   6.9581   6.9737   6.9781   6.9935

          k =-0.4979 0.0000 0.2500 (  5148 PWs)   bands (ev):

   -64.8290 -64.8286 -64.8255 -64.8249 -31.6177 -31.6172 -31.6117 -31.6112
   -31.6042 -31.6034 -31.5858 -31.5854 -31.5819 -31.5813 -31.5761 -31.5759
    -8.5235  -8.5090  -7.9476  -7.9447   4.4192   4.4296   4.7587   4.7695
     5.0828   5.1076   6.5453   6.5546   6.5656   6.5835   7.0944   7.0988

          k =-0.4979 0.0000-0.5000 (  5176 PWs)   bands (ev):

   -64.8273 -64.8272 -64.8272 -64.8262 -31.6194 -31.6193 -31.6189 -31.6188
   -31.5937 -31.5935 -31.5931 -31.5928 -31.5779 -31.5778 -31.5774 -31.5774
    -8.2133  -8.2132  -8.2041  -8.2040   4.3073   4.3075   4.3113   4.3114
     5.7554   5.7555   5.7776   5.7777   7.0527   7.0529   7.0604   7.0605

          k =-0.4979 0.2511 0.0000 (  5152 PWs)   bands (ev):

   -64.8290 -64.8286 -64.8255 -64.8249 -31.6166 -31.6161 -31.6112 -31.6106
   -31.6074 -31.6066 -31.5848 -31.5844 -31.5844 -31.5838 -31.5738 -31.5736
    -8.5221  -8.5076  -7.9459  -7.9432   4.4135   4.4238   4.7487   4.7596
     5.0750   5.0998   6.5556   6.5646   6.5781   6.5961   7.0866   7.0911

          k =-0.4979 0.2511 0.2500 (  5134 PWs)   bands (ev):

   -64.8285 -64.8281 -64.8260 -64.8254 -31.6277 -31.6275 -31.6214 -31.6212
   -31.5915 -31.5913 -31.5820 -31.5820 -31.5787 -31.5786 -31.5754 -31.5750
    -8.4097  -8.3973  -7.9961  -7.9960   3.8222   3.8223   4.1987   4.2103
     5.8294   5.8296   6.7432   6.7435   6.8599   6.8646   7.0173   7.0285

          k =-0.4979 0.2511-0.5000 (  5160 PWs)   bands (ev):

   -64.8273 -64.8272 -64.8272 -64.8262 -31.6321 -31.6319 -31.6319 -31.6318
   -31.5815 -31.5813 -31.5812 -31.5810 -31.5769 -31.5767 -31.5766 -31.5765
    -8.1730  -8.1730  -8.1664  -8.1664   3.6424   3.6426   3.6484   3.6485
     6.5227   6.5228   6.5354   6.5355   7.0548   7.0550   7.0603   7.0604

          k =-0.4979-0.5022 0.0000 (  5196 PWs)   bands (ev):

   -64.8273 -64.8272 -64.8271 -64.8262 -31.6190 -31.6187 -31.6185 -31.6182
   -31.5977 -31.5970 -31.5969 -31.5962 -31.5762 -31.5759 -31.5757 -31.5755
    -8.2147  -8.2056  -8.2055  -8.1967   4.2891   4.2931   4.2933   4.2973
     5.7449   5.7668   5.7672   5.7890   7.0554   7.0628   7.0630   7.0702

          k =-0.4979-0.5022 0.2500 (  5144 PWs)   bands (ev):

   -64.8273 -64.8272 -64.8272 -64.8262 -31.6317 -31.6315 -31.6314 -31.6314
   -31.5834 -31.5831 -31.5830 -31.5827 -31.5748 -31.5746 -31.5744 -31.5743
    -8.1746  -8.1681  -8.1680  -8.1617   3.6343   3.6401   3.6402   3.6461
     6.5113   6.5240   6.5243   6.5368   7.0587   7.0639   7.0641   7.0691

          k =-0.4979-0.5022-0.5000 (  5136 PWs)   bands (ev):

   -64.8272 -64.8272 -64.8272 -64.8262 -31.6395 -31.6393 -31.6393 -31.6393
   -31.5771 -31.5769 -31.5769 -31.5768 -31.5726 -31.5724 -31.5723 -31.5722
    -8.1301  -8.1301  -8.1300  -8.1299   3.2173   3.2174   3.2174   3.2174
     7.0574   7.0576   7.0577   7.0578   7.0720   7.0721   7.0722   7.0724

          k = 0.0000-0.2511 0.2500 (  5149 PWs)   bands (ev):

   -64.8316 -64.8260 -64.8256 -64.8247 -31.6218 -31.6206 -31.6184 -31.6056
   -31.5967 -31.5959 -31.5910 -31.5864 -31.5852 -31.5842 -31.5777 -31.5666
    -8.9643  -8.0640  -8.0561  -7.8960   4.1584   4.1625   4.3188   5.0714
     5.8345   6.0509   6.0716   6.4649   6.4720   6.5979   7.1825   7.5036

          k =-0.2489 0.0000 0.2500 (  5155 PWs)   bands (ev):

   -64.8317 -64.8261 -64.8257 -64.8245 -31.6227 -31.6210 -31.6168 -31.6085
   -31.5936 -31.5914 -31.5906 -31.5894 -31.5886 -31.5862 -31.5720 -31.5698
    -8.9687  -8.0724  -8.0645  -7.8853   4.1603   4.1635   4.3380   5.0708
     5.8595   6.0397   6.0598   6.4974   6.5040   6.5694   7.1640   7.5067

          k =-0.2489 0.2511 0.0000 (  5150 PWs)   bands (ev):

   -64.8317 -64.8260 -64.8256 -64.8246 -31.6232 -31.6192 -31.6182 -31.6072
   -31.5943 -31.5934 -31.5925 -31.5881 -31.5866 -31.5845 -31.5751 -31.5676
    -8.9665  -8.0721  -8.0563  -7.8906   4.1574   4.1653   4.3283   5.0713
     5.8469   6.0349   6.0755   6.4772   6.4914   6.5843   7.1733   7.5052

          k =-0.2489-0.2511 0.2500 (  5148 PWs)   bands (ev):

   -64.8307 -64.8261 -64.8260 -64.8252 -31.6258 -31.6248 -31.6239 -31.6057
   -31.5936 -31.5934 -31.5929 -31.5854 -31.5832 -31.5818 -31.5729 -31.5689
    -8.7966  -8.0367  -8.0311  -8.0254   3.9986   4.0001   4.0021   5.0889
     5.8391   5.8454   5.8520   6.6929   6.7055   6.7175   7.3536   7.3564

          k =-0.2489 0.2511-0.2500 (  5148 PWs)   bands (ev):

   -64.8307 -64.8261 -64.8260 -64.8252 -31.6258 -31.6248 -31.6239 -31.6057
   -31.5936 -31.5935 -31.5928 -31.5854 -31.5832 -31.5818 -31.5729 -31.5689
    -8.7966  -8.0367  -8.0311  -8.0254   3.9986   4.0001   4.0021   5.0889
     5.8391   5.8454   5.8520   6.6929   6.7055   6.7175   7.3536   7.3564

          k = 0.2489-0.2511-0.2500 (  5148 PWs)   bands (ev):

   -64.8307 -64.8261 -64.8260 -64.8252 -31.6258 -31.6248 -31.6239 -31.6057
   -31.5936 -31.5935 -31.5928 -31.5854 -31.5832 -31.5818 -31.5729 -31.5689
    -8.7966  -8.0367  -8.0311  -8.0254   3.9986   4.0001   4.0021   5.0889
     5.8391   5.8454   5.8520   6.6929   6.7055   6.7175   7.3536   7.3564

          k =-0.2489 0.2511 0.5000 (  5134 PWs)   bands (ev):

   -64.8284 -64.8280 -64.8260 -64.8254 -31.6277 -31.6275 -31.6208 -31.6208
   -31.5929 -31.5927 -31.5800 -31.5800 -31.5797 -31.5796 -31.5753 -31.5751
    -8.3995  -8.3995  -7.9975  -7.9975   3.8213   3.8214   4.1977   4.1978
     5.8299   5.8300   6.7399   6.7401   6.8684   6.8685   7.0157   7.0159

          k =-0.2489 0.5022 0.2500 (  5138 PWs)   bands (ev):

   -64.8284 -64.8280 -64.8260 -64.8254 -31.6280 -31.6279 -31.6207 -31.6205
   -31.5939 -31.5937 -31.5799 -31.5795 -31.5785 -31.5785 -31.5761 -31.5760
    -8.4014  -8.3894  -7.9990  -7.9988   3.8203   3.8204   4.1853   4.1968
     5.8304   5.8307   6.7364   6.7367   6.8720   6.8771   7.0030   7.0141

          k = 0.4979-0.2511 0.2500 (  5134 PWs)   bands (ev):

   -64.8285 -64.8281 -64.8260 -64.8254 -31.6277 -31.6275 -31.6214 -31.6212
   -31.5915 -31.5913 -31.5820 -31.5820 -31.5787 -31.5786 -31.5754 -31.5750
    -8.4097  -8.3973  -7.9961  -7.9960   3.8222   3.8223   4.1987   4.2103
     5.8294   5.8296   6.7432   6.7435   6.8599   6.8646   7.0173   7.0285

     highest occupied level (ev):     7.6815

!    total energy              =    -608.39257015 Ry
     Harris-Foulkes estimate   =    -608.39257016 Ry
     estimated scf accuracy    <          3.3E-09 Ry

     The total energy is the sum of the following terms:

     one-electron contribution =    -303.58621409 Ry
     hartree contribution      =     168.08281879 Ry
     xc contribution           =     -97.84693730 Ry
     ewald contribution        =    -375.04223756 Ry

     convergence has been achieved in   4 iterations

     Forces acting on atoms (cartesian axes, Ry/au):

     atom    1 type  1   force =    -0.00160965    0.00171085   -0.00000717
     atom    2 type  1   force =    -0.00165409   -0.00172120    0.00000724
     atom    3 type  1   force =     0.00161456    0.00176007    0.00000730
     atom    4 type  1   force =     0.00160542   -0.00171428   -0.00000749
     atom    5 type  2   force =     0.00179050    0.00186850   -0.00000798
     atom    6 type  2   force =    -0.00177361   -0.00188223   -0.00000795
     atom    7 type  2   force =    -0.00177449    0.00186948    0.00000800
     atom    8 type  2   force =     0.00180137   -0.00189117    0.00000805

     Total force =     0.007021     Total SCF correction =     0.000404


     Computing stress (Cartesian axis) and pressure

          total   stress  (Ry/bohr**3)                   (kbar)     P=  -68.03
  -0.00051275   0.00000000  -0.00000000        -75.43      0.00     -0.00
   0.00000000  -0.00041155   0.00000000          0.00    -60.54      0.00
  -0.00000000   0.00000000  -0.00046310         -0.00      0.00    -68.12


     number of scf cycles    =   2
     number of bfgs steps    =   1

     energy   old            =    -608.3924841771 Ry
     energy   new            =    -608.3925701544 Ry

     CASE: energy  _new < energy  _old

     new trust radius        =       0.0042409935 bohr
     new conv_thr            =       0.0000000009 Ry


ATOMIC_POSITIONS (alat)
Mg      -0.000601332   0.000651669  -0.000002691
Mg      -0.000610523   0.499350985   0.500002621
Mg       0.500597399   0.000661708   0.500002602
Mg       0.500593393   0.499354204  -0.000002666
O        0.500684665   0.000723399  -0.000002957
O       -0.000675712   0.499268753  -0.000002964
O       -0.000676014   0.000723651   0.500003014
O        0.500688123   0.499265632   0.500003041



     Writing output data file diamond.1.004286.70.4.save
     NEW-OLD atomic charge density approx. for the potential

     Check: negative/imaginary core charge=   -0.000007    0.000000

     total cpu time spent up to now is       24.4 secs

     per-process dynamical memory:    52.1 Mb

     Self-consistent Calculation

     iteration #  1     ecut=    70.00 Ry     beta=0.70
     Davidson diagonalization with overlap
     ethr =  1.00E-06,  avg # of iterations =  3.0

     Threshold (ethr) on eigenvalues was too large:
     Diagonalizing with lowered threshold

     Davidson diagonalization with overlap
     ethr =  3.63E-08,  avg # of iterations =  1.1

     total cpu time spent up to now is       27.9 secs

     total energy              =    -608.39262270 Ry
     Harris-Foulkes estimate   =    -608.39263975 Ry
     estimated scf accuracy    <       0.00002324 Ry

     iteration #  2     ecut=    70.00 Ry     beta=0.70
     Davidson diagonalization with overlap
     ethr =  3.63E-08,  avg # of iterations =  2.3

     total cpu time spent up to now is       29.4 secs

     total energy              =    -608.39262976 Ry
     Harris-Foulkes estimate   =    -608.39263217 Ry
     estimated scf accuracy    <       0.00000402 Ry

     iteration #  3     ecut=    70.00 Ry     beta=0.70
     Davidson diagonalization with overlap
     ethr =  6.29E-09,  avg # of iterations =  2.0

     total cpu time spent up to now is       30.8 secs

     total energy              =    -608.39263062 Ry
     Harris-Foulkes estimate   =    -608.39263061 Ry
     estimated scf accuracy    <       0.00000003 Ry

     iteration #  4     ecut=    70.00 Ry     beta=0.70
     Davidson diagonalization with overlap
     ethr =  4.26E-11,  avg # of iterations =  2.8

     total cpu time spent up to now is       32.6 secs

     total energy              =    -608.39263063 Ry
     Harris-Foulkes estimate   =    -608.39263063 Ry
     estimated scf accuracy    <          5.7E-09 Ry

     iteration #  5     ecut=    70.00 Ry     beta=0.70
     Davidson diagonalization with overlap
     ethr =  8.93E-12,  avg # of iterations =  2.6

     total cpu time spent up to now is       34.1 secs

     End of self-consistent calculation

          k = 0.0000 0.0000 0.0000 (  5153 PWs)   bands (ev):

   -64.8344 -64.8250 -64.8248 -64.8241 -31.6329 -31.6308 -31.6286 -31.5959
   -31.5949 -31.5943 -31.5923 -31.5915 -31.5905 -31.5680 -31.5637 -31.5614
    -9.3649  -7.9252  -7.9139  -7.9028   3.7442   3.7578   3.7722   6.3495
     6.3535   6.3761   6.3837   6.4068   6.4104   7.6622   7.6725   7.6817

          k = 0.0000 0.0000 0.2500 (  5161 PWs)   bands (ev):

   -64.8330 -64.8261 -64.8249 -64.8243 -31.6270 -31.6217 -31.6205 -31.6016
   -31.5949 -31.5945 -31.5932 -31.5913 -31.5864 -31.5780 -31.5736 -31.5685
    -9.1564  -8.1288  -7.8935  -7.8776   4.0353   4.0616   4.0951   5.8509
     5.8650   6.1497   6.1913   6.5186   6.5676   6.6589   7.4371   7.4633

          k = 0.0000 0.0000-0.5000 (  5126 PWs)   bands (ev):

   -64.8298 -64.8293 -64.8249 -64.8243 -31.6131 -31.6128 -31.6070 -31.6067
   -31.6018 -31.6017 -31.5909 -31.5908 -31.5825 -31.5822 -31.5783 -31.5781
    -8.6462  -8.6461  -7.8569  -7.8567   4.8367   4.8368   4.8584   4.8585
     5.1226   5.1229   5.9732   5.9736   6.9484   6.9485   6.9880   6.9881

          k = 0.0000 0.2511 0.0000 (  5161 PWs)   bands (ev):

   -64.8329 -64.8260 -64.8250 -64.8244 -31.6268 -31.6240 -31.6185 -31.6005
   -31.5973 -31.5922 -31.5910 -31.5904 -31.5898 -31.5756 -31.5737 -31.5714
    -9.1540  -8.1181  -7.8938  -7.8858   4.0383   4.0511   4.1023   5.8746
     5.8813   6.1437   6.1644   6.5155   6.5403   6.6498   7.4444   7.4574

          k = 0.0000 0.2511 0.2500 (  5149 PWs)   bands (ev):

   -64.8317 -64.8261 -64.8257 -64.8248 -31.6219 -31.6207 -31.6185 -31.6057
   -31.5968 -31.5960 -31.5911 -31.5865 -31.5852 -31.5843 -31.5777 -31.5667
    -8.9641  -8.0638  -8.0560  -7.8959   4.1586   4.1626   4.3189   5.0716
     5.8346   6.0510   6.0717   6.4650   6.4720   6.5979   7.1826   7.5038

          k = 0.0000 0.2511-0.5000 (  5146 PWs)   bands (ev):

   -64.8290 -64.8286 -64.8256 -64.8250 -31.6157 -31.6155 -31.6097 -31.6095
   -31.6090 -31.6089 -31.5874 -31.5871 -31.5826 -31.5825 -31.5729 -31.5727
    -8.5085  -8.5083  -7.9457  -7.9455   4.4124   4.4124   4.7409   4.7411
     5.0889   5.0890   6.5570   6.5573   6.5892   6.5893   7.0866   7.0866

          k = 0.0000-0.5022 0.0000 (  5118 PWs)   bands (ev):

   -64.8297 -64.8292 -64.8250 -64.8244 -31.6125 -31.6120 -31.6094 -31.6088
   -31.5990 -31.5984 -31.5888 -31.5888 -31.5830 -31.5826 -31.5809 -31.5806
    -8.6425  -8.6347  -7.8598  -7.8596   4.8416   4.8529   4.8541   4.8654
     5.1164   5.1213   5.9514   5.9517   6.9469   6.9544   6.9666   6.9741

          k = 0.0000-0.5022 0.2500 (  5146 PWs)   bands (ev):

   -64.8290 -64.8285 -64.8257 -64.8251 -31.6168 -31.6165 -31.6092 -31.6088
   -31.6086 -31.6082 -31.5880 -31.5876 -31.5809 -31.5808 -31.5742 -31.5741
    -8.5069  -8.5000  -7.9489  -7.9476   4.4094   4.4144   4.7350   4.7403
     5.0914   5.1035   6.5427   6.5471   6.5733   6.5820   7.0900   7.0924

          k = 0.0000-0.5022-0.5000 (  5176 PWs)   bands (ev):

   -64.8274 -64.8273 -64.8273 -64.8263 -31.6181 -31.6179 -31.6177 -31.6177
   -31.5995 -31.5993 -31.5991 -31.5988 -31.5740 -31.5739 -31.5737 -31.5736
    -8.2048  -8.2046  -8.2005  -8.2003   4.2761   4.2762   4.2780   4.2781
     5.7635   5.7636   5.7743   5.7744   7.0679   7.0681   7.0713   7.0715

          k = 0.2489 0.0000 0.0000 (  5160 PWs)   bands (ev):

   -64.8330 -64.8263 -64.8248 -64.8242 -31.6241 -31.6239 -31.6217 -31.5987
   -31.5963 -31.5955 -31.5953 -31.5881 -31.5856 -31.5819 -31.5714 -31.5686
    -9.1589  -8.1395  -7.8851  -7.8772   4.0456   4.0591   4.0872   5.8345
     5.8419   6.1768   6.1979   6.5454   6.5697   6.6669   7.4428   7.4560

          k = 0.2489 0.0000 0.2500 (  5155 PWs)   bands (ev):

   -64.8318 -64.8262 -64.8258 -64.8246 -31.6228 -31.6211 -31.6169 -31.6085
   -31.5937 -31.5915 -31.5906 -31.5894 -31.5887 -31.5863 -31.5721 -31.5699
    -8.9684  -8.0722  -8.0643  -7.8851   4.1604   4.1637   4.3381   5.0710
     5.8596   6.0397   6.0600   6.4975   6.5042   6.5693   7.1641   7.5069

          k = 0.2489 0.0000-0.5000 (  5148 PWs)   bands (ev):

   -64.8290 -64.8286 -64.8256 -64.8250 -31.6184 -31.6182 -31.6103 -31.6102
   -31.6040 -31.6037 -31.5845 -31.5845 -31.5821 -31.5819 -31.5776 -31.5774
    -8.5112  -8.5111  -7.9488  -7.9487   4.4245   4.4245   4.7611   4.7614
     5.1036   5.1037   6.5379   6.5382   6.5627   6.5628   7.1013   7.1014

          k = 0.2489 0.2511 0.0000 (  5150 PWs)   bands (ev):

   -64.8318 -64.8261 -64.8257 -64.8247 -31.6233 -31.6193 -31.6183 -31.6072
   -31.5944 -31.5935 -31.5926 -31.5882 -31.5867 -31.5846 -31.5752 -31.5677
    -8.9662  -8.0720  -8.0561  -7.8904   4.1575   4.1654   4.3285   5.0713
     5.8470   6.0351   6.0756   6.4774   6.4916   6.5841   7.1734   7.5054

          k = 0.2489 0.2511 0.2500 (  5148 PWs)   bands (ev):

   -64.8308 -64.8262 -64.8261 -64.8253 -31.6258 -31.6249 -31.6239 -31.6058
   -31.5937 -31.5935 -31.5929 -31.5855 -31.5833 -31.5818 -31.5730 -31.5690
    -8.7964  -8.0366  -8.0309  -8.0253   3.9987   4.0003   4.0022   5.0890
     5.8392   5.8456   5.8521   6.6930   6.7056   6.7176   7.3538   7.3565

          k = 0.2489 0.2511-0.5000 (  5134 PWs)   bands (ev):

   -64.8285 -64.8281 -64.8261 -64.8255 -31.6278 -31.6276 -31.6209 -31.6208
   -31.5930 -31.5928 -31.5801 -31.5800 -31.5798 -31.5797 -31.5754 -31.5752
    -8.3994  -8.3992  -7.9975  -7.9973   3.8214   3.8215   4.1978   4.1979
     5.8300   5.8301   6.7401   6.7404   6.8685   6.8686   7.0158   7.0159

          k = 0.2489-0.5022 0.0000 (  5156 PWs)   bands (ev):

   -64.8290 -64.8286 -64.8257 -64.8251 -31.6181 -31.6178 -31.6094 -31.6091
   -31.6065 -31.6060 -31.5856 -31.5852 -31.5823 -31.5822 -31.5767 -31.5765
    -8.5083  -8.5013  -7.9505  -7.9491   4.4157   4.4207   4.7452   4.7505
     5.0985   5.1106   6.5330   6.5374   6.5599   6.5686   7.0971   7.0995

          k = 0.2489-0.5022 0.2500 (  5138 PWs)   bands (ev):

   -64.8285 -64.8281 -64.8261 -64.8255 -31.6281 -31.6280 -31.6207 -31.6206
   -31.5940 -31.5938 -31.5799 -31.5796 -31.5786 -31.5786 -31.5762 -31.5761
    -8.3982  -8.3923  -7.9988  -7.9987   3.8204   3.8204   4.1884   4.1939
     5.8306   5.8308   6.7366   6.7368   6.8733   6.8760   7.0060   7.0114

          k = 0.2489-0.5022-0.5000 (  5128 PWs)   bands (ev):

   -64.8273 -64.8273 -64.8273 -64.8263 -31.6313 -31.6310 -31.6310 -31.6310
   -31.5845 -31.5842 -31.5842 -31.5840 -31.5735 -31.5733 -31.5732 -31.5731
    -8.1681  -8.1679  -8.1650  -8.1648   3.6335   3.6336   3.6363   3.6363
     6.5161   6.5161   6.5224   6.5224   7.0692   7.0694   7.0717   7.0718

          k =-0.4979 0.0000 0.0000 (  5150 PWs)   bands (ev):

   -64.8298 -64.8294 -64.8248 -64.8243 -31.6103 -31.6097 -31.6079 -31.6073
   -31.6043 -31.6037 -31.5962 -31.5962 -31.5801 -31.5797 -31.5779 -31.5776
    -8.6580  -8.6492  -7.8538  -7.8537   4.8292   4.8400   4.8431   4.8539
     5.1239   5.1289   5.9940   5.9943   6.9618   6.9701   6.9818   6.9900

          k =-0.4979 0.0000 0.2500 (  5148 PWs)   bands (ev):

   -64.8291 -64.8287 -64.8255 -64.8250 -31.6177 -31.6173 -31.6117 -31.6113
   -31.6042 -31.6036 -31.5858 -31.5856 -31.5819 -31.5815 -31.5762 -31.5760
    -8.5200  -8.5122  -7.9468  -7.9452   4.4217   4.4274   4.7615   4.7671
     5.0885   5.1019   6.5482   6.5531   6.5692   6.5789   7.0955   7.0979

          k =-0.4979 0.0000-0.5000 (  5176 PWs)   bands (ev):

   -64.8274 -64.8273 -64.8273 -64.8263 -31.6194 -31.6193 -31.6190 -31.6190
   -31.5937 -31.5935 -31.5933 -31.5930 -31.5780 -31.5778 -31.5776 -31.5776
    -8.2110  -8.2109  -8.2061  -8.2059   4.3084   4.3086   4.3104   4.3105
     5.7606   5.7607   5.7725   5.7727   7.0547   7.0548   7.0587   7.0589

          k =-0.4979 0.2511 0.0000 (  5152 PWs)   bands (ev):

   -64.8291 -64.8287 -64.8255 -64.8250 -31.6166 -31.6163 -31.6111 -31.6108
   -31.6073 -31.6068 -31.5848 -31.5846 -31.5844 -31.5840 -31.5739 -31.5737
    -8.5186  -8.5108  -7.9451  -7.9436   4.4159   4.4216   4.7514   4.7570
     5.0808   5.0943   6.5578   6.5626   6.5823   6.5920   7.0877   7.0902

          k =-0.4979 0.2511 0.2500 (  5134 PWs)   bands (ev):

   -64.8286 -64.8282 -64.8261 -64.8255 -31.6277 -31.6276 -31.6214 -31.6213
   -31.5916 -31.5914 -31.5821 -31.5820 -31.5788 -31.5787 -31.5754 -31.5751
    -8.4066  -8.4000  -7.9959  -7.9959   3.8223   3.8224   4.2016   4.2076
     5.8296   5.8297   6.7434   6.7436   6.8611   6.8637   7.0200   7.0260

          k =-0.4979 0.2511-0.5000 (  5160 PWs)   bands (ev):

   -64.8273 -64.8273 -64.8273 -64.8263 -31.6322 -31.6320 -31.6319 -31.6319
   -31.5816 -31.5813 -31.5813 -31.5811 -31.5770 -31.5768 -31.5767 -31.5766
    -8.1714  -8.1712  -8.1678  -8.1677   3.6440   3.6441   3.6471   3.6471
     6.5258   6.5258   6.5326   6.5326   7.0563   7.0564   7.0591   7.0593

          k =-0.4979-0.5022 0.0000 (  5196 PWs)   bands (ev):

   -64.8274 -64.8273 -64.8273 -64.8263 -31.6190 -31.6188 -31.6186 -31.6184
   -31.5975 -31.5971 -31.5970 -31.5966 -31.5762 -31.5760 -31.5758 -31.5757
    -8.2101  -8.2057  -8.2052  -8.2008   4.2913   4.2932   4.2933   4.2952
     5.7557   5.7665   5.7677   5.7785   7.0593   7.0628   7.0632   7.0667

          k =-0.4979-0.5022 0.2500 (  5144 PWs)   bands (ev):

   -64.8273 -64.8273 -64.8273 -64.8263 -31.6318 -31.6315 -31.6315 -31.6315
   -31.5834 -31.5832 -31.5831 -31.5829 -31.5749 -31.5747 -31.5745 -31.5745
    -8.1713  -8.1681  -8.1678  -8.1647   3.6373   3.6401   3.6403   3.6432
     6.5177   6.5239   6.5246   6.5308   7.0614   7.0639   7.0643   7.0667

          k =-0.4979-0.5022-0.5000 (  5136 PWs)   bands (ev):

   -64.8273 -64.8273 -64.8273 -64.8263 -31.6396 -31.6393 -31.6393 -31.6393
   -31.5772 -31.5770 -31.5770 -31.5769 -31.5727 -31.5725 -31.5724 -31.5723
    -8.1300  -8.1298  -8.1298  -8.1297   3.2173   3.2175   3.2175   3.2175
     7.0576   7.0577   7.0578   7.0579   7.0722   7.0723   7.0724   7.0725

          k = 0.0000-0.2511 0.2500 (  5149 PWs)   bands (ev):

   -64.8317 -64.8261 -64.8257 -64.8248 -31.6219 -31.6207 -31.6185 -31.6057
   -31.5968 -31.5960 -31.5911 -31.5865 -31.5852 -31.5843 -31.5777 -31.5667
    -8.9641  -8.0638  -8.0560  -7.8959   4.1586   4.1626   4.3189   5.0716
     5.8346   6.0510   6.0717   6.4650   6.4720   6.5979   7.1826   7.5038

          k =-0.2489 0.0000 0.2500 (  5155 PWs)   bands (ev):

   -64.8318 -64.8262 -64.8258 -64.8246 -31.6228 -31.6211 -31.6169 -31.6085
   -31.5937 -31.5915 -31.5906 -31.5894 -31.5887 -31.5863 -31.5721 -31.5699
    -8.9684  -8.0722  -8.0643  -7.8851   4.1604   4.1637   4.3381   5.0710
     5.8596   6.0397   6.0600   6.4975   6.5042   6.5693   7.1641   7.5069

          k =-0.2489 0.2511 0.0000 (  5150 PWs)   bands (ev):

   -64.8318 -64.8261 -64.8257 -64.8247 -31.6233 -31.6193 -31.6183 -31.6072
   -31.5944 -31.5935 -31.5925 -31.5882 -31.5867 -31.5846 -31.5752 -31.5677
    -8.9662  -8.0720  -8.0561  -7.8904   4.1575   4.1654   4.3285   5.0713
     5.8470   6.0351   6.0756   6.4774   6.4916   6.5841   7.1734   7.5054

          k =-0.2489-0.2511 0.2500 (  5148 PWs)   bands (ev):

   -64.8308 -64.8262 -64.8261 -64.8253 -31.6258 -31.6249 -31.6239 -31.6058
   -31.5937 -31.5935 -31.5929 -31.5855 -31.5833 -31.5818 -31.5730 -31.5690
    -8.7964  -8.0366  -8.0309  -8.0253   3.9987   4.0003   4.0022   5.0890
     5.8392   5.8456   5.8521   6.6930   6.7056   6.7176   7.3538   7.3565

          k =-0.2489 0.2511-0.2500 (  5148 PWs)   bands (ev):

   -64.8308 -64.8262 -64.8261 -64.8253 -31.6259 -31.6249 -31.6239 -31.6058
   -31.5937 -31.5935 -31.5929 -31.5855 -31.5833 -31.5818 -31.5730 -31.5690
    -8.7964  -8.0366  -8.0309  -8.0253   3.9987   4.0003   4.0022   5.0890
     5.8392   5.8456   5.8521   6.6930   6.7056   6.7176   7.3538   7.3565

          k = 0.2489-0.2511-0.2500 (  5148 PWs)   bands (ev):

   -64.8308 -64.8262 -64.8261 -64.8253 -31.6259 -31.6249 -31.6239 -31.6058
   -31.5937 -31.5935 -31.5929 -31.5855 -31.5833 -31.5818 -31.5730 -31.5690
    -8.7964  -8.0366  -8.0309  -8.0253   3.9987   4.0003   4.0022   5.0890
     5.8392   5.8456   5.8521   6.6930   6.7056   6.7176   7.3538   7.3565

          k =-0.2489 0.2511 0.5000 (  5134 PWs)   bands (ev):

   -64.8285 -64.8281 -64.8261 -64.8255 -31.6278 -31.6276 -31.6209 -31.6208
   -31.5930 -31.5928 -31.5801 -31.5800 -31.5798 -31.5797 -31.5754 -31.5752
    -8.3994  -8.3992  -7.9975  -7.9973   3.8214   3.8215   4.1978   4.1979
     5.8300   5.8301   6.7401   6.7404   6.8685   6.8686   7.0158   7.0159

          k =-0.2489 0.5022 0.2500 (  5138 PWs)   bands (ev):

   -64.8285 -64.8281 -64.8261 -64.8255 -31.6281 -31.6280 -31.6207 -31.6206
   -31.5940 -31.5938 -31.5799 -31.5796 -31.5786 -31.5786 -31.5762 -31.5761
    -8.3982  -8.3923  -7.9988  -7.9987   3.8204   3.8204   4.1884   4.1939
     5.8306   5.8308   6.7366   6.7368   6.8733   6.8760   7.0060   7.0114

          k = 0.4979-0.2511 0.2500 (  5134 PWs)   bands (ev):

   -64.8286 -64.8282 -64.8261 -64.8255 -31.6277 -31.6276 -31.6214 -31.6213
   -31.5916 -31.5914 -31.5821 -31.5820 -31.5788 -31.5787 -31.5754 -31.5751
    -8.4066  -8.4000  -7.9959  -7.9959   3.8223   3.8224   4.2016   4.2076
     5.8296   5.8297   6.7434   6.7436   6.8611   6.8637   7.0200   7.0260

     highest occupied level (ev):     7.6817

!    total energy              =    -608.39263063 Ry
     Harris-Foulkes estimate   =    -608.39263063 Ry
     estimated scf accuracy    <          5.9E-10 Ry

     The total energy is the sum of the following terms:

     one-electron contribution =    -303.57490605 Ry
     hartree contribution      =     168.07693404 Ry
     xc contribution           =     -97.84673237 Ry
     ewald contribution        =    -375.04792625 Ry

     convergence has been achieved in   5 iterations

     Forces acting on atoms (cartesian axes, Ry/au):

     atom    1 type  1   force =    -0.00088190    0.00085436   -0.00000375
     atom    2 type  1   force =    -0.00096465   -0.00090970    0.00000401
     atom    3 type  1   force =     0.00093034    0.00094280    0.00000405
     atom    4 type  1   force =     0.00092790   -0.00090896   -0.00000420
     atom    5 type  2   force =     0.00090263    0.00087513   -0.00000389
     atom    6 type  2   force =    -0.00090936   -0.00086482   -0.00000388
     atom    7 type  2   force =    -0.00090707    0.00087378    0.00000383
     atom    8 type  2   force =     0.00090211   -0.00086259    0.00000383

     Total force =     0.003607     Total SCF correction =     0.000213


     Computing stress (Cartesian axis) and pressure

          total   stress  (Ry/bohr**3)                   (kbar)     P=  -68.15
  -0.00051369   0.00000000  -0.00000000        -75.57      0.00     -0.00
   0.00000000  -0.00041254   0.00000000          0.00    -60.69      0.00
  -0.00000000   0.00000000  -0.00046350         -0.00      0.00    -68.18


     number of scf cycles    =   3
     number of bfgs steps    =   2

     energy   old            =    -608.3925701544 Ry
     energy   new            =    -608.3926306315 Ry

     CASE: energy  _new < energy  _old

     new trust radius        =       0.0042944982 bohr
     new conv_thr            =       0.0000000006 Ry


ATOMIC_POSITIONS (alat)
Mg      -0.000958294   0.001010027  -0.000004237
Mg      -0.000992161   0.498977729   0.500004238
Mg       0.500967061   0.001046576   0.500004233
Mg       0.500961677   0.498981709  -0.000004351
O        0.501061892   0.001100104  -0.000004605
O       -0.001053246   0.498893527  -0.000004606
O       -0.001053035   0.001100090   0.500004648
O        0.501066106   0.498890239   0.500004680



     Writing output data file diamond.1.004286.70.4.save
     NEW-OLD atomic charge density approx. for the potential

     Check: negative/imaginary core charge=   -0.000007    0.000000

     total cpu time spent up to now is       35.0 secs

     per-process dynamical memory:    52.1 Mb

     Self-consistent Calculation

     iteration #  1     ecut=    70.00 Ry     beta=0.70
     Davidson diagonalization with overlap
     ethr =  1.00E-06,  avg # of iterations =  3.0

     Threshold (ethr) on eigenvalues was too large:
     Diagonalizing with lowered threshold

     Davidson diagonalization with overlap
     ethr =  3.88E-08,  avg # of iterations =  1.1

     total cpu time spent up to now is       38.5 secs

     total energy              =    -608.39264394 Ry
     Harris-Foulkes estimate   =    -608.39266213 Ry
     estimated scf accuracy    <       0.00002483 Ry

     iteration #  2     ecut=    70.00 Ry     beta=0.70
     Davidson diagonalization with overlap
     ethr =  3.88E-08,  avg # of iterations =  2.2

     total cpu time spent up to now is       39.9 secs

     total energy              =    -608.39265148 Ry
     Harris-Foulkes estimate   =    -608.39265406 Ry
     estimated scf accuracy    <       0.00000430 Ry

     iteration #  3     ecut=    70.00 Ry     beta=0.70
     Davidson diagonalization with overlap
     ethr =  6.72E-09,  avg # of iterations =  2.0

     total cpu time spent up to now is       41.4 secs

     total energy              =    -608.39265241 Ry
     Harris-Foulkes estimate   =    -608.39265240 Ry
     estimated scf accuracy    <       0.00000003 Ry

     iteration #  4     ecut=    70.00 Ry     beta=0.70
     Davidson diagonalization with overlap
     ethr =  4.46E-11,  avg # of iterations =  2.4

     total cpu time spent up to now is       43.0 secs

     total energy              =    -608.39265242 Ry
     Harris-Foulkes estimate   =    -608.39265242 Ry
     estimated scf accuracy    <          2.6E-09 Ry

     iteration #  5     ecut=    70.00 Ry     beta=0.70
     Davidson diagonalization with overlap
     ethr =  4.13E-12,  avg # of iterations =  2.1

     total cpu time spent up to now is       44.5 secs

     End of self-consistent calculation

          k = 0.0000 0.0000 0.0000 (  5153 PWs)   bands (ev):

   -64.8344 -64.8250 -64.8248 -64.8241 -31.6330 -31.6308 -31.6286 -31.5959
   -31.5949 -31.5943 -31.5923 -31.5915 -31.5905 -31.5680 -31.5637 -31.5614
    -9.3648  -7.9252  -7.9139  -7.9028   3.7442   3.7579   3.7722   6.3495
     6.3535   6.3761   6.3837   6.4068   6.4104   7.6622   7.6725   7.6818

          k = 0.0000 0.0000 0.2500 (  5161 PWs)   bands (ev):

   -64.8330 -64.8262 -64.8249 -64.8243 -31.6270 -31.6217 -31.6205 -31.6016
   -31.5949 -31.5945 -31.5932 -31.5913 -31.5864 -31.5780 -31.5736 -31.5685
    -9.1564  -8.1288  -7.8935  -7.8776   4.0353   4.0616   4.0951   5.8509
     5.8650   6.1497   6.1914   6.5186   6.5676   6.6590   7.4371   7.4633

          k = 0.0000 0.0000-0.5000 (  5126 PWs)   bands (ev):

   -64.8298 -64.8293 -64.8249 -64.8244 -31.6131 -31.6128 -31.6070 -31.6067
   -31.6018 -31.6018 -31.5909 -31.5908 -31.5825 -31.5823 -31.5783 -31.5781
    -8.6461  -8.6461  -7.8568  -7.8567   4.8367   4.8367   4.8584   4.8584
     5.1226   5.1229   5.9733   5.9736   6.9485   6.9485   6.9881   6.9881

          k = 0.0000 0.2511 0.0000 (  5161 PWs)   bands (ev):

   -64.8330 -64.8260 -64.8250 -64.8244 -31.6268 -31.6241 -31.6186 -31.6005
   -31.5973 -31.5922 -31.5911 -31.5904 -31.5898 -31.5757 -31.5737 -31.5714
    -9.1539  -8.1181  -7.8938  -7.8858   4.0383   4.0511   4.1023   5.8746
     5.8814   6.1437   6.1644   6.5156   6.5403   6.6498   7.4444   7.4574

          k = 0.0000 0.2511 0.2500 (  5149 PWs)   bands (ev):

   -64.8318 -64.8261 -64.8257 -64.8248 -31.6219 -31.6207 -31.6185 -31.6057
   -31.5968 -31.5960 -31.5911 -31.5865 -31.5852 -31.5844 -31.5778 -31.5667
    -8.9640  -8.0638  -8.0559  -7.8959   4.1586   4.1626   4.3189   5.0716
     5.8346   6.0511   6.0717   6.4651   6.4720   6.5979   7.1826   7.5038

          k = 0.0000 0.2511-0.5000 (  5146 PWs)   bands (ev):

   -64.8291 -64.8286 -64.8256 -64.8251 -31.6157 -31.6155 -31.6094 -31.6093
   -31.6093 -31.6091 -31.5874 -31.5871 -31.5826 -31.5825 -31.5729 -31.5727
    -8.5084  -8.5084  -7.9456  -7.9455   4.4124   4.4125   4.7409   4.7411
     5.0889   5.0889   6.5572   6.5575   6.5890   6.5890   7.0865   7.0866

          k = 0.0000-0.5022 0.0000 (  5118 PWs)   bands (ev):

   -64.8297 -64.8293 -64.8250 -64.8244 -31.6124 -31.6122 -31.6092 -31.6090
   -31.5987 -31.5987 -31.5888 -31.5888 -31.5829 -31.5827 -31.5809 -31.5807
    -8.6387  -8.6384  -7.8597  -7.8596   4.8477   4.8480   4.8590   4.8594
     5.1186   5.1190   5.9514   5.9518   6.9505   6.9509   6.9701   6.9705

          k = 0.0000-0.5022 0.2500 (  5146 PWs)   bands (ev):

   -64.8290 -64.8286 -64.8257 -64.8251 -31.6168 -31.6166 -31.6088 -31.6088
   -31.6087 -31.6085 -31.5879 -31.5877 -31.5809 -31.5808 -31.5742 -31.5741
    -8.5036  -8.5033  -7.9483  -7.9482   4.4119   4.4120   4.7375   4.7380
     5.0973   5.0976   6.5449   6.5452   6.5773   6.5776   7.0912   7.0912

          k = 0.0000-0.5022-0.5000 (  5176 PWs)   bands (ev):

   -64.8273 -64.8273 -64.8273 -64.8263 -31.6180 -31.6179 -31.6177 -31.6177
   -31.5994 -31.5992 -31.5992 -31.5990 -31.5740 -31.5738 -31.5737 -31.5737
    -8.2027  -8.2026  -8.2024  -8.2024   4.2769   4.2770   4.2772   4.2774
     5.7687   5.7687   5.7692   5.7692   7.0695   7.0697   7.0698   7.0700

          k = 0.2489 0.0000 0.0000 (  5160 PWs)   bands (ev):

   -64.8330 -64.8263 -64.8248 -64.8243 -31.6241 -31.6239 -31.6217 -31.5987
   -31.5963 -31.5955 -31.5953 -31.5881 -31.5856 -31.5819 -31.5714 -31.5686
    -9.1588  -8.1395  -7.8851  -7.8772   4.0457   4.0591   4.0872   5.8345
     5.8418   6.1768   6.1979   6.5454   6.5697   6.6669   7.4428   7.4560

          k = 0.2489 0.0000 0.2500 (  5155 PWs)   bands (ev):

   -64.8318 -64.8262 -64.8258 -64.8246 -31.6228 -31.6211 -31.6169 -31.6086
   -31.5937 -31.5915 -31.5907 -31.5895 -31.5887 -31.5864 -31.5721 -31.5699
    -8.9684  -8.0722  -8.0643  -7.8851   4.1604   4.1637   4.3382   5.0710
     5.8596   6.0397   6.0600   6.4975   6.5043   6.5693   7.1641   7.5069

          k = 0.2489 0.0000-0.5000 (  5148 PWs)   bands (ev):

   -64.8291 -64.8286 -64.8256 -64.8251 -31.6184 -31.6182 -31.6103 -31.6102
   -31.6040 -31.6037 -31.5845 -31.5845 -31.5822 -31.5819 -31.5776 -31.5775
    -8.5111  -8.5111  -7.9488  -7.9487   4.4245   4.4246   4.7612   4.7614
     5.1036   5.1036   6.5382   6.5384   6.5625   6.5625   7.1013   7.1014

          k = 0.2489 0.2511 0.0000 (  5150 PWs)   bands (ev):

   -64.8318 -64.8262 -64.8257 -64.8247 -31.6233 -31.6193 -31.6183 -31.6073
   -31.5944 -31.5935 -31.5926 -31.5882 -31.5867 -31.5847 -31.5752 -31.5677
    -8.9662  -8.0720  -8.0561  -7.8904   4.1575   4.1654   4.3285   5.0713
     5.8471   6.0351   6.0757   6.4774   6.4916   6.5840   7.1734   7.5054

          k = 0.2489 0.2511 0.2500 (  5148 PWs)   bands (ev):

   -64.8308 -64.8262 -64.8261 -64.8253 -31.6259 -31.6249 -31.6239 -31.6058
   -31.5937 -31.5936 -31.5930 -31.5855 -31.5833 -31.5819 -31.5731 -31.5690
    -8.7964  -8.0366  -8.0309  -8.0253   3.9987   4.0003   4.0022   5.0890
     5.8392   5.8456   5.8521   6.6931   6.7056   6.7176   7.3538   7.3565

          k = 0.2489 0.2511-0.5000 (  5134 PWs)   bands (ev):

   -64.8286 -64.8281 -64.8261 -64.8255 -31.6278 -31.6276 -31.6209 -31.6208
   -31.5930 -31.5928 -31.5801 -31.5800 -31.5799 -31.5797 -31.5754 -31.5752
    -8.3993  -8.3992  -7.9974  -7.9973   3.8214   3.8215   4.1978   4.1979
     5.8300   5.8300   6.7402   6.7404   6.8685   6.8686   7.0158   7.0158

          k = 0.2489-0.5022 0.0000 (  5156 PWs)   bands (ev):

   -64.8290 -64.8286 -64.8257 -64.8251 -31.6180 -31.6178 -31.6093 -31.6093
   -31.6064 -31.6062 -31.5855 -31.5853 -31.5823 -31.5822 -31.5767 -31.5766
    -8.5049  -8.5046  -7.9498  -7.9497   4.4182   4.4182   4.7476   4.7481
     5.1044   5.1048   6.5351   6.5354   6.5641   6.5645   7.0983   7.0983

          k = 0.2489-0.5022 0.2500 (  5138 PWs)   bands (ev):

   -64.8285 -64.8281 -64.8262 -64.8256 -31.6281 -31.6280 -31.6207 -31.6206
   -31.5940 -31.5938 -31.5799 -31.5797 -31.5786 -31.5786 -31.5762 -31.5761
    -8.3953  -8.3951  -7.9988  -7.9987   3.8204   3.8205   4.1909   4.1914
     5.8307   5.8307   6.7366   6.7368   6.8746   6.8747   7.0085   7.0088

          k = 0.2489-0.5022-0.5000 (  5128 PWs)   bands (ev):

   -64.8273 -64.8273 -64.8273 -64.8263 -31.6313 -31.6310 -31.6310 -31.6310
   -31.5845 -31.5842 -31.5842 -31.5841 -31.5735 -31.5733 -31.5732 -31.5731
    -8.1666  -8.1665  -8.1663  -8.1663   3.6347   3.6348   3.6350   3.6351
     6.5191   6.5191   6.5194   6.5195   7.0704   7.0705   7.0706   7.0708

          k =-0.4979 0.0000 0.0000 (  5150 PWs)   bands (ev):

   -64.8298 -64.8294 -64.8248 -64.8243 -31.6101 -31.6099 -31.6077 -31.6075
   -31.6041 -31.6039 -31.5963 -31.5962 -31.5800 -31.5798 -31.5779 -31.5776
    -8.6539  -8.6532  -7.8537  -7.8536   4.8356   4.8368   4.8463   4.8476
     5.1262   5.1266   5.9940   5.9943   6.9657   6.9663   6.9856   6.9862

          k =-0.4979 0.0000 0.2500 (  5148 PWs)   bands (ev):

   -64.8291 -64.8287 -64.8256 -64.8250 -31.6176 -31.6174 -31.6115 -31.6115
   -31.6040 -31.6038 -31.5857 -31.5857 -31.5818 -31.5816 -31.5762 -31.5760
    -8.5164  -8.5157  -7.9460  -7.9459   4.4243   4.4249   4.7642   4.7645
     5.0946   5.0958   6.5506   6.5510   6.5735   6.5743   7.0966   7.0969

          k =-0.4979 0.0000-0.5000 (  5176 PWs)   bands (ev):

   -64.8273 -64.8273 -64.8273 -64.8263 -31.6194 -31.6192 -31.6191 -31.6191
   -31.5936 -31.5934 -31.5934 -31.5931 -31.5779 -31.5778 -31.5776 -31.5776
    -8.2087  -8.2086  -8.2083  -8.2082   4.3094   4.3095   4.3095   4.3097
     5.7661   5.7661   5.7671   5.7672   7.0566   7.0567   7.0568   7.0570

          k =-0.4979 0.2511 0.0000 (  5152 PWs)   bands (ev):

   -64.8291 -64.8287 -64.8256 -64.8250 -31.6165 -31.6164 -31.6110 -31.6109
   -31.6072 -31.6069 -31.5847 -31.5847 -31.5843 -31.5841 -31.5739 -31.5737
    -8.5150  -8.5143  -7.9444  -7.9443   4.4184   4.4190   4.7541   4.7543
     5.0870   5.0882   6.5600   6.5605   6.5868   6.5875   7.0888   7.0891

          k =-0.4979 0.2511 0.2500 (  5134 PWs)   bands (ev):

   -64.8286 -64.8282 -64.8261 -64.8255 -31.6277 -31.6276 -31.6214 -31.6213
   -31.5916 -31.5914 -31.5821 -31.5821 -31.5788 -31.5787 -31.5754 -31.5752
    -8.4035  -8.4030  -7.9959  -7.9958   3.8223   3.8224   4.2044   4.2047
     5.8297   5.8297   6.7434   6.7436   6.8622   6.8626   7.0228   7.0232

          k =-0.4979 0.2511-0.5000 (  5160 PWs)   bands (ev):

   -64.8273 -64.8273 -64.8273 -64.8263 -31.6322 -31.6320 -31.6320 -31.6319
   -31.5816 -31.5814 -31.5813 -31.5812 -31.5770 -31.5768 -31.5767 -31.5767
    -8.1697  -8.1696  -8.1694  -8.1693   3.6454   3.6456   3.6456   3.6456
     6.5289   6.5289   6.5295   6.5295   7.0576   7.0578   7.0578   7.0580

          k =-0.4979-0.5022 0.0000 (  5196 PWs)   bands (ev):

   -64.8273 -64.8273 -64.8273 -64.8263 -31.6189 -31.6187 -31.6186 -31.6185
   -31.5973 -31.5971 -31.5971 -31.5968 -31.5761 -31.5760 -31.5758 -31.5758
    -8.2057  -8.2055  -8.2053  -8.2051   4.2930   4.2931   4.2933   4.2936
     5.7664   5.7668   5.7675   5.7679   7.0627   7.0630   7.0630   7.0633

          k =-0.4979-0.5022 0.2500 (  5144 PWs)   bands (ev):

   -64.8273 -64.8273 -64.8273 -64.8263 -31.6318 -31.6315 -31.6315 -31.6315
   -31.5834 -31.5832 -31.5831 -31.5830 -31.5749 -31.5747 -31.5746 -31.5745
    -8.1682  -8.1680  -8.1678  -8.1677   3.6400   3.6402   3.6403   3.6404
     6.5238   6.5241   6.5244   6.5247   7.0639   7.0641   7.0641   7.0643

          k =-0.4979-0.5022-0.5000 (  5136 PWs)   bands (ev):

   -64.8273 -64.8273 -64.8273 -64.8263 -31.6396 -31.6394 -31.6393 -31.6393
   -31.5772 -31.5770 -31.5770 -31.5769 -31.5727 -31.5725 -31.5724 -31.5723
    -8.1299  -8.1298  -8.1298  -8.1298   3.2173   3.2175   3.2175   3.2175
     7.0576   7.0577   7.0578   7.0579   7.0722   7.0723   7.0724   7.0725

          k = 0.0000-0.2511 0.2500 (  5149 PWs)   bands (ev):

   -64.8318 -64.8261 -64.8257 -64.8248 -31.6219 -31.6207 -31.6185 -31.6057
   -31.5968 -31.5960 -31.5911 -31.5865 -31.5852 -31.5844 -31.5778 -31.5667
    -8.9640  -8.0638  -8.0559  -7.8959   4.1586   4.1626   4.3189   5.0716
     5.8346   6.0511   6.0717   6.4651   6.4720   6.5979   7.1826   7.5038

          k =-0.2489 0.0000 0.2500 (  5155 PWs)   bands (ev):

   -64.8318 -64.8262 -64.8258 -64.8246 -31.6228 -31.6211 -31.6169 -31.6086
   -31.5937 -31.5915 -31.5907 -31.5895 -31.5887 -31.5864 -31.5721 -31.5699
    -8.9684  -8.0722  -8.0643  -7.8851   4.1604   4.1637   4.3382   5.0710
     5.8596   6.0397   6.0600   6.4975   6.5043   6.5693   7.1641   7.5069

          k =-0.2489 0.2511 0.0000 (  5150 PWs)   bands (ev):

   -64.8318 -64.8262 -64.8257 -64.8247 -31.6233 -31.6193 -31.6183 -31.6073
   -31.5944 -31.5935 -31.5926 -31.5882 -31.5867 -31.5847 -31.5752 -31.5677
    -8.9662  -8.0720  -8.0561  -7.8904   4.1575   4.1654   4.3285   5.0713
     5.8471   6.0351   6.0757   6.4774   6.4916   6.5840   7.1734   7.5054

          k =-0.2489-0.2511 0.2500 (  5148 PWs)   bands (ev):

   -64.8308 -64.8262 -64.8261 -64.8253 -31.6259 -31.6249 -31.6239 -31.6058
   -31.5937 -31.5936 -31.5930 -31.5855 -31.5833 -31.5819 -31.5731 -31.5690
    -8.7964  -8.0366  -8.0309  -8.0253   3.9987   4.0003   4.0022   5.0890
     5.8392   5.8456   5.8521   6.6931   6.7056   6.7176   7.3538   7.3565

          k =-0.2489 0.2511-0.2500 (  5148 PWs)   bands (ev):

   -64.8308 -64.8262 -64.8261 -64.8253 -31.6259 -31.6249 -31.6239 -31.6058
   -31.5937 -31.5936 -31.5930 -31.5855 -31.5833 -31.5819 -31.5731 -31.5690
    -8.7964  -8.0366  -8.0309  -8.0253   3.9987   4.0003   4.0022   5.0890
     5.8392   5.8456   5.8521   6.6931   6.7056   6.7176   7.3538   7.3565

          k = 0.2489-0.2511-0.2500 (  5148 PWs)   bands (ev):

   -64.8308 -64.8262 -64.8261 -64.8253 -31.6259 -31.6249 -31.6239 -31.6058
   -31.5937 -31.5936 -31.5930 -31.5855 -31.5833 -31.5819 -31.5731 -31.5690
    -8.7964  -8.0366  -8.0309  -8.0253   3.9987   4.0003   4.0022   5.0890
     5.8392   5.8456   5.8521   6.6931   6.7056   6.7176   7.3538   7.3565

          k =-0.2489 0.2511 0.5000 (  5134 PWs)   bands (ev):

   -64.8286 -64.8281 -64.8261 -64.8255 -31.6278 -31.6276 -31.6209 -31.6208
   -31.5930 -31.5928 -31.5801 -31.5800 -31.5799 -31.5797 -31.5754 -31.5752
    -8.3993  -8.3992  -7.9974  -7.9973   3.8214   3.8215   4.1978   4.1979
     5.8300   5.8300   6.7402   6.7404   6.8685   6.8686   7.0158   7.0158

          k =-0.2489 0.5022 0.2500 (  5138 PWs)   bands (ev):

   -64.8285 -64.8281 -64.8262 -64.8256 -31.6281 -31.6280 -31.6207 -31.6206
   -31.5940 -31.5938 -31.5799 -31.5797 -31.5786 -31.5786 -31.5762 -31.5761
    -8.3953  -8.3951  -7.9988  -7.9987   3.8204   3.8205   4.1909   4.1914
     5.8307   5.8307   6.7366   6.7368   6.8746   6.8747   7.0085   7.0088

          k = 0.4979-0.2511 0.2500 (  5134 PWs)   bands (ev):

   -64.8286 -64.8282 -64.8261 -64.8255 -31.6277 -31.6276 -31.6214 -31.6213
   -31.5916 -31.5914 -31.5821 -31.5821 -31.5788 -31.5787 -31.5754 -31.5752
    -8.4035  -8.4030  -7.9959  -7.9958   3.8223   3.8224   4.2044   4.2047
     5.8297   5.8297   6.7434   6.7436   6.8622   6.8626   7.0228   7.0232

     highest occupied level (ev):     7.6818

!    total energy              =    -608.39265242 Ry
     Harris-Foulkes estimate   =    -608.39265242 Ry
     estimated scf accuracy    <          4.4E-10 Ry

     The total energy is the sum of the following terms:

     one-electron contribution =    -303.57036964 Ry
     hartree contribution      =     168.07464978 Ry
     xc contribution           =     -97.84668577 Ry
     ewald contribution        =    -375.05024679 Ry

     convergence has been achieved in   5 iterations

     Forces acting on atoms (cartesian axes, Ry/au):

     atom    1 type  1   force =    -0.00007146   -0.00004279   -0.00000005
     atom    2 type  1   force =    -0.00017528   -0.00003956    0.00000045
     atom    3 type  1   force =     0.00015210    0.00006146    0.00000046
     atom    4 type  1   force =     0.00015449   -0.00004207   -0.00000054
     atom    5 type  2   force =    -0.00002138   -0.00010965    0.00000022
     atom    6 type  2   force =    -0.00000250    0.00013339    0.00000022
     atom    7 type  2   force =    -0.00000179   -0.00011149   -0.00000034
     atom    8 type  2   force =    -0.00003419    0.00015071   -0.00000042

     Total force =     0.000398     Total SCF correction =     0.000233
     SCF correction compared to forces is large: reduce conv_thr to get better values


     Computing stress (Cartesian axis) and pressure

          total   stress  (Ry/bohr**3)                   (kbar)     P=  -68.17
  -0.00051394   0.00000000  -0.00000000        -75.60      0.00     -0.00
   0.00000000  -0.00041276   0.00000000          0.00    -60.72      0.00
  -0.00000000   0.00000000  -0.00046351         -0.00      0.00    -68.18


     number of scf cycles    =   4
     number of bfgs steps    =   3

     energy   old            =    -608.3926306315 Ry
     energy   new            =    -608.3926524197 Ry

     CASE: energy  _new < energy  _old

     new trust radius        =       0.0002068032 bohr
     new conv_thr            =       0.0000000002 Ry


ATOMIC_POSITIONS (alat)
Mg      -0.000969746   0.001007293  -0.000004254
Mg      -0.001016712   0.498970110   0.500004305
Mg       0.500988643   0.001057002   0.500004302
Mg       0.500983545   0.498973785  -0.000004430
O        0.501061976   0.001089220  -0.000004589
O       -0.001056301   0.498907370  -0.000004591
O       -0.001055999   0.001088975   0.500004617
O        0.501064595   0.498906245   0.500004639



     Writing output data file diamond.1.004286.70.4.save
     NEW-OLD atomic charge density approx. for the potential

     Check: negative/imaginary core charge=   -0.000007    0.000000

     total cpu time spent up to now is       45.3 secs

     per-process dynamical memory:    52.1 Mb

     Self-consistent Calculation

     iteration #  1     ecut=    70.00 Ry     beta=0.70
     Davidson diagonalization with overlap
     ethr =  1.00E-06,  avg # of iterations =  2.0

     Threshold (ethr) on eigenvalues was too large:
     Diagonalizing with lowered threshold

     Davidson diagonalization with overlap
[...]
  -0.00000000   0.00000000  -0.00046350         -0.00      0.00    -68.18


     number of scf cycles    =   5
     number of bfgs steps    =   4

     energy   old            =    -608.3926524197 Ry
     energy   new            =    -608.3926525558 Ry

     CASE: energy  _new < energy  _old

     new trust radius        =       0.0002274835 bohr
     new conv_thr            =            1.0E-10 Ry


ATOMIC_POSITIONS (alat)
Mg      -0.000978290   0.000998717  -0.000004251
Mg      -0.001044356   0.498964158   0.500004373
Mg       0.501012118   0.001066910   0.500004372
Mg       0.501007489   0.498967423  -0.000004514
O        0.501058935   0.001073528  -0.000004561
O       -0.001057435   0.498926645  -0.000004562
O       -0.001056897   0.001073031   0.500004569
O        0.501058435   0.498929589   0.500004574



     Writing output data file diamond.1.004286.70.4.save
     NEW-OLD atomic charge density approx. for the potential

     Check: negative/imaginary core charge=   -0.000007    0.000000

     total cpu time spent up to now is       54.6 secs

     per-process dynamical memory:    52.1 Mb

     Self-consistent Calculation

     iteration #  1     ecut=    70.00 Ry     beta=0.70
     Davidson diagonalization with overlap
     ethr =  1.00E-06,  avg # of iterations =  2.0

     Threshold (ethr) on eigenvalues was too large:
     Diagonalizing with lowered threshold

     Davidson diagonalization with overlap
     ethr =  2.48E-11,  avg # of iterations =  3.7

     total cpu time spent up to now is       58.3 secs

     total energy              =    -608.39265265 Ry
     Harris-Foulkes estimate   =    -608.39265267 Ry
     estimated scf accuracy    <       0.00000002 Ry

     iteration #  2     ecut=    70.00 Ry     beta=0.70
     Davidson diagonalization with overlap
     ethr =  3.17E-11,  avg # of iterations =  2.1

     total cpu time spent up to now is       59.7 secs

     total energy              =    -608.39265266 Ry
     Harris-Foulkes estimate   =    -608.39265266 Ry
     estimated scf accuracy    <          3.5E-09 Ry

     iteration #  3     ecut=    70.00 Ry     beta=0.70
     Davidson diagonalization with overlap
     ethr =  5.41E-12,  avg # of iterations =  2.0

     total cpu time spent up to now is       61.2 secs

     End of self-consistent calculation

          k = 0.0000 0.0000 0.0000 (  5153 PWs)   bands (ev):

   -64.8344 -64.8250 -64.8248 -64.8241 -31.6330 -31.6308 -31.6286 -31.5959
   -31.5949 -31.5943 -31.5923 -31.5915 -31.5905 -31.5680 -31.5637 -31.5614
    -9.3648  -7.9252  -7.9139  -7.9028   3.7442   3.7579   3.7722   6.3495
     6.3535   6.3761   6.3837   6.4068   6.4104   7.6622   7.6725   7.6818

          k = 0.0000 0.0000 0.2500 (  5161 PWs)   bands (ev):

   -64.8330 -64.8262 -64.8249 -64.8243 -31.6270 -31.6217 -31.6205 -31.6016
   -31.5949 -31.5945 -31.5932 -31.5913 -31.5864 -31.5780 -31.5736 -31.5685
    -9.1564  -8.1288  -7.8935  -7.8776   4.0353   4.0616   4.0951   5.8509
     5.8650   6.1497   6.1914   6.5186   6.5676   6.6590   7.4371   7.4633

          k = 0.0000 0.0000-0.5000 (  5126 PWs)   bands (ev):

   -64.8298 -64.8293 -64.8249 -64.8244 -31.6131 -31.6128 -31.6070 -31.6067
   -31.6018 -31.6018 -31.5909 -31.5908 -31.5825 -31.5822 -31.5783 -31.5781
    -8.6462  -8.6461  -7.8568  -7.8567   4.8367   4.8368   4.8584   4.8585
     5.1226   5.1229   5.9733   5.9736   6.9484   6.9485   6.9880   6.9881

          k = 0.0000 0.2511 0.0000 (  5161 PWs)   bands (ev):

   -64.8330 -64.8260 -64.8250 -64.8244 -31.6268 -31.6241 -31.6186 -31.6005
   -31.5973 -31.5922 -31.5911 -31.5904 -31.5898 -31.5757 -31.5737 -31.5714
    -9.1539  -8.1181  -7.8938  -7.8858   4.0383   4.0511   4.1023   5.8746
     5.8814   6.1437   6.1644   6.5156   6.5403   6.6498   7.4444   7.4574

          k = 0.0000 0.2511 0.2500 (  5149 PWs)   bands (ev):

   -64.8318 -64.8261 -64.8257 -64.8248 -31.6219 -31.6207 -31.6185 -31.6057
   -31.5968 -31.5960 -31.5911 -31.5865 -31.5853 -31.5844 -31.5778 -31.5667
    -8.9640  -8.0638  -8.0559  -7.8959   4.1586   4.1626   4.3189   5.0716
     5.8346   6.0511   6.0717   6.4651   6.4720   6.5979   7.1826   7.5038

          k = 0.0000 0.2511-0.5000 (  5146 PWs)   bands (ev):

   -64.8291 -64.8286 -64.8256 -64.8251 -31.6157 -31.6155 -31.6094 -31.6093
   -31.6093 -31.6091 -31.5874 -31.5871 -31.5826 -31.5825 -31.5729 -31.5727
    -8.5084  -8.5083  -7.9456  -7.9455   4.4124   4.4125   4.7409   4.7411
     5.0889   5.0889   6.5572   6.5575   6.5890   6.5891   7.0866   7.0866

          k = 0.0000-0.5022 0.0000 (  5118 PWs)   bands (ev):

   -64.8297 -64.8293 -64.8250 -64.8244 -31.6124 -31.6122 -31.6092 -31.6090
   -31.5987 -31.5987 -31.5888 -31.5888 -31.5829 -31.5827 -31.5809 -31.5807
    -8.6387  -8.6385  -7.8597  -7.8596   4.8477   4.8480   4.8590   4.8594
     5.1187   5.1190   5.9514   5.9518   6.9506   6.9507   6.9703   6.9704

          k = 0.0000-0.5022 0.2500 (  5146 PWs)   bands (ev):

   -64.8290 -64.8286 -64.8257 -64.8251 -31.6168 -31.6166 -31.6088 -31.6088
   -31.6087 -31.6085 -31.5879 -31.5877 -31.5809 -31.5808 -31.5742 -31.5741
    -8.5035  -8.5033  -7.9483  -7.9482   4.4118   4.4120   4.7376   4.7378
     5.0973   5.0976   6.5449   6.5452   6.5774   6.5775   7.0911   7.0912

          k = 0.0000-0.5022-0.5000 (  5176 PWs)   bands (ev):

   -64.8273 -64.8273 -64.8273 -64.8263 -31.6180 -31.6179 -31.6177 -31.6177
   -31.5994 -31.5993 -31.5992 -31.5990 -31.5740 -31.5738 -31.5737 -31.5737
    -8.2027  -8.2025  -8.2025  -8.2024   4.2770   4.2771   4.2771   4.2773
     5.7687   5.7688   5.7691   5.7692   7.0696   7.0697   7.0697   7.0699

          k = 0.2489 0.0000 0.0000 (  5160 PWs)   bands (ev):

   -64.8330 -64.8263 -64.8248 -64.8243 -31.6241 -31.6239 -31.6217 -31.5987
   -31.5963 -31.5955 -31.5953 -31.5881 -31.5856 -31.5819 -31.5714 -31.5686
    -9.1588  -8.1395  -7.8851  -7.8772   4.0457   4.0591   4.0872   5.8345
     5.8418   6.1768   6.1979   6.5454   6.5697   6.6669   7.4428   7.4560

          k = 0.2489 0.0000 0.2500 (  5155 PWs)   bands (ev):

   -64.8318 -64.8262 -64.8258 -64.8246 -31.6228 -31.6211 -31.6169 -31.6086
   -31.5937 -31.5915 -31.5907 -31.5895 -31.5887 -31.5864 -31.5721 -31.5699
    -8.9684  -8.0722  -8.0643  -7.8851   4.1604   4.1637   4.3382   5.0710
     5.8596   6.0397   6.0600   6.4975   6.5043   6.5693   7.1641   7.5069

          k = 0.2489 0.0000-0.5000 (  5148 PWs)   bands (ev):

   -64.8291 -64.8286 -64.8256 -64.8251 -31.6184 -31.6182 -31.6103 -31.6102
   -31.6040 -31.6037 -31.5845 -31.5845 -31.5822 -31.5819 -31.5776 -31.5775
    -8.5112  -8.5111  -7.9488  -7.9487   4.4245   4.4245   4.7612   4.7614
     5.1036   5.1036   6.5381   6.5384   6.5625   6.5626   7.1013   7.1014

          k = 0.2489 0.2511 0.0000 (  5150 PWs)   bands (ev):

   -64.8318 -64.8262 -64.8257 -64.8247 -31.6233 -31.6193 -31.6183 -31.6073
   -31.5944 -31.5935 -31.5926 -31.5882 -31.5867 -31.5847 -31.5752 -31.5677
    -8.9662  -8.0720  -8.0561  -7.8904   4.1575   4.1654   4.3285   5.0713
     5.8471   6.0351   6.0757   6.4774   6.4916   6.5840   7.1734   7.5054

          k = 0.2489 0.2511 0.2500 (  5148 PWs)   bands (ev):

   -64.8308 -64.8262 -64.8261 -64.8253 -31.6259 -31.6249 -31.6239 -31.6058
   -31.5937 -31.5936 -31.5930 -31.5855 -31.5833 -31.5819 -31.5731 -31.5690
    -8.7964  -8.0366  -8.0309  -8.0253   3.9987   4.0003   4.0022   5.0890
     5.8392   5.8456   5.8521   6.6931   6.7056   6.7176   7.3538   7.3565

          k = 0.2489 0.2511-0.5000 (  5134 PWs)   bands (ev):

   -64.8286 -64.8281 -64.8261 -64.8255 -31.6278 -31.6276 -31.6209 -31.6208
   -31.5930 -31.5928 -31.5801 -31.5800 -31.5799 -31.5797 -31.5754 -31.5752
    -8.3993  -8.3992  -7.9974  -7.9973   3.8215   3.8215   4.1978   4.1979
     5.8300   5.8301   6.7402   6.7405   6.8685   6.8686   7.0158   7.0159

          k = 0.2489-0.5022 0.0000 (  5156 PWs)   bands (ev):

   -64.8290 -64.8286 -64.8257 -64.8251 -31.6180 -31.6178 -31.6093 -31.6093
   -31.6064 -31.6062 -31.5855 -31.5853 -31.5823 -31.5822 -31.5767 -31.5766
    -8.5049  -8.5047  -7.9498  -7.9497   4.4181   4.4183   4.7478   4.7480
     5.1044   5.1047   6.5351   6.5353   6.5642   6.5643   7.0983   7.0983

          k = 0.2489-0.5022 0.2500 (  5138 PWs)   bands (ev):

   -64.8285 -64.8281 -64.8262 -64.8256 -31.6281 -31.6280 -31.6207 -31.6206
   -31.5940 -31.5938 -31.5799 -31.5797 -31.5786 -31.5786 -31.5762 -31.5761
    -8.3953  -8.3951  -7.9988  -7.9987   3.8204   3.8205   4.1911   4.1912
     5.8307   5.8308   6.7366   6.7368   6.8746   6.8748   7.0086   7.0087

          k = 0.2489-0.5022-0.5000 (  5128 PWs)   bands (ev):

   -64.8273 -64.8273 -64.8273 -64.8263 -31.6313 -31.6310 -31.6310 -31.6310
   -31.5845 -31.5842 -31.5842 -31.5841 -31.5735 -31.5733 -31.5732 -31.5731
    -8.1666  -8.1664  -8.1664  -8.1663   3.6348   3.6349   3.6349   3.6350
     6.5191   6.5191   6.5194   6.5194   7.0704   7.0706   7.0706   7.0707

          k =-0.4979 0.0000 0.0000 (  5150 PWs)   bands (ev):

   -64.8298 -64.8294 -64.8248 -64.8243 -31.6101 -31.6099 -31.6077 -31.6075
   -31.6040 -31.6040 -31.5963 -31.5962 -31.5800 -31.5798 -31.5779 -31.5777
    -8.6538  -8.6533  -7.8537  -7.8537   4.8357   4.8366   4.8465   4.8474
     5.1262   5.1266   5.9940   5.9943   6.9658   6.9662   6.9857   6.9861

          k =-0.4979 0.0000 0.2500 (  5148 PWs)   bands (ev):

   -64.8291 -64.8287 -64.8256 -64.8250 -31.6176 -31.6174 -31.6115 -31.6115
   -31.6040 -31.6038 -31.5857 -31.5857 -31.5818 -31.5816 -31.5762 -31.5760
    -8.5163  -8.5158  -7.9460  -7.9459   4.4244   4.4248   4.7642   4.7645
     5.0947   5.0956   6.5507   6.5510   6.5736   6.5742   7.0966   7.0968

          k =-0.4979 0.0000-0.5000 (  5176 PWs)   bands (ev):

   -64.8273 -64.8273 -64.8273 -64.8263 -31.6194 -31.6192 -31.6191 -31.6191
   -31.5936 -31.5934 -31.5934 -31.5931 -31.5779 -31.5778 -31.5776 -31.5776
    -8.2087  -8.2085  -8.2083  -8.2082   4.3094   4.3095   4.3095   4.3097
     5.7662   5.7662   5.7670   5.7671   7.0566   7.0567   7.0568   7.0570

          k =-0.4979 0.2511 0.0000 (  5152 PWs)   bands (ev):

   -64.8291 -64.8287 -64.8256 -64.8250 -31.6165 -31.6164 -31.6110 -31.6109
   -31.6072 -31.6070 -31.5847 -31.5847 -31.5843 -31.5841 -31.5739 -31.5737
    -8.5149  -8.5144  -7.9444  -7.9443   4.4185   4.4189   4.7541   4.7543
     5.0872   5.0880   6.5601   6.5604   6.5869   6.5875   7.0888   7.0890

          k =-0.4979 0.2511 0.2500 (  5134 PWs)   bands (ev):

   -64.8286 -64.8282 -64.8261 -64.8255 -31.6277 -31.6276 -31.6214 -31.6213
   -31.5916 -31.5914 -31.5821 -31.5821 -31.5788 -31.5787 -31.5754 -31.5752
    -8.4035  -8.4031  -7.9959  -7.9958   3.8223   3.8224   4.2044   4.2047
     5.8297   5.8297   6.7434   6.7436   6.8623   6.8625   7.0228   7.0231

          k =-0.4979 0.2511-0.5000 (  5160 PWs)   bands (ev):

   -64.8273 -64.8273 -64.8273 -64.8263 -31.6322 -31.6320 -31.6320 -31.6319
   -31.5816 -31.5814 -31.5813 -31.5812 -31.5770 -31.5768 -31.5767 -31.5767
    -8.1697  -8.1695  -8.1694  -8.1693   3.6454   3.6456   3.6456   3.6457
     6.5289   6.5290   6.5294   6.5295   7.0576   7.0578   7.0578   7.0580

          k =-0.4979-0.5022 0.0000 (  5196 PWs)   bands (ev):

   -64.8273 -64.8273 -64.8273 -64.8263 -31.6189 -31.6187 -31.6186 -31.6185
   -31.5973 -31.5971 -31.5971 -31.5968 -31.5761 -31.5760 -31.5758 -31.5758
    -8.2056  -8.2055  -8.2053  -8.2052   4.2932   4.2932   4.2932   4.2934
     5.7666   5.7668   5.7674   5.7677   7.0628   7.0629   7.0630   7.0632

          k =-0.4979-0.5022 0.2500 (  5144 PWs)   bands (ev):

   -64.8273 -64.8273 -64.8273 -64.8263 -31.6318 -31.6315 -31.6315 -31.6315
   -31.5834 -31.5832 -31.5831 -31.5830 -31.5749 -31.5747 -31.5746 -31.5745
    -8.1681  -8.1680  -8.1678  -8.1678   3.6401   3.6402   3.6403   3.6403
     6.5239   6.5241   6.5244   6.5246   7.0640   7.0641   7.0641   7.0643

          k =-0.4979-0.5022-0.5000 (  5136 PWs)   bands (ev):

   -64.8273 -64.8273 -64.8273 -64.8263 -31.6396 -31.6394 -31.6393 -31.6393
   -31.5772 -31.5770 -31.5770 -31.5769 -31.5727 -31.5725 -31.5724 -31.5723
    -8.1300  -8.1298  -8.1298  -8.1297   3.2173   3.2175   3.2175   3.2175
     7.0576   7.0577   7.0578   7.0579   7.0722   7.0723   7.0724   7.0725

          k = 0.0000-0.2511 0.2500 (  5149 PWs)   bands (ev):

   -64.8318 -64.8261 -64.8257 -64.8248 -31.6219 -31.6207 -31.6185 -31.6057
   -31.5968 -31.5960 -31.5911 -31.5865 -31.5853 -31.5844 -31.5778 -31.5667
    -8.9640  -8.0638  -8.0559  -7.8959   4.1586   4.1626   4.3189   5.0716
     5.8346   6.0511   6.0717   6.4651   6.4720   6.5979   7.1826   7.5038

          k =-0.2489 0.0000 0.2500 (  5155 PWs)   bands (ev):

   -64.8318 -64.8262 -64.8258 -64.8246 -31.6228 -31.6211 -31.6169 -31.6086
   -31.5937 -31.5915 -31.5907 -31.5895 -31.5887 -31.5864 -31.5721 -31.5699
    -8.9684  -8.0722  -8.0643  -7.8851   4.1604   4.1637   4.3382   5.0710
     5.8596   6.0397   6.0600   6.4975   6.5043   6.5693   7.1641   7.5069

          k =-0.2489 0.2511 0.0000 (  5150 PWs)   bands (ev):

   -64.8318 -64.8262 -64.8257 -64.8247 -31.6233 -31.6193 -31.6183 -31.6073
   -31.5944 -31.5935 -31.5926 -31.5882 -31.5867 -31.5847 -31.5752 -31.5677
    -8.9662  -8.0720  -8.0561  -7.8904   4.1575   4.1654   4.3285   5.0713
     5.8471   6.0351   6.0757   6.4774   6.4916   6.5840   7.1734   7.5054

          k =-0.2489-0.2511 0.2500 (  5148 PWs)   bands (ev):

   -64.8308 -64.8262 -64.8261 -64.8253 -31.6259 -31.6249 -31.6239 -31.6058
   -31.5937 -31.5936 -31.5930 -31.5855 -31.5833 -31.5819 -31.5731 -31.5690
    -8.7964  -8.0366  -8.0309  -8.0253   3.9987   4.0003   4.0022   5.0890
     5.8392   5.8456   5.8521   6.6931   6.7056   6.7176   7.3538   7.3565

          k =-0.2489 0.2511-0.2500 (  5148 PWs)   bands (ev):

   -64.8308 -64.8262 -64.8261 -64.8253 -31.6259 -31.6249 -31.6239 -31.6058
   -31.5937 -31.5936 -31.5930 -31.5855 -31.5833 -31.5819 -31.5731 -31.5690
    -8.7964  -8.0366  -8.0309  -8.0253   3.9987   4.0003   4.0022   5.0890
     5.8392   5.8456   5.8521   6.6931   6.7056   6.7176   7.3538   7.3565

          k = 0.2489-0.2511-0.2500 (  5148 PWs)   bands (ev):

   -64.8308 -64.8262 -64.8261 -64.8253 -31.6259 -31.6249 -31.6239 -31.6058
   -31.5937 -31.5936 -31.5930 -31.5855 -31.5833 -31.5819 -31.5731 -31.5690
    -8.7964  -8.0366  -8.0309  -8.0253   3.9987   4.0003   4.0022   5.0890
     5.8392   5.8456   5.8521   6.6931   6.7056   6.7176   7.3538   7.3565

          k =-0.2489 0.2511 0.5000 (  5134 PWs)   bands (ev):

   -64.8286 -64.8281 -64.8261 -64.8255 -31.6278 -31.6276 -31.6209 -31.6208
   -31.5930 -31.5928 -31.5801 -31.5800 -31.5799 -31.5797 -31.5754 -31.5752
    -8.3993  -8.3992  -7.9974  -7.9973   3.8215   3.8215   4.1978   4.1979
     5.8300   5.8301   6.7402   6.7405   6.8685   6.8686   7.0158   7.0159

          k =-0.2489 0.5022 0.2500 (  5138 PWs)   bands (ev):

   -64.8285 -64.8281 -64.8262 -64.8256 -31.6281 -31.6280 -31.6207 -31.6206
   -31.5940 -31.5938 -31.5799 -31.5797 -31.5786 -31.5786 -31.5762 -31.5761
    -8.3953  -8.3951  -7.9988  -7.9987   3.8204   3.8205   4.1911   4.1912
     5.8307   5.8308   6.7366   6.7368   6.8746   6.8748   7.0086   7.0087

          k = 0.4979-0.2511 0.2500 (  5134 PWs)   bands (ev):

   -64.8286 -64.8282 -64.8261 -64.8255 -31.6277 -31.6276 -31.6214 -31.6213
   -31.5916 -31.5914 -31.5821 -31.5821 -31.5788 -31.5787 -31.5754 -31.5752
    -8.4035  -8.4031  -7.9959  -7.9958   3.8223   3.8224   4.2044   4.2047
     5.8297   5.8297   6.7434   6.7436   6.8623   6.8625   7.0228   7.0231

     highest occupied level (ev):     7.6818

!    total energy              =    -608.39265266 Ry
     Harris-Foulkes estimate   =    -608.39265266 Ry
     estimated scf accuracy    <          8.1E-11 Ry

     The total energy is the sum of the following terms:

     one-electron contribution =    -303.57034582 Ry
     hartree contribution      =     168.07463897 Ry
     xc contribution           =     -97.84668576 Ry
     ewald contribution        =    -375.05026005 Ry

     convergence has been achieved in   3 iterations

     Forces acting on atoms (cartesian axes, Ry/au):

     atom    1 type  1   force =     0.00000117   -0.00002804    0.00000008
     atom    2 type  1   force =    -0.00006490   -0.00001685    0.00000016
     atom    3 type  1   force =     0.00005060    0.00003169    0.00000017
     atom    4 type  1   force =     0.00005244   -0.00001804   -0.00000022
     atom    5 type  2   force =    -0.00000480   -0.00003732    0.00000006
     atom    6 type  2   force =    -0.00000640    0.00004011    0.00000005
     atom    7 type  2   force =    -0.00000627   -0.00003415   -0.00000010
     atom    8 type  2   force =    -0.00002184    0.00006262   -0.00000019

     Total force =     0.000144     Total SCF correction =     0.000014


     Computing stress (Cartesian axis) and pressure

          total   stress  (Ry/bohr**3)                   (kbar)     P=  -68.17
  -0.00051394   0.00000000  -0.00000000        -75.60      0.00     -0.00
   0.00000000  -0.00041276   0.00000000          0.00    -60.72      0.00
  -0.00000000   0.00000000  -0.00046350         -0.00      0.00    -68.18


     bfgs converged in   6 scf cycles and   5 bfgs steps
     (criteria: energy <  1.0E-05 Ry, force <  1.0E-04 Ry/Bohr)

     End of BFGS Geometry Optimization

     Final energy   =    -608.3926526575 Ry
Begin final coordinates

ATOMIC_POSITIONS (alat)
Mg      -0.000978290   0.000998717  -0.000004251
Mg      -0.001044356   0.498964158   0.500004373
Mg       0.501012118   0.001066910   0.500004372
Mg       0.501007489   0.498967423  -0.000004514
O        0.501058935   0.001073528  -0.000004561
O       -0.001057435   0.498926645  -0.000004562
O       -0.001056897   0.001073031   0.500004569
O        0.501058435   0.498929589   0.500004574
End final coordinates



     Writing output data file diamond.1.004286.70.4.save
 
     init_run     :      0.63s CPU      0.65s WALL (       1 calls)
     electrons    :     54.84s CPU     56.28s WALL (       6 calls)
     update_pot   :      0.56s CPU      0.57s WALL (       5 calls)
     forces       :      1.15s CPU      1.15s WALL (       6 calls)
     stress       :      2.57s CPU      2.59s WALL (       6 calls)

     Called by init_run:
     wfcinit      :      0.51s CPU      0.53s WALL (       1 calls)
     potinit      :      0.05s CPU      0.05s WALL (       1 calls)

     Called by electrons:
     c_bands      :     47.97s CPU     49.24s WALL (      35 calls)
     sum_band     :      6.66s CPU      6.80s WALL (      35 calls)
     v_of_rho     :      0.19s CPU      0.19s WALL (      36 calls)
     mix_rho      :      0.02s CPU      0.03s WALL (      35 calls)

     Called by c_bands:
     init_us_2    :      0.70s CPU      0.74s WALL (    2988 calls)
     cegterg      :     44.79s CPU     45.95s WALL (    1260 calls)

     Called by sum_band:

     Called by *egterg:
     h_psi        :     32.83s CPU     33.54s WALL (    4171 calls)
     g_psi        :      0.25s CPU      0.25s WALL (    2875 calls)
     cdiaghg      :      6.36s CPU      6.36s WALL (    3775 calls)

     Called by h_psi:
     h_psi:pot    :     32.71s CPU     33.37s WALL (    4171 calls)
     h_psi:calbec :      1.85s CPU      1.85s WALL (    4171 calls)
     vloc_psi     :     29.35s CPU     29.99s WALL (    4171 calls)
     add_vuspsi   :      1.50s CPU      1.52s WALL (    4171 calls)

     General routines
     calbec       :      2.48s CPU      2.48s WALL (    5251 calls)
     fft          :      0.14s CPU      0.14s WALL (     555 calls)
     fftw         :     33.22s CPU     32.87s WALL (  254088 calls)
     davcio       :      0.00s CPU      0.01s WALL (      36 calls)
 
     Parallel routines
     fft_scatter  :      9.02s CPU      8.86s WALL (  254643 calls)
 
     PWSCF        :  1m 0.25s CPU     1m 1.92s WALL

 
   This run was terminated on:  16:16: 7  22Apr2018            

=------------------------------------------------------------------------------=
   JOB DONE.
=------------------------------------------------------------------------------=
