
     Program PWSCF v.6.1 (svn rev. 13369) starts on 22Apr2018 at 16:24:19 

     This program is part of the open-source Quantum ESPRESSO suite
     for quantum simulation of materials; please cite
         "P. Giannozzi et al., J. Phys.:Condens. Matter 21 395502 (2009);
          URL http://www.quantum-espresso.org", 
     in publications or presentations arising from this work. More details at
     http://www.quantum-espresso.org/quote

     Parallel version (MPI), running on     8 processors
     R & G space division:  proc/nbgrp/npool/nimage =       8
     Waiting for input...
     Reading input from standard input
Warning: card       &CELL ignored
Warning: card       CELL_DYNAMICS = 'BFGS' ignored
Warning: card       PRESS = 0.0D0 ignored
Warning: card       PRESS_CONV_THR = 0.01D0 ignored
Warning: card       / ignored

     Current dimensions of program PWSCF are:
     Max number of different atomic species (ntypx) = 10
     Max number of k-points (npk) =  40000
     Max angular momentum in pseudopotentials (lmaxx) =  3

     Subspace diagonalization in iterative solution of the eigenvalue problem:
     a serial algorithm will be used

 
     Parallelization info
     --------------------
     sticks:   dense  smooth     PW     G-vecs:    dense   smooth      PW
     Min         181     181     52                 5155     5155     816
     Max         182     182     53                 5158     5158     819
     Sum        1453    1453    421                41251    41251    6535
 


     bravais-lattice index     =            0
     lattice parameter (alat)  =       8.0448  a.u.
     unit-cell volume          =     520.6402 (a.u.)^3
     number of atoms/cell      =            8
     number of atomic types    =            2
     number of electrons       =        64.00
     number of Kohn-Sham states=           32
     kinetic-energy cutoff     =      70.0000  Ry
     charge density cutoff     =     280.0000  Ry
     convergence threshold     =      1.0E-08
     mixing beta               =       0.7000
     number of iterations used =            8  plain     mixing
     Exchange-correlation      = PBE ( 1  4  3  4 0 0)
     nstep                     =           50


     celldm(1)=   8.044750  celldm(2)=   0.000000  celldm(3)=   0.000000
     celldm(4)=   0.000000  celldm(5)=   0.000000  celldm(6)=   0.000000

     crystal axes: (cart. coord. in units of alat)
               a(1) = (   1.010000   0.000000   0.000000 )  
               a(2) = (   0.000000   0.990000   0.000000 )  
               a(3) = (   0.000000   0.000000   1.000100 )  

     reciprocal axes: (cart. coord. in units 2 pi/alat)
               b(1) = (  0.990099  0.000000  0.000000 )  
               b(2) = (  0.000000  1.010101  0.000000 )  
               b(3) = (  0.000000  0.000000  0.999900 )  


     PseudoPot. # 1 for Mg read from file:
     ../pseudo/Mg.pbe.UPF
     MD5 check sum: 4c04d8c6e0476e83eaecaf72fa8acc4d
     Pseudo is Norm-conserving, Zval = 10.0
     Generated using ONCVPSP code by D. R. Hamann
     Using radial grid of 1510 points,  4 beta functions with: 
                l(1) =   0
                l(2) =   0
                l(3) =   1
                l(4) =   1

     PseudoPot. # 2 for O  read from file:
     ../pseudo/O.pbe.UPF
     MD5 check sum: 3e3f909f7470e8921608ab6b1f57bbae
     Pseudo is Norm-conserving + core correction, Zval =  6.0
     Generated using ONCVPSP code by D. R. Hamann
     Using radial grid of  936 points,  5 beta functions with: 
                l(1) =   0
                l(2) =   0
                l(3) =   1
                l(4) =   1
                l(5) =   2

     atomic species   valence    mass     pseudopotential
        Mg            10.00    24.30500     Mg( 1.00)
        O              6.00    15.99940     O ( 1.00)

     No symmetry found



   Cartesian axes

     site n.     atom                  positions (alat units)
         1           Mg  tau(   1) = (   0.0000000   0.0000000   0.0000000  )
         2           Mg  tau(   2) = (   0.0000000   0.5000000   0.5000000  )
         3           Mg  tau(   3) = (   0.5000000   0.0000000   0.5000000  )
         4           Mg  tau(   4) = (   0.5000000   0.5000000   0.0000000  )
         5           O   tau(   5) = (   0.5000000   0.0000000   0.0000000  )
         6           O   tau(   6) = (   0.0000000   0.5000000   0.0000000  )
         7           O   tau(   7) = (   0.0000000   0.0000000   0.5000000  )
         8           O   tau(   8) = (   0.5000000   0.5000000   0.5000000  )

     number of k points=    36
                       cart. coord. in units 2pi/alat
        k(    1) = (   0.0000000   0.0000000   0.0000000), wk =   0.0312500
        k(    2) = (   0.0000000   0.0000000   0.2499750), wk =   0.0625000
        k(    3) = (   0.0000000   0.0000000  -0.4999500), wk =   0.0312500
        k(    4) = (   0.0000000   0.2525253   0.0000000), wk =   0.0625000
        k(    5) = (   0.0000000   0.2525253   0.2499750), wk =   0.0625000
        k(    6) = (   0.0000000   0.2525253  -0.4999500), wk =   0.0625000
        k(    7) = (   0.0000000  -0.5050505   0.0000000), wk =   0.0312500
        k(    8) = (   0.0000000  -0.5050505   0.2499750), wk =   0.0625000
        k(    9) = (   0.0000000  -0.5050505  -0.4999500), wk =   0.0312500
        k(   10) = (   0.2475248   0.0000000   0.0000000), wk =   0.0625000
        k(   11) = (   0.2475248   0.0000000   0.2499750), wk =   0.0625000
        k(   12) = (   0.2475248   0.0000000  -0.4999500), wk =   0.0625000
        k(   13) = (   0.2475248   0.2525253   0.0000000), wk =   0.0625000
        k(   14) = (   0.2475248   0.2525253   0.2499750), wk =   0.0625000
        k(   15) = (   0.2475248   0.2525253  -0.4999500), wk =   0.0625000
        k(   16) = (   0.2475248  -0.5050505   0.0000000), wk =   0.0625000
        k(   17) = (   0.2475248  -0.5050505   0.2499750), wk =   0.0625000
        k(   18) = (   0.2475248  -0.5050505  -0.4999500), wk =   0.0625000
        k(   19) = (  -0.4950495   0.0000000   0.0000000), wk =   0.0312500
        k(   20) = (  -0.4950495   0.0000000   0.2499750), wk =   0.0625000
        k(   21) = (  -0.4950495   0.0000000  -0.4999500), wk =   0.0312500
        k(   22) = (  -0.4950495   0.2525253   0.0000000), wk =   0.0625000
        k(   23) = (  -0.4950495   0.2525253   0.2499750), wk =   0.0625000
        k(   24) = (  -0.4950495   0.2525253  -0.4999500), wk =   0.0625000
        k(   25) = (  -0.4950495  -0.5050505   0.0000000), wk =   0.0312500
        k(   26) = (  -0.4950495  -0.5050505   0.2499750), wk =   0.0625000
        k(   27) = (  -0.4950495  -0.5050505  -0.4999500), wk =   0.0312500
        k(   28) = (   0.0000000  -0.2525253   0.2499750), wk =   0.0625000
        k(   29) = (  -0.2475248   0.0000000   0.2499750), wk =   0.0625000
        k(   30) = (  -0.2475248   0.2525253   0.0000000), wk =   0.0625000
        k(   31) = (  -0.2475248  -0.2525253   0.2499750), wk =   0.0625000
        k(   32) = (  -0.2475248   0.2525253  -0.2499750), wk =   0.0625000
        k(   33) = (   0.2475248  -0.2525253  -0.2499750), wk =   0.0625000
        k(   34) = (  -0.2475248   0.2525253   0.4999500), wk =   0.0625000
        k(   35) = (  -0.2475248   0.5050505   0.2499750), wk =   0.0625000
        k(   36) = (   0.4950495  -0.2525253   0.2499750), wk =   0.0625000

     Dense  grid:    41251 G-vectors     FFT dimensions: (  45,  45,  45)

     Estimated max dynamical RAM per process >      17.22MB

     Estimated total allocated dynamical RAM >     137.73MB

     Check: negative/imaginary core charge=   -0.000008    0.000000

     Initial potential from superposition of free atoms

     starting charge   63.99678, renormalised to   64.00000
     Starting wfc are   36 randomized atomic wfcs

     total cpu time spent up to now is        0.8 secs

     per-process dynamical memory:    51.7 Mb

     Self-consistent Calculation

     iteration #  1     ecut=    70.00 Ry     beta=0.70
     Davidson diagonalization with overlap
     ethr =  1.00E-02,  avg # of iterations =  2.0

     total cpu time spent up to now is        2.3 secs

     total energy              =    -607.71706699 Ry
     Harris-Foulkes estimate   =    -608.84337122 Ry
     estimated scf accuracy    <       1.56492169 Ry

     iteration #  2     ecut=    70.00 Ry     beta=0.70
     Davidson diagonalization with overlap
     ethr =  2.45E-03,  avg # of iterations =  2.9

     total cpu time spent up to now is        3.9 secs

     total energy              =    -608.10366556 Ry
     Harris-Foulkes estimate   =    -608.80268984 Ry
     estimated scf accuracy    <       1.45115399 Ry

     iteration #  3     ecut=    70.00 Ry     beta=0.70
     Davidson diagonalization with overlap
     ethr =  2.27E-03,  avg # of iterations =  2.0

     total cpu time spent up to now is        5.4 secs

     total energy              =    -608.38972447 Ry
     Harris-Foulkes estimate   =    -608.39038911 Ry
     estimated scf accuracy    <       0.00677081 Ry

     iteration #  4     ecut=    70.00 Ry     beta=0.70
     Davidson diagonalization with overlap
     ethr =  1.06E-05,  avg # of iterations =  2.0

     total cpu time spent up to now is        6.9 secs

     total energy              =    -608.39120472 Ry
     Harris-Foulkes estimate   =    -608.39125052 Ry
     estimated scf accuracy    <       0.00011291 Ry

     iteration #  5     ecut=    70.00 Ry     beta=0.70
     Davidson diagonalization with overlap
     ethr =  1.76E-07,  avg # of iterations =  1.9

     total cpu time spent up to now is        8.2 secs

     total energy              =    -608.39121268 Ry
     Harris-Foulkes estimate   =    -608.39121107 Ry
     estimated scf accuracy    <       0.00001038 Ry

     iteration #  6     ecut=    70.00 Ry     beta=0.70
     Davidson diagonalization with overlap
     ethr =  1.62E-08,  avg # of iterations =  2.0

     total cpu time spent up to now is        9.8 secs

     total energy              =    -608.39121405 Ry
     Harris-Foulkes estimate   =    -608.39121443 Ry
     estimated scf accuracy    <       0.00000081 Ry

     iteration #  7     ecut=    70.00 Ry     beta=0.70
     Davidson diagonalization with overlap
     ethr =  1.27E-09,  avg # of iterations =  2.0

     total cpu time spent up to now is       11.3 secs

     total energy              =    -608.39121412 Ry
     Harris-Foulkes estimate   =    -608.39121417 Ry
     estimated scf accuracy    <       0.00000016 Ry

     iteration #  8     ecut=    70.00 Ry     beta=0.70
     Davidson diagonalization with overlap
     ethr =  2.55E-10,  avg # of iterations =  2.0

     total cpu time spent up to now is       12.7 secs

     total energy              =    -608.39121411 Ry
     Harris-Foulkes estimate   =    -608.39121413 Ry
     estimated scf accuracy    <       0.00000004 Ry

     iteration #  9     ecut=    70.00 Ry     beta=0.70
     Davidson diagonalization with overlap
     ethr =  6.32E-11,  avg # of iterations =  2.0

     total cpu time spent up to now is       14.4 secs

     End of self-consistent calculation

          k = 0.0000 0.0000 0.0000 (  5129 PWs)   bands (ev):

   -64.8320 -64.8227 -64.8223 -64.8216 -31.6337 -31.6277 -31.6217 -31.5970
   -31.5949 -31.5923 -31.5887 -31.5848 -31.5832 -31.5711 -31.5629 -31.5564
    -9.3674  -7.9421  -7.9161  -7.8900   3.7254   3.7558   3.7927   6.3077
     6.3199   6.3692   6.3885   6.4425   6.4498   7.6462   7.6722   7.6911

          k = 0.0000 0.0000 0.2500 (  5153 PWs)   bands (ev):

   -64.8306 -64.8237 -64.8226 -64.8218 -31.6279 -31.6182 -31.6163 -31.6028
   -31.5937 -31.5913 -31.5896 -31.5892 -31.5812 -31.5757 -31.5752 -31.5633
    -9.1590  -8.1311  -7.9063  -7.8691   4.0176   4.0795   4.0927   5.8410
     5.8724   6.1194   6.2160   6.4877   6.6016   6.6586   7.4180   7.4789

          k = 0.0000 0.0000-0.5000 (  5138 PWs)   bands (ev):

   -64.8274 -64.8269 -64.8225 -64.8219 -31.6151 -31.6148 -31.6019 -31.6017
   -31.5984 -31.5983 -31.5897 -31.5897 -31.5843 -31.5840 -31.5729 -31.5727
    -8.6489  -8.6483  -7.8590  -7.8589   4.8206   4.8215   4.8716   4.8724
     5.1226   5.1230   5.9702   5.9705   6.9222   6.9227   7.0132   7.0137

          k = 0.0000 0.2525 0.0000 (  5161 PWs)   bands (ev):

   -64.8305 -64.8235 -64.8226 -64.8220 -31.6284 -31.6216 -31.6132 -31.6007
   -31.5945 -31.5940 -31.5888 -31.5860 -31.5852 -31.5755 -31.5694 -31.5694
    -9.1534  -8.1055  -7.9068  -7.8882   4.0235   4.0521   4.1114   5.8982
     5.9116   6.1063   6.1539   6.4778   6.5357   6.6364   7.4367   7.4653

          k = 0.0000 0.2525 0.2500 (  5143 PWs)   bands (ev):

   -64.8293 -64.8236 -64.8233 -64.8224 -31.6227 -31.6185 -31.6140 -31.6020
   -31.5992 -31.5974 -31.5878 -31.5834 -31.5802 -31.5792 -31.5790 -31.5623
    -8.9638  -8.0657  -8.0468  -7.9050   4.1524   4.1627   4.3057   5.0703
     5.8168   6.0429   6.0928   6.4379   6.4552   6.6166   7.1943   7.5000

          k = 0.0000 0.2525-0.5000 (  5142 PWs)   bands (ev):

   -64.8267 -64.8262 -64.8232 -64.8226 -31.6125 -31.6122 -31.6111 -31.6108
   -31.6063 -31.6062 -31.5886 -31.5883 -31.5785 -31.5784 -31.5678 -31.5676
    -8.5093  -8.5088  -7.9454  -7.9453   4.4030   4.4033   4.7252   4.7256
     5.0786   5.0794   6.5634   6.5637   6.6113   6.6119   7.0760   7.0761

          k = 0.0000-0.5051 0.0000 (  5142 PWs)   bands (ev):

   -64.8274 -64.8265 -64.8226 -64.8221 -31.6153 -31.6127 -31.6084 -31.6054
   -31.5951 -31.5915 -31.5872 -31.5859 -31.5837 -31.5833 -31.5799 -31.5779
    -8.6580  -8.6032  -7.8661  -7.8650   4.8056   4.8286   4.8917   4.9152
     5.0946   5.1314   5.9204   5.9206   6.8991   6.9449   6.9534   6.9974

          k = 0.0000-0.5051 0.2500 (  5144 PWs)   bands (ev):

   -64.8266 -64.8259 -64.8233 -64.8228 -31.6147 -31.6131 -31.6116 -31.6091
   -31.6051 -31.6037 -31.5910 -31.5889 -31.5764 -31.5756 -31.5704 -31.5702
    -8.5211  -8.4730  -7.9559  -7.9474   4.3851   4.4179   4.6981   4.7382
     5.0581   5.1415   6.5167   6.5516   6.5553   6.6130   7.0772   7.0950

          k = 0.0000-0.5051-0.5000 (  5152 PWs)   bands (ev):

   -64.8251 -64.8248 -64.8248 -64.8239 -31.6161 -31.6159 -31.6150 -31.6148
   -31.6012 -31.6009 -31.5990 -31.5987 -31.5689 -31.5688 -31.5679 -31.5677
    -8.2158  -8.2154  -8.1859  -8.1856   4.2463   4.2465   4.2620   4.2622
     5.7334   5.7341   5.8083   5.8091   7.0645   7.0648   7.0884   7.0887

          k = 0.2475 0.0000 0.0000 (  5154 PWs)   bands (ev):

   -64.8306 -64.8240 -64.8223 -64.8217 -31.6253 -31.6221 -31.6162 -31.5979
   -31.5974 -31.5962 -31.5908 -31.5854 -31.5828 -31.5800 -31.5685 -31.5620
    -9.1648  -8.1553  -7.8867  -7.8681   4.0386   4.0728   4.0767   5.8021
     5.8201   6.1832   6.2325   6.5477   6.6042   6.6764   7.4320   7.4641

          k = 0.2475 0.0000 0.2500 (  5153 PWs)   bands (ev):

   -64.8294 -64.8238 -64.8234 -64.8221 -31.6244 -31.6191 -31.6110 -31.6083
   -31.5931 -31.5904 -31.5886 -31.5868 -31.5845 -31.5838 -31.5696 -31.5663
    -8.9740  -8.0848  -8.0668  -7.8799   4.1577   4.1649   4.3509   5.0691
     5.8751   6.0189   6.0639   6.5142   6.5225   6.5570   7.1504   7.5072

          k = 0.2475 0.0000-0.5000 (  5160 PWs)   bands (ev):

   -64.8267 -64.8262 -64.8232 -64.8226 -31.6196 -31.6194 -31.6094 -31.6092
   -31.5971 -31.5968 -31.5841 -31.5840 -31.5784 -31.5782 -31.5770 -31.5768
    -8.5157  -8.5152  -7.9528  -7.9527   4.4307   4.4311   4.7725   4.7729
     5.1141   5.1150   6.5151   6.5156   6.5524   6.5530   7.1107   7.1109

          k = 0.2475 0.2525 0.0000 (  5152 PWs)   bands (ev):

   -64.8294 -64.8238 -64.8232 -64.8223 -31.6245 -31.6168 -31.6148 -31.6062
   -31.5933 -31.5918 -31.5902 -31.5890 -31.5835 -31.5794 -31.5728 -31.5643
    -8.9690  -8.0842  -8.0472  -7.8922   4.1519   4.1694   4.3251   5.0707
     5.8447   6.0067   6.1016   6.4648   6.4974   6.5887   7.1737   7.5026

          k = 0.2475 0.2525 0.2500 (  5149 PWs)   bands (ev):

   -64.8284 -64.8238 -64.8236 -64.8229 -31.6262 -31.6231 -31.6211 -31.6044
   -31.5932 -31.5916 -31.5906 -31.5851 -31.5794 -31.5767 -31.5735 -31.5638
    -8.7991  -8.0458  -8.0329  -8.0194   3.9958   3.9984   4.0035   5.0875
     5.8291   5.8437   5.8597   6.6752   6.7064   6.7326   7.3504   7.3571

          k = 0.2475 0.2525-0.5000 (  5140 PWs)   bands (ev):

   -64.8262 -64.8257 -64.8237 -64.8231 -31.6263 -31.6263 -31.6198 -31.6194
   -31.5918 -31.5916 -31.5804 -31.5801 -31.5769 -31.5768 -31.5702 -31.5699
    -8.4019  -8.4015  -7.9991  -7.9991   3.8205   3.8210   4.1965   4.1971
     5.8278   5.8283   6.7376   6.7380   6.8670   6.8685   7.0161   7.0166

          k = 0.2475-0.5051 0.0000 (  5150 PWs)   bands (ev):

   -64.8267 -64.8259 -64.8233 -64.8227 -31.6192 -31.6174 -31.6074 -31.6063
   -31.6049 -31.6022 -31.5846 -31.5825 -31.5785 -31.5776 -31.5749 -31.5741
    -8.5245  -8.4761  -7.9601  -7.9498   4.4005   4.4336   4.7228   4.7627
     5.0716   5.1554   6.5008   6.5173   6.5325   6.5796   7.0950   7.1114

          k = 0.2475-0.5051 0.2500 (  5136 PWs)   bands (ev):

   -64.8261 -64.8255 -64.8237 -64.8232 -31.6273 -31.6269 -31.6188 -31.6185
   -31.5940 -31.5938 -31.5807 -31.5795 -31.5742 -31.5741 -31.5712 -31.5704
    -8.4125  -8.3713  -8.0028  -8.0020   3.8176   3.8182   4.1610   4.2018
     5.8284   5.8304   6.7299   6.7310   6.8722   6.8908   6.9793   7.0178

          k = 0.2475-0.5051-0.5000 (  5132 PWs)   bands (ev):

   -64.8250 -64.8248 -64.8248 -64.8239 -31.6295 -31.6292 -31.6292 -31.6290
   -31.5858 -31.5856 -31.5849 -31.5847 -31.5686 -31.5684 -31.5679 -31.5677
    -8.1772  -8.1770  -8.1558  -8.1556   3.6167   3.6169   3.6371   3.6373
     6.4887   6.4892   6.5330   6.5335   7.0687   7.0689   7.0855   7.0857

          k =-0.4950 0.0000 0.0000 (  5166 PWs)   bands (ev):

   -64.8277 -64.8269 -64.8223 -64.8218 -31.6109 -31.6086 -31.6075 -31.6046
   -31.6032 -31.6006 -31.5978 -31.5975 -31.5779 -31.5765 -31.5729 -31.5713
    -8.6924  -8.6388  -7.8522  -7.8510   4.7768   4.8050   4.8598   4.8877
     5.1155   5.1444   6.0206   6.0209   6.9369   6.9840   6.9879   7.0334

          k =-0.4950 0.0000 0.2500 (  5160 PWs)   bands (ev):

   -64.8269 -64.8262 -64.8230 -64.8225 -31.6176 -31.6162 -31.6125 -31.6106
   -31.5993 -31.5969 -31.5878 -31.5868 -31.5772 -31.5754 -31.5750 -31.5745
    -8.5503  -8.5028  -7.9516  -7.9414   4.4133   4.4477   4.7629   4.7968
     5.0557   5.1357   6.5250   6.5546   6.5622   6.6053   7.0926   7.1055

          k =-0.4950 0.0000-0.5000 (  5196 PWs)   bands (ev):

   -64.8251 -64.8248 -64.8248 -64.8239 -31.6199 -31.6197 -31.6189 -31.6187
   -31.5888 -31.5885 -31.5867 -31.5864 -31.5785 -31.5783 -31.5777 -31.5775
    -8.2299  -8.2296  -8.1995  -8.1992   4.3230   4.3232   4.3358   4.3360
     5.7281   5.7289   5.8001   5.8008   7.0330   7.0333   7.0590   7.0593

          k =-0.4950 0.2525 0.0000 (  5152 PWs)   bands (ev):

   -64.8269 -64.8262 -64.8230 -64.8225 -31.6155 -31.6142 -31.6117 -31.6098
   -31.6065 -31.6042 -31.5841 -31.5830 -31.5822 -31.5806 -31.5691 -31.5685
    -8.5470  -8.4997  -7.9466  -7.9382   4.4014   4.4353   4.7398   4.7746
     5.0336   5.1139   6.5608   6.5731   6.5892   6.6309   7.0742   7.0883

          k =-0.4950 0.2525 0.2500 (  5142 PWs)   bands (ev):

   -64.8263 -64.8257 -64.8236 -64.8230 -31.6260 -31.6258 -31.6206 -31.6200
   -31.5888 -31.5882 -31.5824 -31.5817 -31.5781 -31.5780 -31.5708 -31.5697
    -8.4309  -8.3905  -7.9961  -7.9953   3.8223   3.8227   4.1940   4.2314
     5.8263   5.8282   6.7456   6.7463   6.8458   6.8595   7.0135   7.0497

          k =-0.4950 0.2525-0.5000 (  5152 PWs)   bands (ev):

   -64.8251 -64.8248 -64.8248 -64.8239 -31.6309 -31.6306 -31.6304 -31.6303
   -31.5789 -31.5788 -31.5787 -31.5785 -31.5746 -31.5744 -31.5740 -31.5738
    -8.1845  -8.1843  -8.1627  -8.1624   3.6422   3.6424   3.6618   3.6620
     6.5145   6.5150   6.5553   6.5558   7.0381   7.0384   7.0567   7.0569

          k =-0.4950-0.5051 0.0000 (  5192 PWs)   bands (ev):

   -64.8252 -64.8249 -64.8246 -64.8239 -31.6188 -31.6176 -31.6173 -31.6168
   -31.5971 -31.5950 -31.5947 -31.5927 -31.5738 -31.5731 -31.5725 -31.5720
    -8.2379  -8.2073  -8.2058  -8.1776   4.2784   4.2911   4.2937   4.3070
     5.6918   5.7641   5.7678   5.8390   7.0355   7.0611   7.0617   7.0852

          k =-0.4950-0.5051 0.2500 (  5132 PWs)   bands (ev):

   -64.8251 -64.8249 -64.8247 -64.8239 -31.6303 -31.6299 -31.6298 -31.6297
   -31.5834 -31.5827 -31.5822 -31.5817 -31.5707 -31.5705 -31.5699 -31.5697
    -8.1919  -8.1697  -8.1686  -8.1487   3.6197   3.6385   3.6404   3.6598
     6.4795   6.5217   6.5239   6.5646   7.0442   7.0628   7.0629   7.0793

          k =-0.4950-0.5051-0.5000 (  5136 PWs)   bands (ev):

   -64.8249 -64.8249 -64.8248 -64.8239 -31.6383 -31.6380 -31.6380 -31.6378
   -31.5779 -31.5777 -31.5776 -31.5775 -31.5674 -31.5672 -31.5671 -31.5670
    -8.1324  -8.1323  -8.1311  -8.1310   3.2166   3.2167   3.2172   3.2172
     7.0455   7.0456   7.0467   7.0467   7.0795   7.0796   7.0806   7.0807

          k = 0.0000-0.2525 0.2500 (  5143 PWs)   bands (ev):

   -64.8293 -64.8236 -64.8233 -64.8224 -31.6227 -31.6185 -31.6140 -31.6020
   -31.5992 -31.5974 -31.5878 -31.5834 -31.5802 -31.5792 -31.5790 -31.5623
    -8.9638  -8.0657  -8.0468  -7.9050   4.1524   4.1627   4.3057   5.0703
     5.8168   6.0429   6.0928   6.4379   6.4552   6.6166   7.1943   7.5000

          k =-0.2475 0.0000 0.2500 (  5153 PWs)   bands (ev):

   -64.8294 -64.8238 -64.8234 -64.8221 -31.6244 -31.6191 -31.6110 -31.6083
   -31.5931 -31.5904 -31.5886 -31.5868 -31.5845 -31.5838 -31.5696 -31.5663
    -8.9740  -8.0848  -8.0668  -7.8799   4.1577   4.1649   4.3509   5.0691
     5.8751   6.0189   6.0639   6.5142   6.5225   6.5570   7.1504   7.5072

          k =-0.2475 0.2525 0.0000 (  5152 PWs)   bands (ev):

   -64.8294 -64.8238 -64.8232 -64.8223 -31.6245 -31.6168 -31.6148 -31.6061
   -31.5933 -31.5918 -31.5902 -31.5889 -31.5835 -31.5794 -31.5728 -31.5644
    -8.9690  -8.0842  -8.0472  -7.8922   4.1519   4.1694   4.3251   5.0707
     5.8447   6.0067   6.1016   6.4648   6.4974   6.5887   7.1737   7.5026

          k =-0.2475-0.2525 0.2500 (  5149 PWs)   bands (ev):

   -64.8284 -64.8238 -64.8236 -64.8229 -31.6262 -31.6231 -31.6211 -31.6044
   -31.5932 -31.5916 -31.5906 -31.5851 -31.5794 -31.5767 -31.5735 -31.5638
    -8.7991  -8.0458  -8.0329  -8.0194   3.9958   3.9984   4.0035   5.0875
     5.8291   5.8437   5.8597   6.6752   6.7064   6.7326   7.3504   7.3571

          k =-0.2475 0.2525-0.2500 (  5149 PWs)   bands (ev):

   -64.8284 -64.8238 -64.8236 -64.8229 -31.6263 -31.6231 -31.6211 -31.6044
   -31.5932 -31.5917 -31.5905 -31.5851 -31.5794 -31.5767 -31.5735 -31.5638
    -8.7991  -8.0458  -8.0329  -8.0194   3.9958   3.9984   4.0035   5.0875
     5.8291   5.8437   5.8597   6.6752   6.7064   6.7326   7.3504   7.3571

          k = 0.2475-0.2525-0.2500 (  5149 PWs)   bands (ev):

   -64.8284 -64.8238 -64.8236 -64.8229 -31.6263 -31.6231 -31.6211 -31.6044
   -31.5932 -31.5917 -31.5905 -31.5851 -31.5794 -31.5767 -31.5735 -31.5638
    -8.7991  -8.0458  -8.0329  -8.0194   3.9958   3.9984   4.0035   5.0875
     5.8291   5.8437   5.8597   6.6752   6.7064   6.7326   7.3504   7.3571

          k =-0.2475 0.2525 0.5000 (  5140 PWs)   bands (ev):

   -64.8262 -64.8257 -64.8237 -64.8231 -31.6266 -31.6261 -31.6196 -31.6196
   -31.5918 -31.5915 -31.5803 -31.5802 -31.5769 -31.5767 -31.5702 -31.5699
    -8.4019  -8.4015  -7.9992  -7.9990   3.8204   3.8211   4.1966   4.1970
     5.8278   5.8282   6.7378   6.7378   6.8672   6.8684   7.0161   7.0166

          k =-0.2475 0.5051 0.2500 (  5136 PWs)   bands (ev):

   -64.8261 -64.8255 -64.8237 -64.8232 -31.6273 -31.6269 -31.6188 -31.6185
   -31.5940 -31.5938 -31.5807 -31.5795 -31.5742 -31.5741 -31.5712 -31.5704
    -8.4125  -8.3713  -8.0028  -8.0020   3.8176   3.8182   4.1610   4.2018
     5.8284   5.8304   6.7299   6.7310   6.8722   6.8908   6.9793   7.0178

          k = 0.4950-0.2525 0.2500 (  5142 PWs)   bands (ev):

   -64.8263 -64.8257 -64.8236 -64.8230 -31.6260 -31.6258 -31.6206 -31.6200
   -31.5888 -31.5882 -31.5824 -31.5817 -31.5781 -31.5780 -31.5708 -31.5697
    -8.4309  -8.3905  -7.9961  -7.9953   3.8223   3.8227   4.1940   4.2314
     5.8263   5.8282   6.7456   6.7463   6.8458   6.8595   7.0135   7.0497

     highest occupied level (ev):     7.6911

!    total energy              =    -608.39121411 Ry
     Harris-Foulkes estimate   =    -608.39121412 Ry
     estimated scf accuracy    <          4.3E-09 Ry

     The total energy is the sum of the following terms:

     one-electron contribution =    -303.79499633 Ry
     hartree contribution      =     168.18952612 Ry
     xc contribution           =     -97.84989565 Ry
     ewald contribution        =    -374.93584825 Ry

     convergence has been achieved in   9 iterations

     Forces acting on atoms (cartesian axes, Ry/au):

     atom    1 type  1   force =    -0.00484982    0.00618335   -0.00005393
     atom    2 type  1   force =    -0.00485267   -0.00614493    0.00005207
     atom    3 type  1   force =     0.00480676    0.00618613    0.00005198
     atom    4 type  1   force =     0.00465537   -0.00600754   -0.00005380
     atom    5 type  2   force =     0.00575341    0.00691358   -0.00006167
     atom    6 type  2   force =    -0.00564059   -0.00701456   -0.00006161
     atom    7 type  2   force =    -0.00564249    0.00691474    0.00006344
     atom    8 type  2   force =     0.00577003   -0.00703076    0.00006353

     Total force =     0.023802     Total SCF correction =     0.000076


     Computing stress (Cartesian axis) and pressure

          total   stress  (Ry/bohr**3)                   (kbar)     P=  -66.49
  -0.00056199   0.00000003  -0.00000000        -82.67      0.00     -0.00
   0.00000003  -0.00032918   0.00000000          0.00    -48.42      0.00
  -0.00000000   0.00000000  -0.00046471         -0.00      0.00    -68.36


     BFGS Geometry Optimization

     number of scf cycles    =   1
     number of bfgs steps    =   0

     energy   new            =    -608.3912141127 Ry

     new trust radius        =       0.0090955408 bohr
     new conv_thr            =       0.0000000100 Ry


ATOMIC_POSITIONS (alat)
Mg      -0.000602855   0.000768619  -0.000006704
Mg      -0.000603209   0.499236157   0.500006472
Mg       0.500597503   0.000768965   0.500006462
Mg       0.500578684   0.499253234  -0.000006688
O        0.500715175   0.000859390  -0.000007666
O       -0.000701152   0.499128058  -0.000007659
O       -0.000701388   0.000859534   0.500007885
O        0.500717242   0.499126044   0.500007897



     Writing output data file diamond.1.01.70.4.save
     NEW-OLD atomic charge density approx. for the potential

     Check: negative/imaginary core charge=   -0.000008    0.000000

     total cpu time spent up to now is       15.2 secs

     per-process dynamical memory:    56.4 Mb

     Self-consistent Calculation

     iteration #  1     ecut=    70.00 Ry     beta=0.70
     Davidson diagonalization with overlap
     ethr =  1.00E-06,  avg # of iterations =  3.1

     total cpu time spent up to now is       17.7 secs

     total energy              =    -608.39165482 Ry
     Harris-Foulkes estimate   =    -608.39173290 Ry
     estimated scf accuracy    <       0.00010645 Ry

     iteration #  2     ecut=    70.00 Ry     beta=0.70
     Davidson diagonalization with overlap
     ethr =  1.66E-07,  avg # of iterations =  2.2

     total cpu time spent up to now is       19.2 secs

     total energy              =    -608.39168787 Ry
     Harris-Foulkes estimate   =    -608.39169925 Ry
     estimated scf accuracy    <       0.00001894 Ry

     iteration #  3     ecut=    70.00 Ry     beta=0.70
     Davidson diagonalization with overlap
     ethr =  2.96E-08,  avg # of iterations =  2.0

     total cpu time spent up to now is       20.6 secs

     total energy              =    -608.39169193 Ry
     Harris-Foulkes estimate   =    -608.39169189 Ry
     estimated scf accuracy    <       0.00000013 Ry

     iteration #  4     ecut=    70.00 Ry     beta=0.70
     Davidson diagonalization with overlap
     ethr =  2.07E-10,  avg # of iterations =  2.9

     total cpu time spent up to now is       22.4 secs

     total energy              =    -608.39169196 Ry
     Harris-Foulkes estimate   =    -608.39169197 Ry
     estimated scf accuracy    <       0.00000003 Ry

     iteration #  5     ecut=    70.00 Ry     beta=0.70
     Davidson diagonalization with overlap
     ethr =  4.64E-11,  avg # of iterations =  2.0

     total cpu time spent up to now is       23.9 secs

     End of self-consistent calculation

          k = 0.0000 0.0000 0.0000 (  5129 PWs)   bands (ev):

   -64.8329 -64.8236 -64.8232 -64.8225 -31.6344 -31.6284 -31.6224 -31.5977
   -31.5957 -31.5931 -31.5895 -31.5855 -31.5839 -31.5719 -31.5637 -31.5571
    -9.3664  -7.9416  -7.9153  -7.8895   3.7257   3.7569   3.7929   6.3082
     6.3199   6.3700   6.3891   6.4427   6.4502   7.6471   7.6724   7.6918

          k = 0.0000 0.0000 0.2500 (  5153 PWs)   bands (ev):

   -64.8315 -64.8246 -64.8235 -64.8227 -31.6286 -31.6189 -31.6169 -31.6035
   -31.5943 -31.5922 -31.5903 -31.5899 -31.5820 -31.5765 -31.5761 -31.5641
    -9.1580  -8.1303  -7.9057  -7.8686   4.0180   4.0796   4.0936   5.8415
     5.8728   6.1206   6.2176   6.4869   6.6013   6.6589   7.4183   7.4792

          k = 0.0000 0.0000-0.5000 (  5138 PWs)   bands (ev):

   -64.8283 -64.8278 -64.8234 -64.8228 -31.6158 -31.6155 -31.6022 -31.6020
   -31.5996 -31.5995 -31.5903 -31.5903 -31.5852 -31.5849 -31.5738 -31.5735
    -8.6479  -8.6475  -7.8585  -7.8584   4.8214   4.8220   4.8723   4.8729
     5.1226   5.1230   5.9717   5.9720   6.9219   6.9223   7.0130   7.0134

          k = 0.0000 0.2525 0.0000 (  5161 PWs)   bands (ev):

   -64.8314 -64.8243 -64.8235 -64.8229 -31.6290 -31.6223 -31.6139 -31.6015
   -31.5951 -31.5948 -31.5896 -31.5867 -31.5858 -31.5763 -31.5702 -31.5702
    -9.1523  -8.1052  -7.9062  -7.8875   4.0241   4.0533   4.1117   5.8979
     5.9119   6.1069   6.1546   6.4785   6.5360   6.6369   7.4367   7.4655

          k = 0.0000 0.2525 0.2500 (  5143 PWs)   bands (ev):

   -64.8302 -64.8245 -64.8242 -64.8233 -31.6233 -31.6191 -31.6146 -31.6027
   -31.5999 -31.5982 -31.5884 -31.5843 -31.5808 -31.5800 -31.5798 -31.5631
    -8.9627  -8.0649  -8.0464  -7.9045   4.1534   4.1630   4.3063   5.0708
     5.8172   6.0438   6.0928   6.4385   6.4552   6.6164   7.1944   7.5005

          k = 0.0000 0.2525-0.5000 (  5142 PWs)   bands (ev):

   -64.8275 -64.8270 -64.8241 -64.8235 -31.6130 -31.6128 -31.6116 -31.6113
   -31.6073 -31.6072 -31.5894 -31.5891 -31.5793 -31.5792 -31.5686 -31.5684
    -8.5083  -8.5080  -7.9449  -7.9448   4.4035   4.4038   4.7261   4.7264
     5.0790   5.0795   6.5663   6.5666   6.6092   6.6096   7.0760   7.0761

          k = 0.0000-0.5051 0.0000 (  5142 PWs)   bands (ev):

   -64.8282 -64.8275 -64.8235 -64.8230 -31.6156 -31.6138 -31.6087 -31.6066
   -31.5953 -31.5928 -31.5874 -31.5865 -31.5847 -31.5845 -31.5804 -31.5790
    -8.6480  -8.6117  -7.8653  -7.8646   4.8203   4.8438   4.8777   4.9014
     5.1008   5.1251   5.9211   5.9214   6.9087   6.9446   6.9539   6.9886

          k = 0.0000-0.5051 0.2500 (  5144 PWs)   bands (ev):

   -64.8275 -64.8269 -64.8242 -64.8237 -31.6151 -31.6140 -31.6118 -31.6100
   -31.6058 -31.6048 -31.5914 -31.5900 -31.5770 -31.5764 -31.5712 -31.5710
    -8.5123  -8.4804  -7.9538  -7.9482   4.3912   4.4132   4.7056   4.7320
     5.0718   5.1273   6.5261   6.5482   6.5623   6.6014   7.0807   7.0926

          k = 0.0000-0.5051-0.5000 (  5152 PWs)   bands (ev):

   -64.8259 -64.8257 -64.8257 -64.8248 -31.6165 -31.6163 -31.6158 -31.6156
   -31.6017 -31.6014 -31.6001 -31.5999 -31.5696 -31.5694 -31.5688 -31.5686
    -8.2099  -8.2097  -8.1901  -8.1899   4.2496   4.2498   4.2597   4.2598
     5.7461   5.7466   5.7959   5.7964   7.0692   7.0695   7.0849   7.0851

          k = 0.2475 0.0000 0.0000 (  5154 PWs)   bands (ev):

   -64.8315 -64.8249 -64.8232 -64.8226 -31.6260 -31.6228 -31.6168 -31.5986
   -31.5981 -31.5970 -31.5916 -31.5862 -31.5836 -31.5807 -31.5693 -31.5628
    -9.1637  -8.1549  -7.8860  -7.8676   4.0398   4.0732   4.0771   5.8025
     5.8198   6.1840   6.2334   6.5476   6.6048   6.6769   7.4323   7.4642

          k = 0.2475 0.0000 0.2500 (  5153 PWs)   bands (ev):

   -64.8303 -64.8247 -64.8242 -64.8230 -31.6251 -31.6198 -31.6116 -31.6090
   -31.5939 -31.5911 -31.5894 -31.5875 -31.5853 -31.5847 -31.5704 -31.5671
    -8.9729  -8.0844  -8.0660  -7.8794   4.1582   4.1659   4.3512   5.0698
     5.8756   6.0189   6.0647   6.5142   6.5258   6.5543   7.1505   7.5077

          k = 0.2475 0.0000-0.5000 (  5160 PWs)   bands (ev):

   -64.8275 -64.8271 -64.8241 -64.8235 -31.6203 -31.6201 -31.6100 -31.6099
   -31.5979 -31.5976 -31.5848 -31.5847 -31.5792 -31.5790 -31.5779 -31.5776
    -8.5147  -8.5143  -7.9523  -7.9522   4.4314   4.4316   4.7735   4.7738
     5.1142   5.1148   6.5198   6.5201   6.5485   6.5489   7.1108   7.1109

          k = 0.2475 0.2525 0.0000 (  5152 PWs)   bands (ev):

   -64.8302 -64.8247 -64.8241 -64.8232 -31.6252 -31.6175 -31.6154 -31.6069
   -31.5941 -31.5923 -31.5910 -31.5899 -31.5842 -31.5802 -31.5737 -31.5651
    -8.9678  -8.0836  -8.0468  -7.8916   4.1523   4.1697   4.3264   5.0706
     5.8456   6.0073   6.1020   6.4662   6.4985   6.5868   7.1735   7.5033

          k = 0.2475 0.2525 0.2500 (  5149 PWs)   bands (ev):

   -64.8292 -64.8247 -64.8245 -64.8238 -31.6269 -31.6238 -31.6217 -31.6050
   -31.5939 -31.5924 -31.5915 -31.5858 -31.5802 -31.5775 -31.5743 -31.5646
    -8.7980  -8.0453  -8.0322  -8.0189   3.9962   3.9991   4.0040   5.0880
     5.8294   5.8443   5.8599   6.6758   6.7062   6.7330   7.3507   7.3575

          k = 0.2475 0.2525-0.5000 (  5140 PWs)   bands (ev):

   -64.8270 -64.8266 -64.8246 -64.8240 -31.6270 -31.6269 -31.6204 -31.6201
   -31.5926 -31.5924 -31.5812 -31.5809 -31.5776 -31.5775 -31.5709 -31.5707
    -8.4009  -8.4006  -7.9986  -7.9986   3.8211   3.8213   4.1969   4.1973
     5.8283   5.8285   6.7390   6.7393   6.8674   6.8682   7.0159   7.0162

          k = 0.2475-0.5051 0.0000 (  5150 PWs)   bands (ev):

   -64.8275 -64.8269 -64.8242 -64.8236 -31.6196 -31.6184 -31.6079 -31.6071
   -31.6052 -31.6033 -31.5851 -31.5836 -31.5791 -31.5785 -31.5756 -31.5750
    -8.5155  -8.4834  -7.9578  -7.9510   4.4062   4.4284   4.7300   4.7561
     5.0865   5.1422   6.5067   6.5276   6.5280   6.5693   7.0980   7.1089

          k = 0.2475-0.5051 0.2500 (  5136 PWs)   bands (ev):

   -64.8270 -64.8265 -64.8246 -64.8241 -31.6279 -31.6276 -31.6194 -31.6192
   -31.5948 -31.5946 -31.5812 -31.5804 -31.5750 -31.5749 -31.5718 -31.5713
    -8.4047  -8.3775  -8.0020  -8.0015   3.8182   3.8185   4.1683   4.1950
     5.8294   5.8307   6.7305   6.7313   6.8756   6.8881   6.9860   7.0115

          k = 0.2475-0.5051-0.5000 (  5132 PWs)   bands (ev):

   -64.8259 -64.8257 -64.8257 -64.8248 -31.6301 -31.6299 -31.6298 -31.6298
   -31.5865 -31.5862 -31.5858 -31.5856 -31.5693 -31.5691 -31.5687 -31.5686
    -8.1728  -8.1727  -8.1587  -8.1585   3.6205   3.6206   3.6338   3.6340
     6.4966   6.4969   6.5260   6.5263   7.0722   7.0724   7.0832   7.0834

          k =-0.4950 0.0000 0.0000 (  5166 PWs)   bands (ev):

   -64.8285 -64.8279 -64.8232 -64.8227 -31.6114 -31.6096 -31.6076 -31.6055
   -31.6038 -31.6018 -31.5984 -31.5982 -31.5785 -31.5775 -31.5735 -31.5722
    -8.6843  -8.6453  -7.8514  -7.8506   4.7889   4.8164   4.8494   4.8767
     5.1197   5.1405   6.0215   6.0218   6.9438   6.9809   6.9911   7.0269

          k =-0.4950 0.0000 0.2500 (  5160 PWs)   bands (ev):

   -64.8277 -64.8271 -64.8239 -64.8234 -31.6181 -31.6171 -31.6129 -31.6115
   -31.5998 -31.5980 -31.5884 -31.5876 -31.5778 -31.5764 -31.5757 -31.5754
    -8.5430  -8.5085  -7.9496  -7.9421   4.4187   4.4439   4.7685   4.7929
     5.0660   5.1245   6.5361   6.5562   6.5613   6.5948   7.0947   7.1042

          k =-0.4950 0.0000-0.5000 (  5196 PWs)   bands (ev):

   -64.8259 -64.8257 -64.8257 -64.8248 -31.6204 -31.6202 -31.6196 -31.6195
   -31.5893 -31.5890 -31.5877 -31.5874 -31.5792 -31.5790 -31.5785 -31.5784
    -8.2250  -8.2247  -8.2029  -8.2026   4.3256   4.3257   4.3345   4.3346
     5.7379   5.7384   5.7903   5.7908   7.0373   7.0375   7.0560   7.0562

          k =-0.4950 0.2525 0.0000 (  5152 PWs)   bands (ev):

   -64.8277 -64.8271 -64.8239 -64.8234 -31.6159 -31.6150 -31.6122 -31.6108
   -31.6070 -31.6052 -31.5847 -31.5839 -31.5829 -31.5816 -31.5698 -31.5694
    -8.5397  -8.5053  -7.9449  -7.9388   4.4061   4.4310   4.7451   4.7699
     5.0454   5.1040   6.5654   6.5811   6.5860   6.6231   7.0762   7.0865

          k =-0.4950 0.2525 0.2500 (  5142 PWs)   bands (ev):

   -64.8271 -64.8266 -64.8244 -64.8239 -31.6266 -31.6265 -31.6212 -31.6207
   -31.5895 -31.5890 -31.5831 -31.5826 -31.5789 -31.5788 -31.5714 -31.5706
    -8.4246  -8.3952  -7.9954  -7.9948   3.8228   3.8232   4.1996   4.2264
     5.8272   5.8285   6.7464   6.7470   6.8477   6.8579   7.0186   7.0449

          k =-0.4950 0.2525-0.5000 (  5152 PWs)   bands (ev):

   -64.8259 -64.8257 -64.8257 -64.8248 -31.6315 -31.6312 -31.6312 -31.6310
   -31.5797 -31.5796 -31.5794 -31.5793 -31.5753 -31.5751 -31.5748 -31.5747
    -8.1808  -8.1806  -8.1649  -8.1647   3.6453   3.6455   3.6593   3.6595
     6.5205   6.5208   6.5501   6.5504   7.0414   7.0416   7.0547   7.0549

          k =-0.4950-0.5051 0.0000 (  5192 PWs)   bands (ev):

   -64.8260 -64.8258 -64.8256 -64.8248 -31.6191 -31.6184 -31.6181 -31.6176
   -31.5972 -31.5957 -31.5956 -31.5940 -31.5743 -31.5738 -31.5733 -31.5730
    -8.2276  -8.2066  -8.2057  -8.1858   4.2833   4.2922   4.2931   4.3023
     5.7148   5.7652   5.7674   5.8172   7.0440   7.0610   7.0622   7.0782

          k =-0.4950-0.5051 0.2500 (  5132 PWs)   bands (ev):

   -64.8259 -64.8258 -64.8256 -64.8248 -31.6308 -31.6306 -31.6304 -31.6304
   -31.5839 -31.5834 -31.5831 -31.5827 -31.5713 -31.5712 -31.5707 -31.5706
    -8.1843  -8.1690  -8.1684  -8.1543   3.6262   3.6397   3.6398   3.6536
     6.4933   6.5226   6.5238   6.5524   7.0504   7.0624   7.0636   7.0746

          k =-0.4950-0.5051-0.5000 (  5136 PWs)   bands (ev):

   -64.8258 -64.8258 -64.8257 -64.8248 -31.6389 -31.6387 -31.6386 -31.6386
   -31.5786 -31.5784 -31.5784 -31.5783 -31.5681 -31.5679 -31.5679 -31.5678
    -8.1313  -8.1312  -8.1307  -8.1306   3.2169   3.2170   3.2172   3.2172
     7.0464   7.0465   7.0469   7.0470   7.0803   7.0804   7.0809   7.0810

          k = 0.0000-0.2525 0.2500 (  5143 PWs)   bands (ev):

   -64.8302 -64.8245 -64.8242 -64.8233 -31.6233 -31.6191 -31.6146 -31.6027
   -31.5999 -31.5982 -31.5884 -31.5843 -31.5808 -31.5800 -31.5798 -31.5631
    -8.9627  -8.0649  -8.0464  -7.9045   4.1534   4.1630   4.3063   5.0708
     5.8172   6.0438   6.0928   6.4385   6.4552   6.6164   7.1944   7.5005

          k =-0.2475 0.0000 0.2500 (  5153 PWs)   bands (ev):

   -64.8303 -64.8247 -64.8242 -64.8230 -31.6251 -31.6198 -31.6116 -31.6090
   -31.5939 -31.5911 -31.5894 -31.5875 -31.5853 -31.5847 -31.5704 -31.5671
    -8.9729  -8.0844  -8.0660  -7.8794   4.1582   4.1659   4.3512   5.0698
     5.8756   6.0189   6.0647   6.5142   6.5258   6.5543   7.1505   7.5077

          k =-0.2475 0.2525 0.0000 (  5152 PWs)   bands (ev):

   -64.8302 -64.8247 -64.8241 -64.8232 -31.6252 -31.6175 -31.6155 -31.6069
   -31.5941 -31.5923 -31.5910 -31.5899 -31.5843 -31.5802 -31.5737 -31.5651
    -8.9678  -8.0836  -8.0468  -7.8916   4.1523   4.1697   4.3264   5.0706
     5.8456   6.0073   6.1020   6.4662   6.4985   6.5868   7.1735   7.5033

          k =-0.2475-0.2525 0.2500 (  5149 PWs)   bands (ev):

   -64.8292 -64.8247 -64.8245 -64.8238 -31.6269 -31.6238 -31.6217 -31.6050
   -31.5939 -31.5924 -31.5915 -31.5858 -31.5802 -31.5775 -31.5743 -31.5646
    -8.7980  -8.0453  -8.0322  -8.0189   3.9962   3.9991   4.0040   5.0880
     5.8294   5.8443   5.8599   6.6758   6.7062   6.7330   7.3507   7.3575

          k =-0.2475 0.2525-0.2500 (  5149 PWs)   bands (ev):

   -64.8292 -64.8247 -64.8245 -64.8238 -31.6269 -31.6237 -31.6218 -31.6050
   -31.5939 -31.5925 -31.5914 -31.5858 -31.5802 -31.5775 -31.5744 -31.5646
    -8.7980  -8.0453  -8.0322  -8.0189   3.9962   3.9991   4.0040   5.0880
     5.8294   5.8443   5.8599   6.6758   6.7062   6.7330   7.3507   7.3575

          k = 0.2475-0.2525-0.2500 (  5149 PWs)   bands (ev):

   -64.8292 -64.8247 -64.8245 -64.8238 -31.6269 -31.6237 -31.6218 -31.6050
   -31.5939 -31.5925 -31.5914 -31.5858 -31.5802 -31.5775 -31.5744 -31.5646
    -8.7980  -8.0453  -8.0322  -8.0189   3.9962   3.9991   4.0040   5.0880
     5.8294   5.8443   5.8599   6.6758   6.7062   6.7330   7.3507   7.3575

          k =-0.2475 0.2525 0.5000 (  5140 PWs)   bands (ev):

   -64.8270 -64.8266 -64.8246 -64.8240 -31.6271 -31.6268 -31.6203 -31.6202
   -31.5926 -31.5923 -31.5811 -31.5810 -31.5777 -31.5775 -31.5709 -31.5707
    -8.4009  -8.4006  -7.9986  -7.9985   3.8210   3.8214   4.1969   4.1972
     5.8284   5.8285   6.7391   6.7392   6.8676   6.8681   7.0159   7.0162

          k =-0.2475 0.5051 0.2500 (  5136 PWs)   bands (ev):

   -64.8270 -64.8265 -64.8246 -64.8241 -31.6279 -31.6276 -31.6194 -31.6192
   -31.5948 -31.5946 -31.5812 -31.5804 -31.5750 -31.5749 -31.5718 -31.5713
    -8.4047  -8.3775  -8.0020  -8.0015   3.8182   3.8185   4.1683   4.1950
     5.8294   5.8307   6.7305   6.7313   6.8756   6.8881   6.9860   7.0115

          k = 0.4950-0.2525 0.2500 (  5142 PWs)   bands (ev):

   -64.8271 -64.8266 -64.8244 -64.8239 -31.6266 -31.6265 -31.6212 -31.6207
   -31.5895 -31.5890 -31.5831 -31.5826 -31.5789 -31.5788 -31.5714 -31.5706
    -8.4246  -8.3952  -7.9954  -7.9948   3.8228   3.8232   4.1996   4.2264
     5.8272   5.8285   6.7464   6.7470   6.8477   6.8579   7.0186   7.0449

     highest occupied level (ev):     7.6918

!    total energy              =    -608.39169197 Ry
     Harris-Foulkes estimate   =    -608.39169197 Ry
     estimated scf accuracy    <          2.0E-09 Ry

     The total energy is the sum of the following terms:

     one-electron contribution =    -303.71117768 Ry
     hartree contribution      =     168.14689797 Ry
     xc contribution           =     -97.84888759 Ry
     ewald contribution        =    -374.97852468 Ry

     convergence has been achieved in   5 iterations

     Forces acting on atoms (cartesian axes, Ry/au):

     atom    1 type  1   force =    -0.00359953    0.00414747   -0.00003868
     atom    2 type  1   force =    -0.00368922   -0.00420611    0.00003821
     atom    3 type  1   force =     0.00362985    0.00426165    0.00003831
     atom    4 type  1   force =     0.00354198   -0.00412979   -0.00003957
     atom    5 type  2   force =     0.00405537    0.00450077   -0.00004231
     atom    6 type  2   force =    -0.00400597   -0.00452720   -0.00004232
     atom    7 type  2   force =    -0.00400097    0.00449177    0.00004310
     atom    8 type  2   force =     0.00406849   -0.00453856    0.00004325

     Total force =     0.016401     Total SCF correction =     0.000365


     Computing stress (Cartesian axis) and pressure

          total   stress  (Ry/bohr**3)                   (kbar)     P=  -66.96
  -0.00056576   0.00000002  -0.00000000        -83.23      0.00     -0.00
   0.00000002  -0.00033472   0.00000000          0.00    -49.24      0.00
  -0.00000000   0.00000000  -0.00046499         -0.00      0.00    -68.40


     number of scf cycles    =   2
     number of bfgs steps    =   1

     energy   old            =    -608.3912141127 Ry
     energy   new            =    -608.3916919670 Ry

     CASE: energy  _new < energy  _old

     new trust radius        =       0.0100050949 bohr
     new conv_thr            =       0.0000000045 Ry


ATOMIC_POSITIONS (alat)
Mg      -0.001336830   0.001614861  -0.000014592
Mg      -0.001355367   0.498378062   0.500014265
Mg       0.501337586   0.001638355   0.500014273
Mg       0.501300819   0.498410734  -0.000014757
O        0.501542361   0.001777902  -0.000016297
O       -0.001518224   0.498204096  -0.000016292
O       -0.001517448   0.001776224   0.500016679
O        0.501547103   0.498199765   0.500016721



     Writing output data file diamond.1.01.70.4.save
     NEW-OLD atomic charge density approx. for the potential

     Check: negative/imaginary core charge=   -0.000008    0.000000

     total cpu time spent up to now is       24.8 secs

     per-process dynamical memory:    56.4 Mb

     Self-consistent Calculation

     iteration #  1     ecut=    70.00 Ry     beta=0.70
     Davidson diagonalization with overlap
     ethr =  1.00E-06,  avg # of iterations =  3.2

     total cpu time spent up to now is       27.2 secs

     total energy              =    -608.39197641 Ry
     Harris-Foulkes estimate   =    -608.39207300 Ry
     estimated scf accuracy    <       0.00013176 Ry

     iteration #  2     ecut=    70.00 Ry     beta=0.70
     Davidson diagonalization with overlap
     ethr =  2.06E-07,  avg # of iterations =  2.2

     total cpu time spent up to now is       28.7 secs

     total energy              =    -608.39201736 Ry
     Harris-Foulkes estimate   =    -608.39203138 Ry
     estimated scf accuracy    <       0.00002337 Ry

     iteration #  3     ecut=    70.00 Ry     beta=0.70
     Davidson diagonalization with overlap
     ethr =  3.65E-08,  avg # of iterations =  2.0

     total cpu time spent up to now is       30.1 secs

     total energy              =    -608.39202236 Ry
     Harris-Foulkes estimate   =    -608.39202230 Ry
     estimated scf accuracy    <       0.00000015 Ry

     iteration #  4     ecut=    70.00 Ry     beta=0.70
     Davidson diagonalization with overlap
     ethr =  2.41E-10,  avg # of iterations =  2.8

     total cpu time spent up to now is       31.9 secs

     total energy              =    -608.39202240 Ry
     Harris-Foulkes estimate   =    -608.39202241 Ry
     estimated scf accuracy    <       0.00000002 Ry

     iteration #  5     ecut=    70.00 Ry     beta=0.70
     Davidson diagonalization with overlap
     ethr =  2.89E-11,  avg # of iterations =  2.0

     total cpu time spent up to now is       33.4 secs

     End of self-consistent calculation

          k = 0.0000 0.0000 0.0000 (  5129 PWs)   bands (ev):

   -64.8332 -64.8240 -64.8235 -64.8229 -31.6346 -31.6287 -31.6226 -31.5980
   -31.5960 -31.5934 -31.5898 -31.5858 -31.5842 -31.5722 -31.5640 -31.5574
    -9.3658  -7.9413  -7.9149  -7.8892   3.7258   3.7576   3.7930   6.3085
     6.3199   6.3704   6.3895   6.4427   6.4505   7.6475   7.6725   7.6923

          k = 0.0000 0.0000 0.2500 (  5153 PWs)   bands (ev):

   -64.8318 -64.8249 -64.8238 -64.8231 -31.6288 -31.6191 -31.6171 -31.6038
   -31.5945 -31.5926 -31.5905 -31.5901 -31.5823 -31.5768 -31.5764 -31.5644
    -9.1574  -8.1298  -7.9054  -7.8683   4.0181   4.0798   4.0942   5.8418
     5.8730   6.1214   6.2187   6.4862   6.6010   6.6591   7.4184   7.4794

          k = 0.0000 0.0000-0.5000 (  5138 PWs)   bands (ev):

   -64.8286 -64.8281 -64.8237 -64.8232 -31.6160 -31.6157 -31.6021 -31.6019
   -31.6002 -31.6002 -31.5905 -31.5905 -31.5856 -31.5853 -31.5741 -31.5738
    -8.6473  -8.6471  -7.8582  -7.8581   4.8219   4.8222   4.8728   4.8731
     5.1226   5.1229   5.9726   5.9730   6.9217   6.9219   7.0129   7.0131

          k = 0.0000 0.2525 0.0000 (  5161 PWs)   bands (ev):

   -64.8317 -64.8247 -64.8239 -64.8233 -31.6293 -31.6225 -31.6140 -31.6018
   -31.5954 -31.5951 -31.5899 -31.5870 -31.5861 -31.5767 -31.5705 -31.5705
    -9.1516  -8.1049  -7.9059  -7.8871   4.0243   4.0541   4.1118   5.8977
     5.9120   6.1073   6.1550   6.4789   6.5361   6.6372   7.4367   7.4656

          k = 0.0000 0.2525 0.2500 (  5143 PWs)   bands (ev):

   -64.8305 -64.8248 -64.8245 -64.8237 -31.6236 -31.6194 -31.6148 -31.6030
   -31.6002 -31.5985 -31.5886 -31.5848 -31.5810 -31.5804 -31.5802 -31.5634
    -8.9621  -8.0644  -8.0461  -7.9042   4.1540   4.1632   4.3066   5.0712
     5.8175   6.0444   6.0927   6.4388   6.4551   6.6162   7.1944   7.5008

          k = 0.0000 0.2525-0.5000 (  5142 PWs)   bands (ev):

   -64.8279 -64.8274 -64.8244 -64.8239 -31.6131 -31.6130 -31.6116 -31.6114
   -31.6078 -31.6078 -31.5897 -31.5894 -31.5796 -31.5795 -31.5689 -31.5687
    -8.5076  -8.5074  -7.9447  -7.9446   4.4039   4.4040   4.7267   4.7269
     5.0791   5.0794   6.5686   6.5688   6.6073   6.6075   7.0760   7.0761

          k = 0.0000-0.5051 0.0000 (  5142 PWs)   bands (ev):

   -64.8284 -64.8280 -64.8238 -64.8234 -31.6153 -31.6144 -31.6085 -31.6074
   -31.5950 -31.5937 -31.5871 -31.5866 -31.5852 -31.5851 -31.5804 -31.5797
    -8.6376  -8.6212  -7.8647  -7.8644   4.8361   4.8599   4.8624   4.8862
     5.1074   5.1183   5.9216   5.9218   6.9187   6.9348   6.9634   6.9790

          k = 0.0000-0.5051 0.2500 (  5144 PWs)   bands (ev):

   -64.8277 -64.8273 -64.8245 -64.8240 -31.6151 -31.6145 -31.6114 -31.6105
   -31.6060 -31.6055 -31.5914 -31.5906 -31.5771 -31.5769 -31.5715 -31.5713
    -8.5031  -8.4886  -7.9519  -7.9493   4.3975   4.4077   4.7135   4.7251
     5.0865   5.1119   6.5346   6.5442   6.5709   6.5890   7.0842   7.0897

          k = 0.0000-0.5051-0.5000 (  5152 PWs)   bands (ev):

   -64.8262 -64.8261 -64.8260 -64.8252 -31.6165 -31.6164 -31.6161 -31.6160
   -31.6017 -31.6014 -31.6009 -31.6006 -31.5697 -31.5695 -31.5692 -31.5691
    -8.2040  -8.2039  -8.1951  -8.1949   4.2529   4.2531   4.2571   4.2572
     5.7597   5.7600   5.7824   5.7826   7.0739   7.0741   7.0809   7.0811

          k = 0.2475 0.0000 0.0000 (  5154 PWs)   bands (ev):

   -64.8318 -64.8252 -64.8235 -64.8230 -31.6262 -31.6231 -31.6170 -31.5988
   -31.5985 -31.5972 -31.5919 -31.5865 -31.5840 -31.5809 -31.5696 -31.5630
    -9.1630  -8.1547  -7.8856  -7.8672   4.0406   4.0734   4.0773   5.8027
     5.8196   6.1845   6.2339   6.5476   6.6052   6.6772   7.4323   7.4642

          k = 0.2475 0.0000 0.2500 (  5153 PWs)   bands (ev):

   -64.8306 -64.8250 -64.8246 -64.8234 -31.6253 -31.6200 -31.6117 -31.6093
   -31.5942 -31.5914 -31.5897 -31.5878 -31.5855 -31.5851 -31.5707 -31.5674
    -8.9723  -8.0841  -8.0656  -7.8791   4.1584   4.1665   4.3515   5.0701
     5.8759   6.0187   6.0652   6.5141   6.5287   6.5516   7.1505   7.5080

          k = 0.2475 0.0000-0.5000 (  5160 PWs)   bands (ev):

   -64.8279 -64.8274 -64.8244 -64.8239 -31.6205 -31.6203 -31.6102 -31.6101
   -31.5982 -31.5979 -31.5850 -31.5850 -31.5796 -31.5794 -31.5782 -31.5779
    -8.5140  -8.5138  -7.9520  -7.9519   4.4317   4.4319   4.7741   4.7743
     5.1144   5.1147   6.5235   6.5237   6.5452   6.5454   7.1108   7.1109

          k = 0.2475 0.2525 0.0000 (  5152 PWs)   bands (ev):

   -64.8306 -64.8250 -64.8244 -64.8235 -31.6254 -31.6177 -31.6156 -31.6071
   -31.5944 -31.5924 -31.5913 -31.5904 -31.5845 -31.5805 -31.5740 -31.5654
    -8.9671  -8.0834  -8.0465  -7.8912   4.1526   4.1700   4.3274   5.0706
     5.8461   6.0075   6.1022   6.4669   6.4993   6.5853   7.1734   7.5037

          k = 0.2475 0.2525 0.2500 (  5149 PWs)   bands (ev):

   -64.8296 -64.8250 -64.8248 -64.8242 -31.6271 -31.6240 -31.6219 -31.6052
   -31.5942 -31.5928 -31.5918 -31.5861 -31.5805 -31.5778 -31.5747 -31.5649
    -8.7973  -8.0450  -8.0317  -8.0187   3.9964   3.9995   4.0042   5.0884
     5.8296   5.8446   5.8600   6.6761   6.7061   6.7333   7.3509   7.3576

          k = 0.2475 0.2525-0.5000 (  5140 PWs)   bands (ev):

   -64.8274 -64.8269 -64.8249 -64.8243 -31.6273 -31.6271 -31.6206 -31.6204
   -31.5929 -31.5927 -31.5815 -31.5812 -31.5779 -31.5778 -31.5713 -31.5710
    -8.4003  -8.4001  -7.9984  -7.9983   3.8214   3.8215   4.1971   4.1974
     5.8286   5.8287   6.7399   6.7402   6.8676   6.8679   7.0157   7.0159

          k = 0.2475-0.5051 0.0000 (  5150 PWs)   bands (ev):

   -64.8277 -64.8273 -64.8245 -64.8240 -31.6195 -31.6189 -31.6079 -31.6075
   -31.6050 -31.6041 -31.5851 -31.5843 -31.5792 -31.5789 -31.5758 -31.5755
    -8.5062  -8.4917  -7.9556  -7.9525   4.4123   4.4226   4.7374   4.7489
     5.1023   5.1277   6.5127   6.5222   6.5394   6.5580   7.1010   7.1060

          k = 0.2475-0.5051 0.2500 (  5136 PWs)   bands (ev):

   -64.8272 -64.8269 -64.8250 -64.8245 -31.6281 -31.6279 -31.6196 -31.6195
   -31.5951 -31.5950 -31.5813 -31.5809 -31.5753 -31.5752 -31.5720 -31.5717
    -8.3968  -8.3844  -8.0015  -8.0013   3.8186   3.8187   4.1759   4.1876
     5.8302   5.8308   6.7310   6.7314   6.8790   6.8849   6.9931   7.0045

          k = 0.2475-0.5051-0.5000 (  5132 PWs)   bands (ev):

   -64.8262 -64.8261 -64.8260 -64.8252 -31.6303 -31.6301 -31.6300 -31.6300
   -31.5866 -31.5864 -31.5863 -31.5861 -31.5695 -31.5692 -31.5691 -31.5690
    -8.1685  -8.1684  -8.1621  -8.1620   3.6244   3.6245   3.6302   3.6303
     6.5049   6.5050   6.5182   6.5184   7.0756   7.0758   7.0804   7.0806

          k =-0.4950 0.0000 0.0000 (  5166 PWs)   bands (ev):

   -64.8288 -64.8283 -64.8235 -64.8230 -31.6113 -31.6102 -31.6073 -31.6060
   -31.6038 -31.6026 -31.5986 -31.5985 -31.5787 -31.5780 -31.5735 -31.5728
    -8.6752  -8.6535  -7.8508  -7.8504   4.8026   4.8297   4.8366   4.8636
     5.1245   5.1358   6.0221   6.0223   6.9520   6.9725   6.9992   7.0191

          k =-0.4950 0.0000 0.2500 (  5160 PWs)   bands (ev):

   -64.8280 -64.8275 -64.8243 -64.8238 -31.6181 -31.6175 -31.6128 -31.6120
   -31.5998 -31.5986 -31.5886 -31.5881 -31.5778 -31.5769 -31.5760 -31.5758
    -8.5349  -8.5157  -7.9475  -7.9434   4.4246   4.4389   4.7746   4.7877
     5.0785   5.1113   6.5467   6.5591   6.5601   6.5832   7.0970   7.1025

          k =-0.4950 0.0000-0.5000 (  5196 PWs)   bands (ev):

   -64.8262 -64.8261 -64.8261 -64.8252 -31.6205 -31.6203 -31.6200 -31.6199
   -31.5893 -31.5890 -31.5883 -31.5880 -31.5794 -31.5792 -31.5789 -31.5789
    -8.2196  -8.2195  -8.2073  -8.2071   4.3281   4.3283   4.3326   4.3327
     5.7495   5.7497   5.7788   5.7791   7.0419   7.0421   7.0521   7.0523

          k =-0.4950 0.2525 0.0000 (  5152 PWs)   bands (ev):

   -64.8280 -64.8275 -64.8242 -64.8238 -31.6159 -31.6154 -31.6122 -31.6113
   -31.6069 -31.6058 -31.5848 -31.5843 -31.5829 -31.5821 -31.5700 -31.5697
    -8.5316  -8.5124  -7.9432  -7.9398   4.4116   4.4257   4.7510   4.7644
     5.0588   5.0917   6.5703   6.5818   6.5904   6.6138   7.0785   7.0843

          k =-0.4950 0.2525 0.2500 (  5142 PWs)   bands (ev):

   -64.8274 -64.8270 -64.8248 -64.8243 -31.6268 -31.6267 -31.6213 -31.6210
   -31.5897 -31.5894 -31.5833 -31.5830 -31.5792 -31.5791 -31.5716 -31.5710
    -8.4176  -8.4012  -7.9949  -7.9946   3.8232   3.8234   4.2058   4.2204
     5.8278   5.8286   6.7468   6.7472   6.8499   6.8559   7.0245   7.0391

          k =-0.4950 0.2525-0.5000 (  5152 PWs)   bands (ev):

   -64.8262 -64.8261 -64.8260 -64.8252 -31.6316 -31.6314 -31.6314 -31.6313
   -31.5800 -31.5798 -31.5797 -31.5796 -31.5755 -31.5753 -31.5752 -31.5751
    -8.1768  -8.1767  -8.1680  -8.1678   3.6487   3.6488   3.6563   3.6564
     6.5273   6.5274   6.5438   6.5440   7.0447   7.0449   7.0520   7.0522

          k =-0.4950-0.5051 0.0000 (  5192 PWs)   bands (ev):

   -64.8262 -64.8261 -64.8260 -64.8252 -31.6189 -31.6186 -31.6184 -31.6181
   -31.5968 -31.5960 -31.5959 -31.5950 -31.5743 -31.5740 -31.5737 -31.5736
    -8.2167  -8.2073  -8.2046  -8.1955   4.2885   4.2926   4.2931   4.2972
     5.7404   5.7633   5.7697   5.7925   7.0530   7.0604   7.0628   7.0700

          k =-0.4950-0.5051 0.2500 (  5132 PWs)   bands (ev):

   -64.8262 -64.8261 -64.8260 -64.8252 -31.6310 -31.6308 -31.6307 -31.6307
   -31.5839 -31.5836 -31.5835 -31.5832 -31.5715 -31.5713 -31.5711 -31.5710
    -8.1762  -8.1694  -8.1675  -8.1611   3.6332   3.6392   3.6405   3.6466
     6.5083   6.5215   6.5252   6.5383   7.0569   7.0621   7.0640   7.0690

          k =-0.4950-0.5051-0.5000 (  5136 PWs)   bands (ev):

   -64.8261 -64.8261 -64.8260 -64.8252 -31.6391 -31.6389 -31.6388 -31.6388
   -31.5789 -31.5787 -31.5787 -31.5786 -31.5684 -31.5682 -31.5682 -31.5681
    -8.1307  -8.1305  -8.1305  -8.1304   3.2170   3.2171   3.2171   3.2172
     7.0469   7.0470   7.0471   7.0472   7.0808   7.0809   7.0810   7.0811

          k = 0.0000-0.2525 0.2500 (  5143 PWs)   bands (ev):

   -64.8305 -64.8248 -64.8245 -64.8237 -31.6236 -31.6194 -31.6148 -31.6030
   -31.6002 -31.5985 -31.5886 -31.5848 -31.5810 -31.5804 -31.5802 -31.5634
    -8.9621  -8.0644  -8.0461  -7.9042   4.1540   4.1632   4.3066   5.0712
     5.8175   6.0444   6.0927   6.4388   6.4551   6.6162   7.1944   7.5008

          k =-0.2475 0.0000 0.2500 (  5153 PWs)   bands (ev):

   -64.8306 -64.8250 -64.8246 -64.8234 -31.6253 -31.6200 -31.6117 -31.6093
   -31.5942 -31.5914 -31.5897 -31.5878 -31.5855 -31.5851 -31.5707 -31.5674
    -8.9723  -8.0841  -8.0656  -7.8791   4.1584   4.1665   4.3515   5.0701
     5.8759   6.0187   6.0652   6.5141   6.5287   6.5516   7.1505   7.5080

          k =-0.2475 0.2525 0.0000 (  5152 PWs)   bands (ev):

   -64.8306 -64.8250 -64.8244 -64.8235 -31.6254 -31.6177 -31.6156 -31.6071
   -31.5944 -31.5923 -31.5913 -31.5903 -31.5845 -31.5805 -31.5740 -31.5654
    -8.9671  -8.0834  -8.0465  -7.8912   4.1526   4.1700   4.3274   5.0706
     5.8461   6.0075   6.1022   6.4669   6.4993   6.5853   7.1734   7.5037

          k =-0.2475-0.2525 0.2500 (  5149 PWs)   bands (ev):

   -64.8296 -64.8250 -64.8248 -64.8242 -31.6271 -31.6240 -31.6219 -31.6052
   -31.5942 -31.5928 -31.5918 -31.5861 -31.5805 -31.5778 -31.5747 -31.5649
    -8.7973  -8.0450  -8.0317  -8.0187   3.9964   3.9995   4.0042   5.0884
     5.8296   5.8446   5.8600   6.6761   6.7061   6.7333   7.3509   7.3576

          k =-0.2475 0.2525-0.2500 (  5149 PWs)   bands (ev):

   -64.8296 -64.8250 -64.8248 -64.8242 -31.6271 -31.6240 -31.6220 -31.6052
   -31.5942 -31.5928 -31.5917 -31.5861 -31.5805 -31.5778 -31.5747 -31.5649
    -8.7973  -8.0450  -8.0317  -8.0187   3.9964   3.9995   4.0042   5.0884
     5.8296   5.8446   5.8600   6.6761   6.7061   6.7333   7.3509   7.3576

          k = 0.2475-0.2525-0.2500 (  5149 PWs)   bands (ev):

   -64.8296 -64.8250 -64.8248 -64.8242 -31.6271 -31.6240 -31.6220 -31.6052
   -31.5942 -31.5928 -31.5917 -31.5861 -31.5805 -31.5778 -31.5747 -31.5649
    -8.7973  -8.0450  -8.0317  -8.0187   3.9964   3.9995   4.0042   5.0884
     5.8296   5.8446   5.8600   6.6761   6.7061   6.7333   7.3509   7.3576

          k =-0.2475 0.2525 0.5000 (  5140 PWs)   bands (ev):

   -64.8274 -64.8269 -64.8249 -64.8243 -31.6273 -31.6271 -31.6205 -31.6204
   -31.5929 -31.5926 -31.5815 -31.5813 -31.5779 -31.5778 -31.5712 -31.5710
    -8.4002  -8.4001  -7.9984  -7.9983   3.8214   3.8215   4.1972   4.1973
     5.8286   5.8286   6.7399   6.7401   6.8677   6.8678   7.0157   7.0158

          k =-0.2475 0.5051 0.2500 (  5136 PWs)   bands (ev):

   -64.8272 -64.8269 -64.8250 -64.8245 -31.6281 -31.6279 -31.6196 -31.6195
   -31.5951 -31.5950 -31.5813 -31.5809 -31.5753 -31.5752 -31.5720 -31.5717
    -8.3968  -8.3844  -8.0015  -8.0013   3.8186   3.8187   4.1759   4.1876
     5.8302   5.8308   6.7310   6.7314   6.8790   6.8849   6.9931   7.0045

          k = 0.4950-0.2525 0.2500 (  5142 PWs)   bands (ev):

   -64.8274 -64.8270 -64.8248 -64.8243 -31.6268 -31.6267 -31.6213 -31.6210
   -31.5897 -31.5894 -31.5833 -31.5830 -31.5792 -31.5791 -31.5716 -31.5710
    -8.4176  -8.4012  -7.9949  -7.9946   3.8232   3.8234   4.2058   4.2204
     5.8278   5.8286   6.7468   6.7472   6.8499   6.8559   7.0245   7.0391

     highest occupied level (ev):     7.6923

!    total energy              =    -608.39202240 Ry
     Harris-Foulkes estimate   =    -608.39202241 Ry
     estimated scf accuracy    <          2.0E-09 Ry

     The total energy is the sum of the following terms:

     one-electron contribution =    -303.65043017 Ry
     hartree contribution      =     168.11606015 Ry
     xc contribution           =     -97.84819656 Ry
     ewald contribution        =    -375.00945582 Ry

     convergence has been achieved in   5 iterations

     Forces acting on atoms (cartesian axes, Ry/au):

     atom    1 type  1   force =    -0.00207390    0.00191298   -0.00002044
     atom    2 type  1   force =    -0.00224068   -0.00204783    0.00002144
     atom    3 type  1   force =     0.00217841    0.00210564    0.00002147
     atom    4 type  1   force =     0.00214885   -0.00202873   -0.00002210
     atom    5 type  2   force =     0.00211401    0.00194139   -0.00002060
     atom    6 type  2   force =    -0.00212568   -0.00190901   -0.00002060
     atom    7 type  2   force =    -0.00211741    0.00192769    0.00002042
     atom    8 type  2   force =     0.00211640   -0.00190214    0.00002042

     Total force =     0.008233     Total SCF correction =     0.000415


     Computing stress (Cartesian axis) and pressure

          total   stress  (Ry/bohr**3)                   (kbar)     P=  -67.33
  -0.00056902   0.00000001  -0.00000000        -83.71      0.00     -0.00
   0.00000001  -0.00033861   0.00000000          0.00    -49.81      0.00
  -0.00000000   0.00000000  -0.00046545         -0.00      0.00    -68.47


     number of scf cycles    =   3
     number of bfgs steps    =   2

     energy   old            =    -608.3916919670 Ry
     energy   new            =    -608.3920224044 Ry

     CASE: energy  _new < energy  _old

     new trust radius        =       0.0096743798 bohr
     new conv_thr            =       0.0000000022 Ry


ATOMIC_POSITIONS (alat)
Mg      -0.002141221   0.002424935  -0.000022783
Mg      -0.002208055   0.497530106   0.500022662
Mg       0.502170130   0.002505042   0.500022686
Mg       0.502118872   0.497573749  -0.000023428
O        0.502394127   0.002624095  -0.000024825
O       -0.002368791   0.497363648  -0.000024822
O       -0.002365583   0.002618329   0.500025228
O        0.502400520   0.497360096   0.500025283



     Writing output data file diamond.1.01.70.4.save
     NEW-OLD atomic charge density approx. for the potential

     Check: negative/imaginary core charge=   -0.000008    0.000000

     total cpu time spent up to now is       34.2 secs

     per-process dynamical memory:    56.4 Mb

     Self-consistent Calculation

     iteration #  1     ecut=    70.00 Ry     beta=0.70
     Davidson diagonalization with overlap
     ethr =  1.00E-06,  avg # of iterations =  3.1

     total cpu time spent up to now is       36.6 secs

     total energy              =    -608.39209094 Ry
     Harris-Foulkes estimate   =    -608.39218395 Ry
     estimated scf accuracy    <       0.00012697 Ry

     iteration #  2     ecut=    70.00 Ry     beta=0.70
     Davidson diagonalization with overlap
     ethr =  1.98E-07,  avg # of iterations =  2.2

     total cpu time spent up to now is       38.1 secs

     total energy              =    -608.39213051 Ry
     Harris-Foulkes estimate   =    -608.39214409 Ry
     estimated scf accuracy    <       0.00002268 Ry

     iteration #  3     ecut=    70.00 Ry     beta=0.70
     Davidson diagonalization with overlap
     ethr =  3.54E-08,  avg # of iterations =  2.0

     total cpu time spent up to now is       39.6 secs

     total energy              =    -608.39213536 Ry
     Harris-Foulkes estimate   =    -608.39213529 Ry
     estimated scf accuracy    <       0.00000015 Ry

     iteration #  4     ecut=    70.00 Ry     beta=0.70
     Davidson diagonalization with overlap
     ethr =  2.32E-10,  avg # of iterations =  2.7

     total cpu time spent up to now is       41.3 secs

     total energy              =    -608.39213540 Ry
     Harris-Foulkes estimate   =    -608.39213540 Ry
     estimated scf accuracy    <          9.9E-09 Ry

     iteration #  5     ecut=    70.00 Ry     beta=0.70
     Davidson diagonalization with overlap
     ethr =  1.54E-11,  avg # of iterations =  2.0

     total cpu time spent up to now is       42.9 secs

     End of self-consistent calculation

          k = 0.0000 0.0000 0.0000 (  5129 PWs)   bands (ev):

   -64.8334 -64.8241 -64.8237 -64.8231 -31.6347 -31.6288 -31.6226 -31.5980
   -31.5960 -31.5935 -31.5899 -31.5859 -31.5842 -31.5723 -31.5641 -31.5575
    -9.3656  -7.9412  -7.9147  -7.8890   3.7258   3.7578   3.7930   6.3086
     6.3199   6.3705   6.3896   6.4427   6.4506   7.6477   7.6725   7.6926

          k = 0.0000 0.0000 0.2500 (  5153 PWs)   bands (ev):

   -64.8319 -64.8251 -64.8239 -64.8232 -31.6289 -31.6192 -31.6172 -31.6038
   -31.5945 -31.5927 -31.5906 -31.5902 -31.5824 -31.5770 -31.5765 -31.5645
    -9.1572  -8.1296  -7.9053  -7.8681   4.0181   4.0799   4.0945   5.8419
     5.8732   6.1216   6.2190   6.4861   6.6009   6.6591   7.4184   7.4795

          k = 0.0000 0.0000-0.5000 (  5138 PWs)   bands (ev):

   -64.8287 -64.8283 -64.8238 -64.8233 -31.6160 -31.6157 -31.6020 -31.6018
   -31.6005 -31.6005 -31.5905 -31.5905 -31.5857 -31.5855 -31.5742 -31.5739
    -8.6470  -8.6469  -7.8581  -7.8580   4.8222   4.8222   4.8731   4.8731
     5.1226   5.1229   5.9730   5.9733   6.9217   6.9217   7.0129   7.0129

          k = 0.0000 0.2525 0.0000 (  5161 PWs)   bands (ev):

   -64.8319 -64.8248 -64.8240 -64.8235 -31.6293 -31.6226 -31.6141 -31.6019
   -31.5954 -31.5952 -31.5900 -31.5871 -31.5861 -31.5768 -31.5707 -31.5706
    -9.1513  -8.1048  -7.9058  -7.8869   4.0244   4.0544   4.1119   5.8976
     5.9121   6.1075   6.1552   6.4790   6.5360   6.6373   7.4367   7.4656

          k = 0.0000 0.2525 0.2500 (  5143 PWs)   bands (ev):

   -64.8307 -64.8250 -64.8246 -64.8239 -31.6236 -31.6195 -31.6148 -31.6031
   -31.6003 -31.5986 -31.5887 -31.5849 -31.5810 -31.5805 -31.5804 -31.5635
    -8.9618  -8.0642  -8.0460  -7.9040   4.1542   4.1633   4.3066   5.0714
     5.8176   6.0445   6.0927   6.4388   6.4551   6.6163   7.1944   7.5009

          k = 0.0000 0.2525-0.5000 (  5142 PWs)   bands (ev):

   -64.8280 -64.8276 -64.8245 -64.8240 -31.6132 -31.6130 -31.6116 -31.6113
   -31.6081 -31.6080 -31.5898 -31.5895 -31.5797 -31.5796 -31.5690 -31.5688
    -8.5074  -8.5073  -7.9445  -7.9444   4.4041   4.4041   4.7270   4.7272
     5.0791   5.0791   6.5696   6.5698   6.6065   6.6066   7.0760   7.0761

          k = 0.0000-0.5051 0.0000 (  5142 PWs)   bands (ev):

   -64.8285 -64.8281 -64.8240 -64.8235 -31.6150 -31.6148 -31.6081 -31.6080
   -31.5945 -31.5944 -31.5868 -31.5866 -31.5855 -31.5855 -31.5803 -31.5801
    -8.6302  -8.6282  -7.8645  -7.8644   4.8479   4.8508   4.8718   4.8747
     5.1120   5.1136   5.9218   5.9221   6.9258   6.9280   6.9701   6.9722

          k = 0.0000-0.5051 0.2500 (  5144 PWs)   bands (ev):

   -64.8278 -64.8275 -64.8246 -64.8242 -31.6150 -31.6148 -31.6110 -31.6108
   -31.6060 -31.6059 -31.5912 -31.5910 -31.5771 -31.5771 -31.5716 -31.5715
    -8.4966  -8.4948  -7.9506  -7.9503   4.4024   4.4032   4.7185   4.7205
     5.0977   5.1004   6.5397   6.5409   6.5780   6.5803   7.0868   7.0873

          k = 0.0000-0.5051-0.5000 (  5152 PWs)   bands (ev):

   -64.8262 -64.8262 -64.8262 -64.8254 -31.6165 -31.6163 -31.6162 -31.6162
   -31.6015 -31.6013 -31.6012 -31.6010 -31.5697 -31.5695 -31.5694 -31.5693
    -8.1999  -8.1998  -8.1988  -8.1988   4.2546   4.2547   4.2556   4.2559
     5.7698   5.7699   5.7724   5.7724   7.0770   7.0772   7.0781   7.0783

          k = 0.2475 0.0000 0.0000 (  5154 PWs)   bands (ev):

   -64.8320 -64.8254 -64.8237 -64.8232 -31.6262 -31.6232 -31.6171 -31.5989
   -31.5986 -31.5973 -31.5920 -31.5866 -31.5841 -31.5810 -31.5698 -31.5631
    -9.1628  -8.1546  -7.8854  -7.8671   4.0409   4.0736   4.0773   5.8027
     5.8195   6.1846   6.2341   6.5477   6.6054   6.6773   7.4323   7.4642

          k = 0.2475 0.0000 0.2500 (  5153 PWs)   bands (ev):

   -64.8307 -64.8251 -64.8247 -64.8235 -31.6254 -31.6201 -31.6118 -31.6094
   -31.5943 -31.5915 -31.5899 -31.5878 -31.5856 -31.5852 -31.5708 -31.5675
    -8.9720  -8.0841  -8.0654  -7.8790   4.1584   4.1668   4.3517   5.0702
     5.8760   6.0187   6.0654   6.5142   6.5302   6.5502   7.1505   7.5082

          k = 0.2475 0.0000-0.5000 (  5160 PWs)   bands (ev):

   -64.8280 -64.8276 -64.8245 -64.8240 -31.6205 -31.6203 -31.6103 -31.6102
   -31.5983 -31.5980 -31.5851 -31.5851 -31.5797 -31.5795 -31.5783 -31.5780
    -8.5137  -8.5137  -7.9519  -7.9518   4.4319   4.4319   4.7743   4.7745
     5.1146   5.1146   6.5246   6.5249   6.5443   6.5443   7.1108   7.1109

          k = 0.2475 0.2525 0.0000 (  5152 PWs)   bands (ev):

   -64.8307 -64.8252 -64.8246 -64.8237 -31.6255 -31.6178 -31.6157 -31.6072
   -31.5945 -31.5924 -31.5914 -31.5905 -31.5846 -31.5806 -31.5741 -31.5655
    -8.9668  -8.0833  -8.0464  -7.8910   4.1526   4.1701   4.3277   5.0705
     5.8462   6.0076   6.1024   6.4671   6.4997   6.5848   7.1733   7.5038

          k = 0.2475 0.2525 0.2500 (  5149 PWs)   bands (ev):

   -64.8297 -64.8251 -64.8249 -64.8243 -31.6272 -31.6241 -31.6220 -31.6052
   -31.5943 -31.5929 -31.5919 -31.5863 -31.5806 -31.5779 -31.5748 -31.5650
    -8.7970  -8.0449  -8.0315  -8.0185   3.9965   3.9997   4.0043   5.0885
     5.8296   5.8447   5.8601   6.6762   6.7060   6.7335   7.3510   7.3577

          k = 0.2475 0.2525-0.5000 (  5140 PWs)   bands (ev):

   -64.8275 -64.8271 -64.8250 -64.8245 -31.6273 -31.6271 -31.6206 -31.6205
   -31.5930 -31.5928 -31.5816 -31.5814 -31.5780 -31.5779 -31.5714 -31.5711
    -8.4000  -8.3999  -7.9982  -7.9982   3.8215   3.8216   4.1973   4.1974
     5.8287   5.8287   6.7402   6.7405   6.8677   6.8679   7.0157   7.0157

          k = 0.2475-0.5051 0.0000 (  5150 PWs)   bands (ev):

   -64.8278 -64.8275 -64.8246 -64.8242 -31.6193 -31.6192 -31.6078 -31.6078
   -31.6048 -31.6046 -31.5849 -31.5847 -31.5791 -31.5791 -31.5758 -31.5757
    -8.4996  -8.4978  -7.9542  -7.9538   4.4171   4.4179   4.7423   4.7442
     5.1138   5.1166   6.5169   6.5182   6.5475   6.5498   7.1033   7.1037

          k = 0.2475-0.5051 0.2500 (  5136 PWs)   bands (ev):

   -64.8273 -64.8270 -64.8251 -64.8246 -31.6281 -31.6280 -31.6196 -31.6195
   -31.5952 -31.5951 -31.5813 -31.5811 -31.5754 -31.5753 -31.5720 -31.5719
    -8.3911  -8.3896  -8.0013  -8.0012   3.8187   3.8188   4.1808   4.1828
     5.8305   5.8306   6.7313   6.7314   6.8819   6.8822   6.9980   6.9996

          k = 0.2475-0.5051-0.5000 (  5132 PWs)   bands (ev):

   -64.8262 -64.8262 -64.8262 -64.8254 -31.6304 -31.6302 -31.6301 -31.6301
   -31.5867 -31.5865 -31.5864 -31.5863 -31.5695 -31.5693 -31.5693 -31.5692
    -8.1655  -8.1654  -8.1647  -8.1646   3.6269   3.6269   3.6279   3.6280
     6.5108   6.5109   6.5124   6.5125   7.0778   7.0779   7.0785   7.0787

          k =-0.4950 0.0000 0.0000 (  5166 PWs)   bands (ev):

   -64.8288 -64.8285 -64.8236 -64.8232 -31.6110 -31.6107 -31.6068 -31.6065
   -31.6035 -31.6031 -31.5987 -31.5986 -31.5786 -31.5783 -31.5734 -31.5731
    -8.6660  -8.6624  -7.8505  -7.8504   4.8168   4.8227   4.8438   4.8497
     5.1294   5.1309   6.0222   6.0225   6.9607   6.9639   7.0077   7.0108

          k =-0.4950 0.0000 0.2500 (  5160 PWs)   bands (ev):

   -64.8281 -64.8277 -64.8244 -64.8239 -31.6180 -31.6178 -31.6126 -31.6123
   -31.5995 -31.5991 -31.5885 -31.5883 -31.5776 -31.5773 -31.5761 -31.5759
    -8.5267  -8.5235  -7.9456  -7.9449   4.4305   4.4333   4.7805   4.7821
     5.0920   5.0977   6.5532   6.5551   6.5686   6.5725   7.0993   7.1004

          k =-0.4950 0.0000-0.5000 (  5196 PWs)   bands (ev):

   -64.8263 -64.8262 -64.8262 -64.8254 -31.6204 -31.6203 -31.6202 -31.6201
   -31.5891 -31.5888 -31.5888 -31.5884 -31.5794 -31.5792 -31.5791 -31.5791
    -8.2142  -8.2142  -8.2122  -8.2121   4.3304   4.3305   4.3306   4.3307
     5.7617   5.7618   5.7667   5.7668   7.0464   7.0466   7.0479   7.0480

          k =-0.4950 0.2525 0.0000 (  5152 PWs)   bands (ev):

   -64.8281 -64.8277 -64.8244 -64.8239 -31.6158 -31.6156 -31.6120 -31.6117
   -31.6067 -31.6063 -31.5847 -31.5846 -31.5828 -31.5825 -31.5701 -31.5699
    -8.5234  -8.5202  -7.9417  -7.9411   4.4173   4.4201   4.7569   4.7585
     5.0726   5.0784   6.5752   6.5770   6.6003   6.6041   7.0809   7.0820

          k =-0.4950 0.2525 0.2500 (  5142 PWs)   bands (ev):

   -64.8275 -64.8272 -64.8249 -64.8245 -31.6269 -31.6268 -31.6213 -31.6212
   -31.5897 -31.5895 -31.5833 -31.5832 -31.5794 -31.5793 -31.5715 -31.5713
    -8.4106  -8.4079  -7.9946  -7.9946   3.8233   3.8234   4.2122   4.2140
     5.8283   5.8284   6.7470   6.7472   6.8523   6.8536   7.0307   7.0330

          k =-0.4950 0.2525-0.5000 (  5152 PWs)   bands (ev):

   -64.8263 -64.8262 -64.8262 -64.8254 -31.6317 -31.6315 -31.6315 -31.6314
   -31.5801 -31.5799 -31.5798 -31.5797 -31.5756 -31.5754 -31.5753 -31.5753
    -8.1729  -8.1728  -8.1715  -8.1714   3.6520   3.6522   3.6530   3.6530
     6.5343   6.5344   6.5370   6.5371   7.0480   7.0482   7.0490   7.0492

          k =-0.4950-0.5051 0.0000 (  5192 PWs)   bands (ev):

   -64.8263 -64.8262 -64.8262 -64.8254 -31.6188 -31.6186 -31.6185 -31.6184
   -31.5963 -31.5961 -31.5960 -31.5958 -31.5742 -31.5741 -31.5739 -31.5738
    -8.2074  -8.2063  -8.2054  -8.2043   4.2923   4.2924   4.2933   4.2935
     5.7628   5.7654   5.7678   5.7704   7.0604   7.0616   7.0618   7.0629

          k =-0.4950-0.5051 0.2500 (  5132 PWs)   bands (ev):

   -64.8262 -64.8262 -64.8262 -64.8254 -31.6311 -31.6309 -31.6308 -31.6307
   -31.5839 -31.5837 -31.5836 -31.5836 -31.5716 -31.5714 -31.5713 -31.5712
    -8.1695  -8.1687  -8.1681  -8.1673   3.6390   3.6398   3.6400   3.6409
     6.5213   6.5228   6.5241   6.5257   7.0622   7.0630   7.0632   7.0640

          k =-0.4950-0.5051-0.5000 (  5136 PWs)   bands (ev):

   -64.8262 -64.8262 -64.8262 -64.8254 -31.6392 -31.6390 -31.6389 -31.6389
   -31.5790 -31.5788 -31.5788 -31.5787 -31.5685 -31.5683 -31.5683 -31.5682
    -8.1304  -8.1303  -8.1303  -8.1303   3.2170   3.2171   3.2172   3.2172
     7.0470   7.0471   7.0472   7.0473   7.0810   7.0811   7.0811   7.0812

          k = 0.0000-0.2525 0.2500 (  5143 PWs)   bands (ev):

   -64.8307 -64.8250 -64.8246 -64.8239 -31.6236 -31.6195 -31.6148 -31.6031
   -31.6003 -31.5986 -31.5887 -31.5849 -31.5810 -31.5805 -31.5804 -31.5635
    -8.9618  -8.0642  -8.0460  -7.9040   4.1542   4.1633   4.3066   5.0714
     5.8176   6.0445   6.0927   6.4388   6.4551   6.6163   7.1944   7.5009

          k =-0.2475 0.0000 0.2500 (  5153 PWs)   bands (ev):

   -64.8307 -64.8251 -64.8247 -64.8235 -31.6254 -31.6201 -31.6118 -31.6094
   -31.5943 -31.5915 -31.5899 -31.5878 -31.5856 -31.5852 -31.5708 -31.5675
    -8.9720  -8.0841  -8.0654  -7.8790   4.1584   4.1668   4.3517   5.0702
     5.8760   6.0187   6.0654   6.5142   6.5302   6.5502   7.1505   7.5082

          k =-0.2475 0.2525 0.0000 (  5152 PWs)   bands (ev):

   -64.8307 -64.8252 -64.8246 -64.8237 -31.6255 -31.6178 -31.6157 -31.6072
   -31.5945 -31.5923 -31.5914 -31.5905 -31.5846 -31.5806 -31.5741 -31.5655
    -8.9668  -8.0833  -8.0464  -7.8910   4.1526   4.1701   4.3277   5.0705
     5.8462   6.0076   6.1024   6.4671   6.4997   6.5848   7.1733   7.5038

          k =-0.2475-0.2525 0.2500 (  5149 PWs)   bands (ev):

   -64.8297 -64.8251 -64.8249 -64.8243 -31.6272 -31.6241 -31.6220 -31.6052
   -31.5943 -31.5929 -31.5919 -31.5863 -31.5806 -31.5779 -31.5748 -31.5650
    -8.7970  -8.0449  -8.0315  -8.0185   3.9965   3.9997   4.0043   5.0885
     5.8296   5.8447   5.8601   6.6762   6.7060   6.7335   7.3510   7.3577

          k =-0.2475 0.2525-0.2500 (  5149 PWs)   bands (ev):

   -64.8297 -64.8251 -64.8249 -64.8243 -31.6272 -31.6241 -31.6220 -31.6052
   -31.5943 -31.5929 -31.5918 -31.5863 -31.5806 -31.5779 -31.5748 -31.5650
    -8.7970  -8.0449  -8.0315  -8.0185   3.9965   3.9997   4.0043   5.0885
     5.8296   5.8447   5.8601   6.6762   6.7060   6.7335   7.3510   7.3577

          k = 0.2475-0.2525-0.2500 (  5149 PWs)   bands (ev):

   -64.8297 -64.8251 -64.8249 -64.8243 -31.6272 -31.6241 -31.6220 -31.6052
   -31.5943 -31.5929 -31.5918 -31.5863 -31.5806 -31.5779 -31.5748 -31.5650
    -8.7970  -8.0449  -8.0315  -8.0185   3.9965   3.9997   4.0043   5.0885
     5.8296   5.8447   5.8601   6.6762   6.7060   6.7335   7.3510   7.3577

          k =-0.2475 0.2525 0.5000 (  5140 PWs)   bands (ev):

   -64.8275 -64.8271 -64.8250 -64.8245 -31.6273 -31.6272 -31.6206 -31.6205
   -31.5930 -31.5927 -31.5816 -31.5814 -31.5780 -31.5779 -31.5714 -31.5711
    -8.4000  -8.3999  -7.9982  -7.9982   3.8215   3.8216   4.1973   4.1974
     5.8287   5.8287   6.7402   6.7405   6.8677   6.8679   7.0157   7.0157

          k =-0.2475 0.5051 0.2500 (  5136 PWs)   bands (ev):

   -64.8273 -64.8270 -64.8251 -64.8246 -31.6281 -31.6280 -31.6196 -31.6195
   -31.5952 -31.5951 -31.5813 -31.5811 -31.5754 -31.5753 -31.5720 -31.5719
    -8.3911  -8.3896  -8.0013  -8.0012   3.8187   3.8188   4.1808   4.1828
     5.8305   5.8306   6.7313   6.7314   6.8819   6.8822   6.9980   6.9996

          k = 0.4950-0.2525 0.2500 (  5142 PWs)   bands (ev):

   -64.8275 -64.8272 -64.8249 -64.8245 -31.6269 -31.6268 -31.6213 -31.6212
   -31.5897 -31.5895 -31.5833 -31.5832 -31.5794 -31.5793 -31.5715 -31.5713
    -8.4106  -8.4079  -7.9946  -7.9946   3.8233   3.8234   4.2122   4.2140
     5.8283   5.8284   6.7470   6.7472   6.8523   6.8536   7.0307   7.0330

     highest occupied level (ev):     7.6926

!    total energy              =    -608.39213540 Ry
     Harris-Foulkes estimate   =    -608.39213540 Ry
     estimated scf accuracy    <          1.0E-09 Ry

     The total energy is the sum of the following terms:

     one-electron contribution =    -303.62656341 Ry
     hartree contribution      =     168.10402055 Ry
     xc contribution           =     -97.84793976 Ry
     ewald contribution        =    -375.02165279 Ry

     convergence has been achieved in   5 iterations

     Forces acting on atoms (cartesian axes, Ry/au):

     atom    1 type  1   force =    -0.00039860   -0.00021599   -0.00000136
     atom    2 type  1   force =    -0.00059418    0.00006448    0.00000319
     atom    3 type  1   force =     0.00054648   -0.00002236    0.00000319
     atom    4 type  1   force =     0.00056047    0.00004328   -0.00000327
     atom    5 type  2   force =     0.00013812   -0.00040439    0.00000075
     atom    6 type  2   force =    -0.00019017    0.00045531    0.00000072
     atom    7 type  2   force =    -0.00018373   -0.00041614   -0.00000149
     atom    8 type  2   force =     0.00012160    0.00049581   -0.00000173

     Total force =     0.001439     Total SCF correction =     0.000319
     SCF correction compared to forces is large: reduce conv_thr to get better values


     Computing stress (Cartesian axis) and pressure

          total   stress  (Ry/bohr**3)                   (kbar)     P=  -67.46
  -0.00057046   0.00000001  -0.00000000        -83.92      0.00     -0.00
   0.00000001  -0.00033972   0.00000000          0.00    -49.97      0.00
  -0.00000000   0.00000000  -0.00046554         -0.00      0.00    -68.48


     number of scf cycles    =   4
     number of bfgs steps    =   3

     energy   old            =    -608.3920224044 Ry
     energy   new            =    -608.3921354008 Ry

     CASE: energy  _new < energy  _old

     new trust radius        =       0.0007337703 bohr
     new conv_thr            =       0.0000000006 Ry


ATOMIC_POSITIONS (alat)
Mg      -0.002206652   0.002413977  -0.000023113
Mg      -0.002298852   0.497521449   0.500023224
Mg       0.502254591   0.002519308   0.500023248
Mg       0.502204771   0.497562683  -0.000024005
O        0.502428086   0.002590471  -0.000024899
O       -0.002409211   0.497403688  -0.000024900
O       -0.002405158   0.002583166   0.500025210
O        0.502432425   0.497405257   0.500025235



     Writing output data file diamond.1.01.70.4.save
     NEW-OLD atomic charge density approx. for the potential

     Check: negative/imaginary core charge=   -0.000008    0.000000

     total cpu time spent up to now is       43.7 secs

     per-process dynamical memory:    56.4 Mb

     Self-consistent Calculation

     iteration #  1     ecut=    70.00 Ry     beta=0.70
     Davidson diagonalization with overlap
     ethr =  1.00E-06,  avg # of iterations =  2.0

     Threshold (ethr) on eigenvalues was too large:
     Diagonalizing with lowered threshold

     Davidson diagonalization with overlap
     ethr =  3.49E-10,  avg # of iterations =  2.7

     total cpu time spent up to now is       47.1 secs

     total energy              =    -608.39213712 Ry
     Harris-Foulkes estimate   =    -608.39213730 Ry
[...]
Mg      -0.002312907   0.002334474  -0.000023309
Mg      -0.002494993   0.497541823   0.500024207
Mg       0.502429901   0.002517634   0.500024231
Mg       0.502387261   0.497574605  -0.000025023
O        0.502473578   0.002472999  -0.000024725
O       -0.002477273   0.497534423  -0.000024727
O       -0.002470675   0.002462326   0.500024750
O        0.502465108   0.497561716   0.500024596



     Writing output data file diamond.1.01.70.4.save
     NEW-OLD atomic charge density approx. for the potential

     Check: negative/imaginary core charge=   -0.000008    0.000000

     total cpu time spent up to now is       61.4 secs

     per-process dynamical memory:    56.4 Mb

     Self-consistent Calculation

     iteration #  1     ecut=    70.00 Ry     beta=0.70
     Davidson diagonalization with overlap
     ethr =  1.00E-06,  avg # of iterations =  2.0

     Threshold (ethr) on eigenvalues was too large:
     Diagonalizing with lowered threshold

     Davidson diagonalization with overlap
     ethr =  4.47E-10,  avg # of iterations =  2.8

     total cpu time spent up to now is       64.8 secs

     total energy              =    -608.39213886 Ry
     Harris-Foulkes estimate   =    -608.39213910 Ry
     estimated scf accuracy    <       0.00000033 Ry

     iteration #  2     ecut=    70.00 Ry     beta=0.70
     Davidson diagonalization with overlap
     ethr =  5.19E-10,  avg # of iterations =  2.1

     total cpu time spent up to now is       66.2 secs

     total energy              =    -608.39213896 Ry
     Harris-Foulkes estimate   =    -608.39213899 Ry
     estimated scf accuracy    <       0.00000006 Ry

     iteration #  3     ecut=    70.00 Ry     beta=0.70
     Davidson diagonalization with overlap
     ethr =  8.81E-11,  avg # of iterations =  2.0

     total cpu time spent up to now is       67.7 secs

     total energy              =    -608.39213897 Ry
     Harris-Foulkes estimate   =    -608.39213897 Ry
     estimated scf accuracy    <          4.9E-10 Ry

     iteration #  4     ecut=    70.00 Ry     beta=0.70
     Davidson diagonalization with overlap
     ethr =  7.61E-13,  avg # of iterations =  2.2

     total cpu time spent up to now is       69.3 secs

     End of self-consistent calculation

          k = 0.0000 0.0000 0.0000 (  5129 PWs)   bands (ev):

   -64.8334 -64.8241 -64.8237 -64.8231 -31.6347 -31.6288 -31.6226 -31.5980
   -31.5960 -31.5935 -31.5899 -31.5859 -31.5842 -31.5723 -31.5641 -31.5575
    -9.3656  -7.9412  -7.9148  -7.8890   3.7258   3.7578   3.7930   6.3086
     6.3199   6.3704   6.3896   6.4427   6.4506   7.6476   7.6725   7.6925

          k = 0.0000 0.0000 0.2500 (  5153 PWs)   bands (ev):

   -64.8319 -64.8251 -64.8239 -64.8232 -31.6289 -31.6192 -31.6172 -31.6038
   -31.5945 -31.5927 -31.5906 -31.5902 -31.5824 -31.5770 -31.5765 -31.5645
    -9.1572  -8.1296  -7.9053  -7.8682   4.0181   4.0799   4.0945   5.8418
     5.8732   6.1216   6.2190   6.4861   6.6009   6.6591   7.4184   7.4795

          k = 0.0000 0.0000-0.5000 (  5138 PWs)   bands (ev):

   -64.8287 -64.8283 -64.8238 -64.8234 -31.6160 -31.6157 -31.6020 -31.6018
   -31.6005 -31.6005 -31.5905 -31.5905 -31.5857 -31.5855 -31.5742 -31.5739
    -8.6470  -8.6469  -7.8581  -7.8580   4.8222   4.8222   4.8731   4.8731
     5.1226   5.1229   5.9730   5.9733   6.9217   6.9217   7.0129   7.0129

          k = 0.0000 0.2525 0.0000 (  5161 PWs)   bands (ev):

   -64.8319 -64.8248 -64.8240 -64.8235 -31.6293 -31.6226 -31.6141 -31.6019
   -31.5954 -31.5952 -31.5900 -31.5871 -31.5861 -31.5768 -31.5707 -31.5706
    -9.1513  -8.1048  -7.9058  -7.8870   4.0243   4.0544   4.1119   5.8976
     5.9121   6.1075   6.1552   6.4790   6.5360   6.6373   7.4367   7.4656

          k = 0.0000 0.2525 0.2500 (  5143 PWs)   bands (ev):

   -64.8307 -64.8250 -64.8246 -64.8239 -31.6236 -31.6195 -31.6148 -31.6031
   -31.6003 -31.5986 -31.5887 -31.5849 -31.5810 -31.5805 -31.5804 -31.5635
    -8.9619  -8.0643  -8.0460  -7.9041   4.1542   4.1633   4.3066   5.0713
     5.8175   6.0445   6.0927   6.4388   6.4551   6.6162   7.1944   7.5009

          k = 0.0000 0.2525-0.5000 (  5142 PWs)   bands (ev):

   -64.8280 -64.8276 -64.8245 -64.8240 -31.6132 -31.6130 -31.6115 -31.6113
   -31.6081 -31.6080 -31.5898 -31.5895 -31.5797 -31.5796 -31.5690 -31.5688
    -8.5074  -8.5073  -7.9446  -7.9445   4.4040   4.4041   4.7270   4.7272
     5.0791   5.0791   6.5696   6.5698   6.6065   6.6065   7.0760   7.0761

          k = 0.0000-0.5051 0.0000 (  5142 PWs)   bands (ev):

   -64.8285 -64.8281 -64.8240 -64.8235 -31.6150 -31.6148 -31.6081 -31.6080
   -31.5945 -31.5944 -31.5867 -31.5866 -31.5856 -31.5855 -31.5803 -31.5801
    -8.6298  -8.6287  -7.8645  -7.8644   4.8485   4.8501   4.8724   4.8741
     5.1125   5.1131   5.9218   5.9220   6.9263   6.9273   6.9706   6.9716

          k = 0.0000-0.5051 0.2500 (  5144 PWs)   bands (ev):

   -64.8278 -64.8275 -64.8246 -64.8242 -31.6150 -31.6148 -31.6110 -31.6108
   -31.6060 -31.6059 -31.5912 -31.5910 -31.5771 -31.5771 -31.5716 -31.5715
    -8.4962  -8.4953  -7.9506  -7.9504   4.4025   4.4031   4.7191   4.7198
     5.0982   5.0998   6.5400   6.5406   6.5785   6.5796   7.0868   7.0872

          k = 0.0000-0.5051-0.5000 (  5152 PWs)   bands (ev):

   -64.8262 -64.8262 -64.8262 -64.8254 -31.6165 -31.6163 -31.6162 -31.6162
   -31.6015 -31.6013 -31.6012 -31.6010 -31.5697 -31.5695 -31.5694 -31.5693
    -8.1997  -8.1996  -8.1991  -8.1991   4.2550   4.2551   4.2552   4.2554
     5.7703   5.7704   5.7718   5.7718   7.0773   7.0775   7.0777   7.0779

          k = 0.2475 0.0000 0.0000 (  5154 PWs)   bands (ev):

   -64.8320 -64.8254 -64.8237 -64.8232 -31.6262 -31.6232 -31.6171 -31.5989
   -31.5986 -31.5973 -31.5920 -31.5866 -31.5841 -31.5810 -31.5698 -31.5631
    -9.1628  -8.1546  -7.8854  -7.8671   4.0409   4.0735   4.0772   5.8027
     5.8194   6.1846   6.2341   6.5477   6.6054   6.6773   7.4323   7.4641

          k = 0.2475 0.0000 0.2500 (  5153 PWs)   bands (ev):

   -64.8307 -64.8251 -64.8247 -64.8235 -31.6254 -31.6201 -31.6118 -31.6094
   -31.5943 -31.5914 -31.5899 -31.5878 -31.5856 -31.5853 -31.5708 -31.5675
    -8.9720  -8.0841  -8.0654  -7.8790   4.1584   4.1668   4.3517   5.0702
     5.8760   6.0186   6.0654   6.5141   6.5302   6.5502   7.1504   7.5081

          k = 0.2475 0.0000-0.5000 (  5160 PWs)   bands (ev):

   -64.8280 -64.8276 -64.8245 -64.8240 -31.6205 -31.6203 -31.6103 -31.6102
   -31.5983 -31.5980 -31.5851 -31.5851 -31.5797 -31.5795 -31.5783 -31.5780
    -8.5138  -8.5137  -7.9520  -7.9519   4.4318   4.4319   4.7743   4.7745
     5.1146   5.1146   6.5246   6.5249   6.5443   6.5443   7.1108   7.1109

          k = 0.2475 0.2525 0.0000 (  5152 PWs)   bands (ev):

   -64.8307 -64.8252 -64.8246 -64.8237 -31.6255 -31.6178 -31.6157 -31.6072
   -31.5945 -31.5924 -31.5914 -31.5905 -31.5846 -31.5806 -31.5741 -31.5655
    -8.9668  -8.0833  -8.0464  -7.8911   4.1526   4.1701   4.3277   5.0705
     5.8462   6.0075   6.1024   6.4670   6.4997   6.5848   7.1733   7.5038

          k = 0.2475 0.2525 0.2500 (  5149 PWs)   bands (ev):

   -64.8297 -64.8251 -64.8249 -64.8243 -31.6272 -31.6241 -31.6220 -31.6052
   -31.5943 -31.5929 -31.5919 -31.5863 -31.5806 -31.5779 -31.5748 -31.5650
    -8.7970  -8.0449  -8.0316  -8.0186   3.9965   3.9997   4.0042   5.0885
     5.8296   5.8447   5.8601   6.6761   6.7060   6.7334   7.3510   7.3577

          k = 0.2475 0.2525-0.5000 (  5140 PWs)   bands (ev):

   -64.8275 -64.8271 -64.8250 -64.8245 -31.6273 -31.6271 -31.6206 -31.6205
   -31.5930 -31.5928 -31.5816 -31.5814 -31.5780 -31.5779 -31.5714 -31.5711
    -8.4000  -8.3999  -7.9983  -7.9982   3.8215   3.8216   4.1972   4.1974
     5.8287   5.8287   6.7402   6.7404   6.8677   6.8678   7.0157   7.0157

          k = 0.2475-0.5051 0.0000 (  5150 PWs)   bands (ev):

   -64.8278 -64.8275 -64.8246 -64.8242 -31.6193 -31.6192 -31.6078 -31.6078
   -31.6048 -31.6046 -31.5849 -31.5847 -31.5791 -31.5791 -31.5758 -31.5757
    -8.4992  -8.4983  -7.9541  -7.9539   4.4171   4.4178   4.7429   4.7436
     5.1144   5.1160   6.5172   6.5178   6.5481   6.5492   7.1033   7.1037

          k = 0.2475-0.5051 0.2500 (  5136 PWs)   bands (ev):

   -64.8273 -64.8270 -64.8251 -64.8246 -31.6281 -31.6280 -31.6196 -31.6195
   -31.5952 -31.5951 -31.5813 -31.5811 -31.5754 -31.5753 -31.5720 -31.5719
    -8.3908  -8.3900  -8.0013  -8.0012   3.8187   3.8187   4.1814   4.1821
     5.8305   5.8306   6.7312   6.7314   6.8818   6.8822   6.9984   6.9991

          k = 0.2475-0.5051-0.5000 (  5132 PWs)   bands (ev):

   -64.8262 -64.8262 -64.8262 -64.8254 -31.6304 -31.6302 -31.6301 -31.6301
   -31.5867 -31.5865 -31.5864 -31.5863 -31.5695 -31.5693 -31.5693 -31.5692
    -8.1653  -8.1652  -8.1649  -8.1649   3.6272   3.6273   3.6275   3.6276
     6.5112   6.5112   6.5120   6.5121   7.0780   7.0781   7.0783   7.0785

          k =-0.4950 0.0000 0.0000 (  5166 PWs)   bands (ev):

   -64.8288 -64.8285 -64.8236 -64.8232 -31.6110 -31.6108 -31.6067 -31.6066
   -31.6034 -31.6032 -31.5986 -31.5986 -31.5786 -31.5784 -31.5733 -31.5731
    -8.6647  -8.6638  -7.8505  -7.8504   4.8189   4.8205   4.8460   4.8475
     5.1299   5.1303   6.0222   6.0224   6.9619   6.9627   7.0088   7.0096

          k =-0.4950 0.0000 0.2500 (  5160 PWs)   bands (ev):

   -64.8281 -64.8277 -64.8244 -64.8239 -31.6180 -31.6178 -31.6125 -31.6124
   -31.5994 -31.5992 -31.5884 -31.5884 -31.5776 -31.5774 -31.5761 -31.5760
    -8.5256  -8.5248  -7.9454  -7.9452   4.4315   4.4323   4.7811   4.7815
     5.0941   5.0956   6.5539   6.5544   6.5700   6.5710   7.0997   7.1000

          k =-0.4950 0.0000-0.5000 (  5196 PWs)   bands (ev):

   -64.8263 -64.8262 -64.8262 -64.8254 -31.6204 -31.6202 -31.6202 -31.6201
   -31.5890 -31.5888 -31.5888 -31.5885 -31.5794 -31.5792 -31.5791 -31.5791
    -8.2135  -8.2135  -8.2130  -8.2129   4.3304   4.3305   4.3305   4.3307
     5.7636   5.7636   5.7649   5.7650   7.0469   7.0471   7.0473   7.0474

          k =-0.4950 0.2525 0.0000 (  5152 PWs)   bands (ev):

   -64.8281 -64.8277 -64.8244 -64.8239 -31.6158 -31.6157 -31.6119 -31.6118
   -31.6066 -31.6064 -31.5847 -31.5846 -31.5828 -31.5826 -31.5701 -31.5699
    -8.5222  -8.5214  -7.9415  -7.9413   4.4183   4.4190   4.7575   4.7579
     5.0747   5.0762   6.5758   6.5763   6.6017   6.6027   7.0813   7.0816

          k =-0.4950 0.2525 0.2500 (  5142 PWs)   bands (ev):

   -64.8275 -64.8272 -64.8249 -64.8245 -31.6269 -31.6268 -31.6213 -31.6212
   -31.5897 -31.5895 -31.5833 -31.5832 -31.5794 -31.5793 -31.5715 -31.5713
    -8.4096  -8.4089  -7.9947  -7.9946   3.8233   3.8234   4.2129   4.2133
     5.8283   5.8284   6.7470   6.7471   6.8527   6.8531   7.0316   7.0321

          k =-0.4950 0.2525-0.5000 (  5152 PWs)   bands (ev):

   -64.8262 -64.8262 -64.8262 -64.8254 -31.6317 -31.6315 -31.6315 -31.6314
   -31.5801 -31.5799 -31.5798 -31.5797 -31.5756 -31.5754 -31.5753 -31.5753
    -8.1724  -8.1723  -8.1720  -8.1719   3.6524   3.6525   3.6527   3.6527
     6.5352   6.5354   6.5360   6.5361   7.0483   7.0485   7.0486   7.0488

          k =-0.4950-0.5051 0.0000 (  5192 PWs)   bands (ev):

   -64.8262 -64.8262 -64.8262 -64.8254 -31.6188 -31.6186 -31.6185 -31.6184
   -31.5962 -31.5961 -31.5961 -31.5958 -31.5742 -31.5741 -31.5739 -31.5738
    -8.2064  -8.2059  -8.2058  -8.2053   4.2927   4.2928   4.2929   4.2930
     5.7652   5.7664   5.7667   5.7679   7.0612   7.0616   7.0617   7.0620

          k =-0.4950-0.5051 0.2500 (  5132 PWs)   bands (ev):

   -64.8262 -64.8262 -64.8262 -64.8254 -31.6311 -31.6309 -31.6308 -31.6307
   -31.5839 -31.5837 -31.5836 -31.5836 -31.5716 -31.5714 -31.5713 -31.5712
    -8.1688  -8.1685  -8.1684  -8.1680   3.6396   3.6398   3.6400   3.6402
     6.5226   6.5233   6.5236   6.5242   7.0628   7.0631   7.0631   7.0634

          k =-0.4950-0.5051-0.5000 (  5136 PWs)   bands (ev):

   -64.8262 -64.8262 -64.8262 -64.8254 -31.6392 -31.6390 -31.6389 -31.6389
   -31.5790 -31.5788 -31.5788 -31.5787 -31.5685 -31.5683 -31.5683 -31.5682
    -8.1305  -8.1304  -8.1303  -8.1303   3.2170   3.2171   3.2171   3.2172
     7.0470   7.0471   7.0471   7.0473   7.0809   7.0811   7.0811   7.0812

          k = 0.0000-0.2525 0.2500 (  5143 PWs)   bands (ev):

   -64.8307 -64.8250 -64.8246 -64.8239 -31.6236 -31.6195 -31.6148 -31.6031
   -31.6003 -31.5986 -31.5887 -31.5849 -31.5810 -31.5805 -31.5804 -31.5635
    -8.9619  -8.0643  -8.0460  -7.9041   4.1542   4.1633   4.3066   5.0713
     5.8175   6.0445   6.0927   6.4388   6.4551   6.6162   7.1944   7.5009

          k =-0.2475 0.0000 0.2500 (  5153 PWs)   bands (ev):

   -64.8307 -64.8251 -64.8247 -64.8235 -31.6254 -31.6201 -31.6118 -31.6094
   -31.5943 -31.5914 -31.5899 -31.5878 -31.5856 -31.5853 -31.5708 -31.5675
    -8.9720  -8.0841  -8.0654  -7.8790   4.1584   4.1668   4.3517   5.0702
     5.8760   6.0186   6.0654   6.5141   6.5302   6.5502   7.1504   7.5081

          k =-0.2475 0.2525 0.0000 (  5152 PWs)   bands (ev):

   -64.8307 -64.8252 -64.8246 -64.8237 -31.6255 -31.6178 -31.6157 -31.6072
   -31.5945 -31.5923 -31.5914 -31.5905 -31.5846 -31.5806 -31.5741 -31.5655
    -8.9668  -8.0833  -8.0464  -7.8911   4.1526   4.1701   4.3277   5.0705
     5.8462   6.0075   6.1024   6.4670   6.4997   6.5848   7.1733   7.5038

          k =-0.2475-0.2525 0.2500 (  5149 PWs)   bands (ev):

   -64.8297 -64.8251 -64.8249 -64.8243 -31.6272 -31.6241 -31.6220 -31.6052
   -31.5943 -31.5929 -31.5919 -31.5863 -31.5806 -31.5779 -31.5748 -31.5650
    -8.7970  -8.0449  -8.0316  -8.0186   3.9965   3.9997   4.0042   5.0885
     5.8296   5.8447   5.8601   6.6761   6.7060   6.7334   7.3510   7.3577

          k =-0.2475 0.2525-0.2500 (  5149 PWs)   bands (ev):

   -64.8297 -64.8251 -64.8249 -64.8243 -31.6272 -31.6241 -31.6220 -31.6052
   -31.5943 -31.5929 -31.5918 -31.5863 -31.5806 -31.5779 -31.5748 -31.5650
    -8.7970  -8.0449  -8.0316  -8.0186   3.9965   3.9997   4.0042   5.0885
     5.8296   5.8447   5.8601   6.6761   6.7060   6.7334   7.3510   7.3577

          k = 0.2475-0.2525-0.2500 (  5149 PWs)   bands (ev):

   -64.8297 -64.8251 -64.8249 -64.8243 -31.6272 -31.6241 -31.6220 -31.6052
   -31.5943 -31.5929 -31.5918 -31.5863 -31.5806 -31.5779 -31.5748 -31.5650
    -8.7970  -8.0449  -8.0316  -8.0186   3.9965   3.9997   4.0042   5.0885
     5.8296   5.8447   5.8601   6.6761   6.7060   6.7334   7.3510   7.3577

          k =-0.2475 0.2525 0.5000 (  5140 PWs)   bands (ev):

   -64.8275 -64.8271 -64.8250 -64.8245 -31.6273 -31.6272 -31.6206 -31.6205
   -31.5930 -31.5927 -31.5816 -31.5814 -31.5780 -31.5780 -31.5714 -31.5712
    -8.4000  -8.3999  -7.9983  -7.9982   3.8215   3.8216   4.1972   4.1974
     5.8287   5.8287   6.7402   6.7404   6.8677   6.8678   7.0157   7.0157

          k =-0.2475 0.5051 0.2500 (  5136 PWs)   bands (ev):

   -64.8273 -64.8270 -64.8251 -64.8246 -31.6281 -31.6280 -31.6196 -31.6195
   -31.5952 -31.5951 -31.5813 -31.5811 -31.5754 -31.5753 -31.5720 -31.5719
    -8.3908  -8.3900  -8.0013  -8.0012   3.8187   3.8187   4.1814   4.1821
     5.8305   5.8306   6.7312   6.7314   6.8818   6.8822   6.9984   6.9991

          k = 0.4950-0.2525 0.2500 (  5142 PWs)   bands (ev):

   -64.8275 -64.8272 -64.8249 -64.8245 -31.6269 -31.6268 -31.6213 -31.6212
   -31.5897 -31.5895 -31.5833 -31.5832 -31.5794 -31.5793 -31.5715 -31.5713
    -8.4096  -8.4089  -7.9947  -7.9946   3.8233   3.8234   4.2129   4.2133
     5.8283   5.8284   6.7470   6.7471   6.8527   6.8531   7.0316   7.0321

     highest occupied level (ev):     7.6925

!    total energy              =    -608.39213897 Ry
     Harris-Foulkes estimate   =    -608.39213897 Ry
     estimated scf accuracy    <          8.5E-11 Ry

     The total energy is the sum of the following terms:

     one-electron contribution =    -303.62592758 Ry
     hartree contribution      =     168.10376558 Ry
     xc contribution           =     -97.84796376 Ry
     ewald contribution        =    -375.02201321 Ry

     convergence has been achieved in   4 iterations

     Forces acting on atoms (cartesian axes, Ry/au):

     atom    1 type  1   force =     0.00006117   -0.00004940    0.00000075
     atom    2 type  1   force =    -0.00001642    0.00002417   -0.00000021
     atom    3 type  1   force =     0.00000045   -0.00000770   -0.00000022
     atom    4 type  1   force =     0.00000892    0.00001969    0.00000017
     atom    5 type  2   force =    -0.00000896    0.00003882   -0.00000010
     atom    6 type  2   force =    -0.00000490   -0.00005376   -0.00000009
     atom    7 type  2   force =    -0.00000494    0.00004018    0.00000002
     atom    8 type  2   force =    -0.00003531   -0.00001201   -0.00000032

     Total force =     0.000123     Total SCF correction =     0.000052
     SCF correction compared to forces is large: reduce conv_thr to get better values


     Computing stress (Cartesian axis) and pressure

          total   stress  (Ry/bohr**3)                   (kbar)     P=  -67.44
  -0.00057038   0.00000001  -0.00000000        -83.91      0.00     -0.00
   0.00000001  -0.00033957   0.00000000          0.00    -49.95      0.00
  -0.00000000   0.00000000  -0.00046540         -0.00      0.00    -68.46


     bfgs converged in   7 scf cycles and   6 bfgs steps
     (criteria: energy <  1.0E-05 Ry, force <  1.0E-04 Ry/Bohr)

     End of BFGS Geometry Optimization

     Final energy   =    -608.3921389724 Ry
Begin final coordinates

ATOMIC_POSITIONS (alat)
Mg      -0.002312907   0.002334474  -0.000023309
Mg      -0.002494993   0.497541823   0.500024207
Mg       0.502429901   0.002517634   0.500024231
Mg       0.502387261   0.497574605  -0.000025023
O        0.502473578   0.002472999  -0.000024725
O       -0.002477273   0.497534423  -0.000024727
O       -0.002470675   0.002462326   0.500024750
O        0.502465108   0.497561716   0.500024596
End final coordinates



     Writing output data file diamond.1.01.70.4.save
 
     init_run     :      0.62s CPU      0.64s WALL (       1 calls)
     electrons    :     62.55s CPU     63.57s WALL (       7 calls)
     update_pot   :      0.73s CPU      0.74s WALL (       6 calls)
     forces       :      1.28s CPU      1.28s WALL (       7 calls)
     stress       :      3.10s CPU      3.10s WALL (       7 calls)

     Called by init_run:
     wfcinit      :      0.51s CPU      0.53s WALL (       1 calls)
     potinit      :      0.05s CPU      0.05s WALL (       1 calls)

     Called by electrons:
     c_bands      :     54.88s CPU     55.71s WALL (      39 calls)
     sum_band     :      7.41s CPU      7.57s WALL (      39 calls)
     v_of_rho     :      0.22s CPU      0.23s WALL (      43 calls)
     mix_rho      :      0.03s CPU      0.03s WALL (      39 calls)

     Called by c_bands:
     init_us_2    :      0.82s CPU      0.83s WALL (    3348 calls)
     cegterg      :     51.18s CPU     51.96s WALL (    1404 calls)

     Called by sum_band:

     Called by *egterg:
     h_psi        :     37.70s CPU     38.46s WALL (    4665 calls)
     g_psi        :      0.29s CPU      0.29s WALL (    3225 calls)
     cdiaghg      :      7.08s CPU      7.09s WALL (    4305 calls)

     Called by h_psi:
     h_psi:pot    :     37.53s CPU     38.27s WALL (    4665 calls)
     h_psi:calbec :      2.07s CPU      2.08s WALL (    4665 calls)
     vloc_psi     :     33.72s CPU     34.42s WALL (    4665 calls)
     add_vuspsi   :      1.73s CPU      1.75s WALL (    4665 calls)

     General routines
     calbec       :      2.78s CPU      2.78s WALL (    5925 calls)
     fft          :      0.29s CPU      0.29s WALL (     653 calls)
     fftw         :     37.00s CPU     37.44s WALL (  288854 calls)
     davcio       :      0.00s CPU      0.01s WALL (      36 calls)
 
     Parallel routines
     fft_scatter  :     10.24s CPU      9.87s WALL (  289507 calls)
 
     PWSCF        :  1m 8.84s CPU     1m10.09s WALL

 
   This run was terminated on:  16:25:29  22Apr2018            

=------------------------------------------------------------------------------=
   JOB DONE.
=------------------------------------------------------------------------------=
