
     Program PWSCF v.6.1 (svn rev. 13369) starts on 22Apr2018 at 16:12:35 

     This program is part of the open-source Quantum ESPRESSO suite
     for quantum simulation of materials; please cite
         "P. Giannozzi et al., J. Phys.:Condens. Matter 21 395502 (2009);
          URL http://www.quantum-espresso.org", 
     in publications or presentations arising from this work. More details at
     http://www.quantum-espresso.org/quote

     Parallel version (MPI), running on     8 processors
     R & G space division:  proc/nbgrp/npool/nimage =       8
     Waiting for input...
     Reading input from standard input
Warning: card       &CELL ignored
Warning: card       CELL_DYNAMICS = 'BFGS' ignored
Warning: card       PRESS = 0.0D0 ignored
Warning: card       PRESS_CONV_THR = 0.01D0 ignored
Warning: card       / ignored

     Current dimensions of program PWSCF are:
     Max number of different atomic species (ntypx) = 10
     Max number of k-points (npk) =  40000
     Max angular momentum in pseudopotentials (lmaxx) =  3

     Subspace diagonalization in iterative solution of the eigenvalue problem:
     a serial algorithm will be used

 
     Parallelization info
     --------------------
     sticks:   dense  smooth     PW     G-vecs:    dense   smooth      PW
     Min         180     180     52                 5151     5151     818
     Max         182     182     53                 5153     5153     821
     Sum        1449    1449    421                41215    41215    6555
 


     bravais-lattice index     =            0
     lattice parameter (alat)  =       8.0448  a.u.
     unit-cell volume          =     520.6402 (a.u.)^3
     number of atoms/cell      =            8
     number of atomic types    =            2
     number of electrons       =        64.00
     number of Kohn-Sham states=           32
     kinetic-energy cutoff     =      70.0000  Ry
     charge density cutoff     =     280.0000  Ry
     convergence threshold     =      1.0E-08
     mixing beta               =       0.7000
     number of iterations used =            8  plain     mixing
     Exchange-correlation      = PBE ( 1  4  3  4 0 0)
     nstep                     =           50


     celldm(1)=   8.044750  celldm(2)=   0.000000  celldm(3)=   0.000000
     celldm(4)=   0.000000  celldm(5)=   0.000000  celldm(6)=   0.000000

     crystal axes: (cart. coord. in units of alat)
               a(1) = (   1.002143   0.000000   0.000000 )  
               a(2) = (   0.000000   0.997857   0.000000 )  
               a(3) = (   0.000000   0.000000   1.000005 )  

     reciprocal axes: (cart. coord. in units 2 pi/alat)
               b(1) = (  0.997862  0.000000  0.000000 )  
               b(2) = (  0.000000  1.002148  0.000000 )  
               b(3) = (  0.000000  0.000000  0.999995 )  


     PseudoPot. # 1 for Mg read from file:
     ../pseudo/Mg.pbe.UPF
     MD5 check sum: 4c04d8c6e0476e83eaecaf72fa8acc4d
     Pseudo is Norm-conserving, Zval = 10.0
     Generated using ONCVPSP code by D. R. Hamann
     Using radial grid of 1510 points,  4 beta functions with: 
                l(1) =   0
                l(2) =   0
                l(3) =   1
                l(4) =   1

     PseudoPot. # 2 for O  read from file:
     ../pseudo/O.pbe.UPF
     MD5 check sum: 3e3f909f7470e8921608ab6b1f57bbae
     Pseudo is Norm-conserving + core correction, Zval =  6.0
     Generated using ONCVPSP code by D. R. Hamann
     Using radial grid of  936 points,  5 beta functions with: 
                l(1) =   0
                l(2) =   0
                l(3) =   1
                l(4) =   1
                l(5) =   2

     atomic species   valence    mass     pseudopotential
        Mg            10.00    24.30500     Mg( 1.00)
        O              6.00    15.99940     O ( 1.00)

      2 Sym. Ops. (no inversion) found



   Cartesian axes

     site n.     atom                  positions (alat units)
         1           Mg  tau(   1) = (   0.0000000   0.0000000   0.0000000  )
         2           Mg  tau(   2) = (   0.0000000   0.5000000   0.5000000  )
         3           Mg  tau(   3) = (   0.5000000   0.0000000   0.5000000  )
         4           Mg  tau(   4) = (   0.5000000   0.5000000   0.0000000  )
         5           O   tau(   5) = (   0.5000000   0.0000000   0.0000000  )
         6           O   tau(   6) = (   0.0000000   0.5000000   0.0000000  )
         7           O   tau(   7) = (   0.0000000   0.0000000   0.5000000  )
         8           O   tau(   8) = (   0.5000000   0.5000000   0.5000000  )

     number of k points=    30
                       cart. coord. in units 2pi/alat
        k(    1) = (   0.0000000   0.0000000   0.0000000), wk =   0.0312500
        k(    2) = (   0.0000000   0.0000000   0.2499989), wk =   0.0625000
        k(    3) = (   0.0000000   0.0000000  -0.4999977), wk =   0.0312500
        k(    4) = (   0.0000000   0.2505369   0.0000000), wk =   0.0625000
        k(    5) = (   0.0000000   0.2505369   0.2499989), wk =   0.1250000
        k(    6) = (   0.0000000   0.2505369  -0.4999977), wk =   0.0625000
        k(    7) = (   0.0000000  -0.5010738   0.0000000), wk =   0.0312500
        k(    8) = (   0.0000000  -0.5010738   0.2499989), wk =   0.0625000
        k(    9) = (   0.0000000  -0.5010738  -0.4999977), wk =   0.0312500
        k(   10) = (   0.2494654   0.0000000   0.0000000), wk =   0.0625000
        k(   11) = (   0.2494654   0.0000000   0.2499989), wk =   0.1250000
        k(   12) = (   0.2494654   0.0000000  -0.4999977), wk =   0.0625000
        k(   13) = (   0.2494654   0.2505369   0.0000000), wk =   0.0625000
        k(   14) = (   0.2494654   0.2505369   0.2499989), wk =   0.1250000
        k(   15) = (   0.2494654   0.2505369  -0.4999977), wk =   0.0625000
        k(   16) = (   0.2494654  -0.5010738   0.0000000), wk =   0.0625000
        k(   17) = (   0.2494654  -0.5010738   0.2499989), wk =   0.1250000
        k(   18) = (   0.2494654  -0.5010738  -0.4999977), wk =   0.0625000
        k(   19) = (  -0.4989308   0.0000000   0.0000000), wk =   0.0312500
        k(   20) = (  -0.4989308   0.0000000   0.2499989), wk =   0.0625000
        k(   21) = (  -0.4989308   0.0000000  -0.4999977), wk =   0.0312500
        k(   22) = (  -0.4989308   0.2505369   0.0000000), wk =   0.0625000
        k(   23) = (  -0.4989308   0.2505369   0.2499989), wk =   0.1250000
        k(   24) = (  -0.4989308   0.2505369  -0.4999977), wk =   0.0625000
        k(   25) = (  -0.4989308  -0.5010738   0.0000000), wk =   0.0312500
        k(   26) = (  -0.4989308  -0.5010738   0.2499989), wk =   0.0625000
        k(   27) = (  -0.4989308  -0.5010738  -0.4999977), wk =   0.0312500
        k(   28) = (  -0.2494654   0.2505369   0.0000000), wk =   0.0625000
        k(   29) = (  -0.2494654   0.2505369  -0.2499989), wk =   0.1250000
        k(   30) = (  -0.2494654   0.2505369   0.4999977), wk =   0.0625000

     Dense  grid:    41215 G-vectors     FFT dimensions: (  45,  45,  45)

     Estimated max dynamical RAM per process >      15.33MB

     Estimated total allocated dynamical RAM >     122.64MB

     Check: negative/imaginary core charge=   -0.000007    0.000000

     Initial potential from superposition of free atoms

     starting charge   63.99678, renormalised to   64.00000
     Starting wfc are   36 randomized atomic wfcs

     total cpu time spent up to now is        0.7 secs

     per-process dynamical memory:    51.1 Mb

     Self-consistent Calculation

     iteration #  1     ecut=    70.00 Ry     beta=0.70
     Davidson diagonalization with overlap
     ethr =  1.00E-02,  avg # of iterations =  2.0

     total cpu time spent up to now is        1.9 secs

     total energy              =    -607.71973079 Ry
     Harris-Foulkes estimate   =    -608.84372420 Ry
     estimated scf accuracy    <       1.56177296 Ry

     iteration #  2     ecut=    70.00 Ry     beta=0.70
     Davidson diagonalization with overlap
     ethr =  2.44E-03,  avg # of iterations =  2.9

     total cpu time spent up to now is        3.3 secs

     total energy              =    -608.10566515 Ry
     Harris-Foulkes estimate   =    -608.80356098 Ry
     estimated scf accuracy    <       1.44892995 Ry

     iteration #  3     ecut=    70.00 Ry     beta=0.70
     Davidson diagonalization with overlap
     ethr =  2.26E-03,  avg # of iterations =  2.0

     total cpu time spent up to now is        4.6 secs

     total energy              =    -608.39124313 Ry
     Harris-Foulkes estimate   =    -608.39190255 Ry
     estimated scf accuracy    <       0.00675579 Ry

     iteration #  4     ecut=    70.00 Ry     beta=0.70
     Davidson diagonalization with overlap
     ethr =  1.06E-05,  avg # of iterations =  2.0

     total cpu time spent up to now is        5.8 secs

     total energy              =    -608.39272168 Ry
     Harris-Foulkes estimate   =    -608.39276617 Ry
     estimated scf accuracy    <       0.00011111 Ry

     iteration #  5     ecut=    70.00 Ry     beta=0.70
     Davidson diagonalization with overlap
     ethr =  1.74E-07,  avg # of iterations =  1.5

     total cpu time spent up to now is        6.8 secs

     total energy              =    -608.39272906 Ry
     Harris-Foulkes estimate   =    -608.39272754 Ry
     estimated scf accuracy    <       0.00001037 Ry

     iteration #  6     ecut=    70.00 Ry     beta=0.70
     Davidson diagonalization with overlap
     ethr =  1.62E-08,  avg # of iterations =  2.0

     total cpu time spent up to now is        8.2 secs

     total energy              =    -608.39273067 Ry
     Harris-Foulkes estimate   =    -608.39273107 Ry
     estimated scf accuracy    <       0.00000099 Ry

     iteration #  7     ecut=    70.00 Ry     beta=0.70
     Davidson diagonalization with overlap
     ethr =  1.55E-09,  avg # of iterations =  2.0

     total cpu time spent up to now is        9.4 secs

     total energy              =    -608.39273068 Ry
     Harris-Foulkes estimate   =    -608.39273076 Ry
     estimated scf accuracy    <       0.00000022 Ry

     iteration #  8     ecut=    70.00 Ry     beta=0.70
     Davidson diagonalization with overlap
     ethr =  3.40E-10,  avg # of iterations =  2.0

     total cpu time spent up to now is       10.6 secs

     total energy              =    -608.39273068 Ry
     Harris-Foulkes estimate   =    -608.39273070 Ry
     estimated scf accuracy    <       0.00000004 Ry

     iteration #  9     ecut=    70.00 Ry     beta=0.70
     Davidson diagonalization with overlap
     ethr =  6.53E-11,  avg # of iterations =  2.0

     total cpu time spent up to now is       12.1 secs

     End of self-consistent calculation

          k = 0.0000 0.0000 0.0000 (  5145 PWs)   bands (ev):

   -64.8343 -64.8248 -64.8248 -64.8240 -31.6318 -31.6307 -31.6296 -31.5945
   -31.5940 -31.5937 -31.5927 -31.5923 -31.5918 -31.5654 -31.5634 -31.5621
    -9.3648  -7.9195  -7.9139  -7.9083   3.7511   3.7579   3.7651   6.3647
     6.3667   6.3780   6.3818   6.3934   6.3952   7.6673   7.6724   7.6771

          k = 0.0000 0.0000 0.2500 (  5165 PWs)   bands (ev):

   -64.8328 -64.8260 -64.8248 -64.8242 -31.6252 -31.6231 -31.6204 -31.6002
   -31.5968 -31.5942 -31.5934 -31.5903 -31.5872 -31.5779 -31.5724 -31.5700
    -9.1564  -8.1287  -7.8894  -7.8814   4.0418   4.0549   4.0951   5.8541
     5.8612   6.1600   6.1809   6.5310   6.5551   6.6588   7.4435   7.4568

          k = 0.0000 0.0000-0.5000 (  5110 PWs)   bands (ev):

   -64.8296 -64.8292 -64.8248 -64.8242 -31.6104 -31.6101 -31.6080 -31.6078
   -31.6017 -31.6016 -31.5905 -31.5905 -31.5814 -31.5811 -31.5793 -31.5791
    -8.6462  -8.6460  -7.8567  -7.8566   4.8425   4.8427   4.8530   4.8532
     5.1226   5.1229   5.9732   5.9735   6.9583   6.9585   6.9781   6.9783

          k = 0.0000 0.2505 0.0000 (  5157 PWs)   bands (ev):

   -64.8328 -64.8260 -64.8248 -64.8242 -31.6251 -31.6241 -31.6192 -31.5995
   -31.5975 -31.5923 -31.5918 -31.5901 -31.5892 -31.5768 -31.5724 -31.5713
    -9.1552  -8.1234  -7.8896  -7.8856   4.0433   4.0497   4.0989   5.8660
     5.8698   6.1569   6.1674   6.5291   6.5415   6.6544   7.4473   7.4538

          k = 0.0000 0.2505 0.2500 (  5157 PWs)   bands (ev):

   -64.8316 -64.8260 -64.8256 -64.8246 -31.6207 -31.6206 -31.6191 -31.6064
   -31.5954 -31.5950 -31.5923 -31.5867 -31.5864 -31.5852 -31.5763 -31.5675
    -8.9652  -8.0639  -8.0599  -7.8931   4.1600   4.1622   4.3235   5.0713
     5.8407   6.0531   6.0635   6.4748   6.4783   6.5905   7.1780   7.5046

          k = 0.0000 0.2505-0.5000 (  5146 PWs)   bands (ev):

   -64.8289 -64.8285 -64.8255 -64.8249 -31.6164 -31.6163 -31.6097 -31.6097
   -31.6076 -31.6074 -31.5859 -31.5856 -31.5827 -31.5827 -31.5742 -31.5740
    -8.5092  -8.5090  -7.9463  -7.9462   4.4152   4.4153   4.7459   4.7461
     5.0925   5.0928   6.5521   6.5524   6.5828   6.5829   7.0901   7.0902

          k = 0.0000-0.5011 0.0000 (  5110 PWs)   bands (ev):

   -64.8296 -64.8291 -64.8248 -64.8242 -31.6103 -31.6097 -31.6091 -31.6085
   -31.6009 -31.6002 -31.5896 -31.5896 -31.5817 -31.5813 -31.5807 -31.5802
    -8.6482  -8.6365  -7.8582  -7.8581   4.8392   4.8444   4.8575   4.8626
     5.1171   5.1244   5.9624   5.9627   6.9538   6.9638   6.9650   6.9749

          k = 0.0000-0.5011 0.2500 (  5146 PWs)   bands (ev):

   -64.8289 -64.8284 -64.8255 -64.8249 -31.6170 -31.6166 -31.6094 -31.6090
   -31.6077 -31.6072 -31.5863 -31.5859 -31.5822 -31.5820 -31.5746 -31.5744
    -8.5117  -8.5014  -7.9486  -7.9466   4.4115   4.4187   4.7403   4.7485
     5.0880   5.1057   6.5428   6.5494   6.5707   6.5835   7.0909   7.0943

          k = 0.0000-0.5011-0.5000 (  5196 PWs)   bands (ev):

   -64.8272 -64.8272 -64.8272 -64.8262 -31.6186 -31.6184 -31.6182 -31.6181
   -31.5985 -31.5983 -31.5980 -31.5977 -31.5753 -31.5751 -31.5749 -31.5748
    -8.2073  -8.2072  -8.2008  -8.2007   4.2835   4.2836   4.2866   4.2868
     5.7599   5.7601   5.7757   5.7760   7.0637   7.0639   7.0690   7.0692

          k = 0.2495 0.0000 0.0000 (  5165 PWs)   bands (ev):

   -64.8329 -64.8261 -64.8247 -64.8241 -31.6237 -31.6227 -31.6227 -31.5982
   -31.5968 -31.5949 -31.5946 -31.5884 -31.5868 -31.5806 -31.5713 -31.5701
    -9.1576  -8.1341  -7.8853  -7.8813   4.0472   4.0539   4.0908   5.8463
     5.8496   6.1737   6.1842   6.5444   6.5561   6.6626   7.4463   7.4530

          k = 0.2495 0.0000 0.2500 (  5159 PWs)   bands (ev):

   -64.8316 -64.8260 -64.8256 -64.8245 -31.6218 -31.6209 -31.6182 -31.6075
   -31.5932 -31.5924 -31.5923 -31.5885 -31.5875 -31.5866 -31.5740 -31.5689
    -8.9673  -8.0681  -8.0642  -7.8877   4.1608   4.1624   4.3334   5.0711
     5.8533   6.0477   6.0576   6.4910   6.4944   6.5764   7.1684   7.5063

          k = 0.2495 0.0000-0.5000 (  5150 PWs)   bands (ev):

   -64.8289 -64.8285 -64.8255 -64.8249 -31.6178 -31.6176 -31.6098 -31.6098
   -31.6054 -31.6052 -31.5840 -31.5839 -31.5835 -31.5832 -31.5762 -31.5761
    -8.5105  -8.5103  -7.9479  -7.9478   4.4213   4.4215   4.7561   4.7563
     5.0998   5.1000   6.5425   6.5427   6.5693   6.5695   7.0978   7.0979

          k = 0.2495 0.2505 0.0000 (  5159 PWs)   bands (ev):

   -64.8316 -64.8260 -64.8256 -64.8246 -31.6219 -31.6194 -31.6193 -31.6070
   -31.5940 -31.5937 -31.5928 -31.5877 -31.5875 -31.5855 -31.5751 -31.5681
    -8.9662  -8.0680  -8.0600  -7.8904   4.1594   4.1634   4.3285   5.0712
     5.8469   6.0453   6.0655   6.4810   6.4880   6.5836   7.1733   7.5054

          k = 0.2495 0.2505 0.2500 (  5151 PWs)   bands (ev):

   -64.8306 -64.8260 -64.8260 -64.8252 -31.6251 -31.6248 -31.6245 -31.6056
   -31.5936 -31.5934 -31.5931 -31.5847 -31.5836 -31.5827 -31.5720 -31.5699
    -8.7964  -8.0337  -8.0309  -8.0280   3.9994   4.0003   4.0013   5.0891
     5.8425   5.8456   5.8488   6.6992   6.7055   6.7115   7.3546   7.3559

          k = 0.2495 0.2505-0.5000 (  5132 PWs)   bands (ev):

   -64.8284 -64.8280 -64.8260 -64.8254 -31.6276 -31.6275 -31.6207 -31.6206
   -31.5928 -31.5926 -31.5802 -31.5801 -31.5784 -31.5783 -31.5765 -31.5764
    -8.3993  -8.3992  -7.9973  -7.9973   3.8214   3.8214   4.1978   4.1980
     5.8302   5.8302   6.7400   6.7403   6.8686   6.8688   7.0160   7.0161

          k = 0.2495-0.5011 0.0000 (  5150 PWs)   bands (ev):

   -64.8289 -64.8284 -64.8255 -64.8249 -31.6176 -31.6172 -31.6094 -31.6090
   -31.6066 -31.6060 -31.5853 -31.5848 -31.5827 -31.5825 -31.5758 -31.5757
    -8.5124  -8.5021  -7.9494  -7.9474   4.4147   4.4219   4.7455   4.7536
     5.0915   5.1092   6.5383   6.5449   6.5635   6.5765   7.0947   7.0980

          k = 0.2495-0.5011 0.2500 (  5136 PWs)   bands (ev):

   -64.8284 -64.8280 -64.8260 -64.8254 -31.6280 -31.6278 -31.6207 -31.6205
   -31.5933 -31.5931 -31.5795 -31.5795 -31.5786 -31.5783 -31.5767 -31.5766
    -8.4016  -8.3929  -7.9980  -7.9980   3.8208   3.8209   4.1903   4.1987
     5.8304   5.8305   6.7383   6.7385   6.8700   6.8736   7.0084   7.0164

          k = 0.2495-0.5011-0.5000 (  5132 PWs)   bands (ev):

   -64.8272 -64.8272 -64.8272 -64.8262 -31.6312 -31.6310 -31.6310 -31.6309
   -31.5836 -31.5834 -31.5833 -31.5831 -31.5743 -31.5742 -31.5740 -31.5739
    -8.1696  -8.1695  -8.1649  -8.1648   3.6354   3.6355   3.6397   3.6398
     6.5171   6.5172   6.5263   6.5265   7.0655   7.0657   7.0692   7.0694

          k =-0.4989 0.0000 0.0000 (  5110 PWs)   bands (ev):

   -64.8297 -64.8292 -64.8247 -64.8242 -31.6096 -31.6090 -31.6085 -31.6078
   -31.6031 -31.6024 -31.5914 -31.5913 -31.5802 -31.5798 -31.5792 -31.5788
    -8.6556  -8.6440  -7.8551  -7.8551   4.8330   4.8384   4.8511   4.8565
     5.1212   5.1281   5.9842   5.9845   6.9616   6.9716   6.9727   6.9826

          k =-0.4989 0.0000 0.2500 (  5150 PWs)   bands (ev):

   -64.8290 -64.8285 -64.8255 -64.8249 -31.6175 -31.6171 -31.6105 -31.6100
   -31.6058 -31.6052 -31.5849 -31.5847 -31.5834 -31.5830 -31.5753 -31.5751
    -8.5180  -8.5078  -7.9475  -7.9455   4.4178   4.4250   4.7539   4.7617
     5.0869   5.1045   6.5456   6.5521   6.5687   6.5814   7.0938   7.0970

          k =-0.4989 0.0000-0.5000 (  5200 PWs)   bands (ev):

   -64.8272 -64.8272 -64.8272 -64.8262 -31.6194 -31.6192 -31.6189 -31.6189
   -31.5954 -31.5952 -31.5950 -31.5947 -31.5775 -31.5773 -31.5771 -31.5771
    -8.2103  -8.2101  -8.2038  -8.2037   4.2998   4.2999   4.3028   4.3029
     5.7589   5.7591   5.7746   5.7748   7.0571   7.0573   7.0625   7.0627

          k =-0.4989 0.2505 0.0000 (  5146 PWs)   bands (ev):

   -64.8290 -64.8285 -64.8255 -64.8249 -31.6167 -31.6163 -31.6104 -31.6099
   -31.6070 -31.6064 -31.5845 -31.5842 -31.5840 -31.5840 -31.5744 -31.5742
    -8.5173  -8.5071  -7.9467  -7.9447   4.4150   4.4222   4.7488   4.7567
     5.0831   5.1006   6.5509   6.5573   6.5751   6.5878   7.0899   7.0932

          k =-0.4989 0.2505 0.2500 (  5134 PWs)   bands (ev):

   -64.8284 -64.8280 -64.8260 -64.8253 -31.6276 -31.6275 -31.6209 -31.6207
   -31.5920 -31.5918 -31.5813 -31.5813 -31.5781 -31.5780 -31.5766 -31.5763
    -8.4056  -8.3969  -7.9966  -7.9966   3.8219   3.8219   4.1971   4.2054
     5.8300   5.8300   6.7417   6.7419   6.8639   6.8673   7.0155   7.0235

          k =-0.4989 0.2505-0.5000 (  5136 PWs)   bands (ev):

   -64.8272 -64.8272 -64.8272 -64.8262 -31.6314 -31.6311 -31.6311 -31.6311
   -31.5819 -31.5817 -31.5816 -31.5814 -31.5760 -31.5758 -31.5756 -31.5756
    -8.1711  -8.1710  -8.1664  -8.1663   3.6408   3.6409   3.6451   3.6452
     6.5223   6.5224   6.5313   6.5314   7.0591   7.0593   7.0630   7.0631

          k =-0.4989-0.5011 0.0000 (  5192 PWs)   bands (ev):

   -64.8273 -64.8272 -64.8271 -64.8262 -31.6189 -31.6186 -31.6184 -31.6182
   -31.5974 -31.5969 -31.5968 -31.5963 -31.5761 -31.5758 -31.5756 -31.5755
    -8.2119  -8.2055  -8.2054  -8.1990   4.2903   4.2932   4.2933   4.2964
     5.7514   5.7670   5.7673   5.7829   7.0579   7.0633   7.0633   7.0686

          k =-0.4989-0.5011 0.2500 (  5140 PWs)   bands (ev):

   -64.8272 -64.8272 -64.8272 -64.8262 -31.6314 -31.6312 -31.6311 -31.6311
   -31.5831 -31.5828 -31.5827 -31.5825 -31.5751 -31.5750 -31.5748 -31.5747
    -8.1726  -8.1680  -8.1679  -8.1633   3.6360   3.6402   3.6403   3.6446
     6.5151   6.5241   6.5244   6.5333   7.0604   7.0643   7.0643   7.0680

          k =-0.4989-0.5011-0.5000 (  5152 PWs)   bands (ev):

   -64.8272 -64.8272 -64.8272 -64.8261 -31.6398 -31.6396 -31.6396 -31.6396
   -31.5764 -31.5762 -31.5761 -31.5761 -31.5738 -31.5736 -31.5735 -31.5734
    -8.1300  -8.1299  -8.1298  -8.1298   3.2173   3.2174   3.2174   3.2174
     7.0612   7.0613   7.0614   7.0615   7.0686   7.0687   7.0688   7.0689

          k =-0.2495 0.2505 0.0000 (  5159 PWs)   bands (ev):

   -64.8316 -64.8260 -64.8256 -64.8246 -31.6219 -31.6194 -31.6193 -31.6070
   -31.5940 -31.5937 -31.5928 -31.5877 -31.5875 -31.5855 -31.5751 -31.5681
    -8.9662  -8.0680  -8.0600  -7.8904   4.1594   4.1634   4.3285   5.0712
     5.8469   6.0453   6.0655   6.4810   6.4880   6.5836   7.1733   7.5054

          k =-0.2495 0.2505-0.2500 (  5151 PWs)   bands (ev):

   -64.8306 -64.8260 -64.8260 -64.8252 -31.6251 -31.6248 -31.6245 -31.6056
   -31.5936 -31.5934 -31.5931 -31.5847 -31.5836 -31.5827 -31.5720 -31.5699
    -8.7964  -8.0337  -8.0309  -8.0280   3.9994   4.0003   4.0013   5.0891
     5.8425   5.8456   5.8488   6.6992   6.7055   6.7115   7.3546   7.3559

          k =-0.2495 0.2505 0.5000 (  5132 PWs)   bands (ev):

   -64.8284 -64.8280 -64.8260 -64.8254 -31.6276 -31.6275 -31.6207 -31.6206
   -31.5928 -31.5926 -31.5802 -31.5801 -31.5784 -31.5783 -31.5765 -31.5764
    -8.3993  -8.3992  -7.9973  -7.9973   3.8214   3.8215   4.1978   4.1979
     5.8302   5.8302   6.7400   6.7403   6.8687   6.8688   7.0160   7.0161

     highest occupied level (ev):     7.6771

!    total energy              =    -608.39273068 Ry
     Harris-Foulkes estimate   =    -608.39273068 Ry
     estimated scf accuracy    <          1.9E-09 Ry

     The total energy is the sum of the following terms:

     one-electron contribution =    -303.56871042 Ry
     hartree contribution      =     168.07361589 Ry
     xc contribution           =     -97.84655945 Ry
     ewald contribution        =    -375.05107670 Ry

     convergence has been achieved in   9 iterations

     Forces acting on atoms (cartesian axes, Ry/au):

     atom    1 type  1   force =    -0.00113952    0.00120151    0.00000000
     atom    2 type  1   force =    -0.00114051   -0.00117957    0.00000000
     atom    3 type  1   force =     0.00111846    0.00120182    0.00000000
     atom    4 type  1   force =     0.00111585   -0.00117757    0.00000000
     atom    5 type  2   force =     0.00132503    0.00136334    0.00000000
     atom    6 type  2   force =    -0.00130367   -0.00138365    0.00000000
     atom    7 type  2   force =    -0.00130556    0.00136390    0.00000000
     atom    8 type  2   force =     0.00132992   -0.00138978    0.00000000

     Total force =     0.005025     Total SCF correction =     0.000032


     Computing stress (Cartesian axis) and pressure

          total   stress  (Ry/bohr**3)                   (kbar)     P=  -68.21
  -0.00048998   0.00000000   0.00000000        -72.08      0.00      0.00
   0.00000000  -0.00043726   0.00000000          0.00    -64.32      0.00
   0.00000000   0.00000000  -0.00046389          0.00      0.00    -68.24


     BFGS Geometry Optimization

     number of scf cycles    =   1
     number of bfgs steps    =   0

     energy   new            =    -608.3927306812 Ry

     new trust radius        =       0.0019235847 bohr
     new conv_thr            =       0.0000000100 Ry


ATOMIC_POSITIONS (alat)
Mg      -0.000141648   0.000149354   0.000000000
Mg      -0.000141771   0.499853373   0.500000000
Mg       0.500139030   0.000149392   0.500000000
Mg       0.500138705   0.499853622   0.000000000
O        0.500164708   0.000169470   0.000000000
O       -0.000162053   0.499828006   0.000000000
O       -0.000162287   0.000169539   0.500000000
O        0.500165315   0.499827244   0.500000000



     Writing output data file diamond.1.002143.70.4.save
     NEW-OLD atomic charge density approx. for the potential

     Check: negative/imaginary core charge=   -0.000007    0.000000

     total cpu time spent up to now is       12.8 secs

     per-process dynamical memory:    51.7 Mb

     Self-consistent Calculation

     iteration #  1     ecut=    70.00 Ry     beta=0.70
     Davidson diagonalization with overlap
     ethr =  1.00E-06,  avg # of iterations =  3.0

     Threshold (ethr) on eigenvalues was too large:
     Diagonalizing with lowered threshold

     Davidson diagonalization with overlap
     ethr =  7.22E-09,  avg # of iterations =  1.3

     total cpu time spent up to now is       15.6 secs

     total energy              =    -608.39275051 Ry
     Harris-Foulkes estimate   =    -608.39275394 Ry
     estimated scf accuracy    <       0.00000467 Ry

     iteration #  2     ecut=    70.00 Ry     beta=0.70
     Davidson diagonalization with overlap
     ethr =  7.30E-09,  avg # of iterations =  2.3

     total cpu time spent up to now is       16.9 secs

     total energy              =    -608.39275193 Ry
     Harris-Foulkes estimate   =    -608.39275241 Ry
     estimated scf accuracy    <       0.00000081 Ry

     iteration #  3     ecut=    70.00 Ry     beta=0.70
     Davidson diagonalization with overlap
     ethr =  1.26E-09,  avg # of iterations =  2.0

     total cpu time spent up to now is       18.0 secs

     End of self-consistent calculation

          k = 0.0000 0.0000 0.0000 (  5145 PWs)   bands (ev):

   -64.8345 -64.8251 -64.8250 -64.8243 -31.6320 -31.6309 -31.6299 -31.5947
   -31.5942 -31.5939 -31.5929 -31.5926 -31.5921 -31.5657 -31.5637 -31.5623
    -9.3647  -7.9194  -7.9138  -7.9082   3.7511   3.7580   3.7652   6.3648
     6.3668   6.3781   6.3819   6.3934   6.3953   7.6674   7.6725   7.6772

          k = 0.0000 0.0000 0.2500 (  5165 PWs)   bands (ev):

   -64.8331 -64.8263 -64.8251 -64.8244 -31.6255 -31.6233 -31.6206 -31.6004
   -31.5970 -31.5944 -31.5936 -31.5905 -31.5874 -31.5782 -31.5726 -31.5703
    -9.1563  -8.1286  -7.8893  -7.8813   4.0419   4.0550   4.0952   5.8542
     5.8613   6.1601   6.1811   6.5310   6.5552   6.6589   7.4436   7.4569

          k = 0.0000 0.0000-0.5000 (  5110 PWs)   bands (ev):

   -64.8299 -64.8295 -64.8251 -64.8245 -31.6106 -31.6103 -31.6083 -31.6080
   -31.6019 -31.6019 -31.5907 -31.5907 -31.5816 -31.5814 -31.5796 -31.5793
    -8.6461  -8.6459  -7.8566  -7.8565   4.8426   4.8428   4.8531   4.8533
     5.1227   5.1230   5.9733   5.9737   6.9584   6.9585   6.9782   6.9783

          k = 0.0000 0.2505 0.0000 (  5157 PWs)   bands (ev):

   -64.8331 -64.8262 -64.8251 -64.8245 -31.6253 -31.6243 -31.6195 -31.5998
   -31.5977 -31.5925 -31.5920 -31.5903 -31.5895 -31.5770 -31.5727 -31.5715
    -9.1550  -8.1233  -7.8895  -7.8855   4.0433   4.0498   4.0990   5.8660
     5.8698   6.1570   6.1675   6.5292   6.5416   6.6545   7.4474   7.4539

          k = 0.0000 0.2505 0.2500 (  5157 PWs)   bands (ev):

   -64.8319 -64.8263 -64.8259 -64.8249 -31.6209 -31.6208 -31.6194 -31.6067
   -31.5956 -31.5952 -31.5925 -31.5869 -31.5866 -31.5854 -31.5765 -31.5677
    -8.9650  -8.0638  -8.0598  -7.8930   4.1601   4.1623   4.3236   5.0714
     5.8407   6.0532   6.0636   6.4750   6.4784   6.5905   7.1781   7.5047

          k = 0.0000 0.2505-0.5000 (  5146 PWs)   bands (ev):

   -64.8292 -64.8288 -64.8258 -64.8252 -31.6167 -31.6165 -31.6099 -31.6099
   -31.6079 -31.6076 -31.5861 -31.5859 -31.5830 -31.5829 -31.5744 -31.5742
    -8.5090  -8.5088  -7.9462  -7.9461   4.4153   4.4154   4.7460   4.7462
     5.0926   5.0929   6.5524   6.5526   6.5827   6.5828   7.0902   7.0903

          k = 0.0000-0.5011 0.0000 (  5110 PWs)   bands (ev):

   -64.8299 -64.8294 -64.8251 -64.8245 -31.6105 -31.6100 -31.6093 -31.6088
   -31.6010 -31.6006 -31.5899 -31.5898 -31.5819 -31.5815 -31.5809 -31.5805
    -8.6462  -8.6382  -7.8581  -7.8579   4.8421   4.8473   4.8548   4.8599
     5.1184   5.1234   5.9624   5.9628   6.9557   6.9634   6.9656   6.9732

          k = 0.0000-0.5011 0.2500 (  5146 PWs)   bands (ev):

   -64.8292 -64.8287 -64.8258 -64.8252 -31.6172 -31.6169 -31.6095 -31.6092
   -31.6079 -31.6075 -31.5865 -31.5861 -31.5824 -31.5823 -31.5748 -31.5747
    -8.5100  -8.5029  -7.9482  -7.9468   4.4127   4.4177   4.7417   4.7473
     5.0908   5.1030   6.5441   6.5486   6.5726   6.5814   7.0915   7.0939

          k = 0.0000-0.5011-0.5000 (  5196 PWs)   bands (ev):

   -64.8275 -64.8275 -64.8275 -64.8264 -31.6188 -31.6186 -31.6184 -31.6184
   -31.5987 -31.5985 -31.5983 -31.5980 -31.5755 -31.5753 -31.5751 -31.5751
    -8.2062  -8.2060  -8.2017  -8.2016   4.2841   4.2842   4.2862   4.2863
     5.7624   5.7626   5.7734   5.7736   7.0647   7.0649   7.0683   7.0685

          k = 0.2495 0.0000 0.0000 (  5165 PWs)   bands (ev):

   -64.8331 -64.8264 -64.8250 -64.8244 -31.6240 -31.6229 -31.6229 -31.5984
   -31.5971 -31.5952 -31.5948 -31.5887 -31.5870 -31.5808 -31.5715 -31.5704
    -9.1575  -8.1340  -7.8851  -7.8812   4.0473   4.0540   4.0908   5.8464
     5.8497   6.1738   6.1843   6.5445   6.5562   6.6627   7.4464   7.4531

          k = 0.2495 0.0000 0.2500 (  5159 PWs)   bands (ev):

   -64.8319 -64.8263 -64.8259 -64.8248 -31.6221 -31.6211 -31.6184 -31.6078
   -31.5934 -31.5926 -31.5925 -31.5888 -31.5878 -31.5868 -31.5742 -31.5691
    -8.9672  -8.0680  -8.0640  -7.8876   4.1609   4.1625   4.3334   5.0712
     5.8534   6.0478   6.0577   6.4910   6.4945   6.5764   7.1685   7.5064

          k = 0.2495 0.0000-0.5000 (  5150 PWs)   bands (ev):

   -64.8292 -64.8288 -64.8258 -64.8252 -31.6180 -31.6178 -31.6101 -31.6100
   -31.6056 -31.6054 -31.5842 -31.5842 -31.5837 -31.5835 -31.5765 -31.5763
    -8.5104  -8.5102  -7.9478  -7.9477   4.4214   4.4215   4.7562   4.7564
     5.0998   5.1001   6.5428   6.5431   6.5692   6.5693   7.0979   7.0979

          k = 0.2495 0.2505 0.0000 (  5159 PWs)   bands (ev):

   -64.8319 -64.8263 -64.8259 -64.8248 -31.6221 -31.6196 -31.6195 -31.6072
   -31.5942 -31.5940 -31.5930 -31.5879 -31.5877 -31.5857 -31.5754 -31.5684
    -8.9661  -8.0679  -8.0599  -7.8903   4.1595   4.1634   4.3286   5.0713
     5.8470   6.0454   6.0656   6.4812   6.4882   6.5836   7.1734   7.5055

          k = 0.2495 0.2505 0.2500 (  5151 PWs)   bands (ev):

   -64.8309 -64.8263 -64.8262 -64.8254 -31.6253 -31.6250 -31.6248 -31.6058
   -31.5938 -31.5937 -31.5934 -31.5849 -31.5838 -31.5829 -31.5722 -31.5702
    -8.7963  -8.0336  -8.0308  -8.0279   3.9995   4.0004   4.0014   5.0892
     5.8426   5.8457   5.8489   6.6993   6.7055   6.7116   7.3547   7.3560

          k = 0.2495 0.2505-0.5000 (  5132 PWs)   bands (ev):

   -64.8287 -64.8283 -64.8263 -64.8256 -31.6279 -31.6277 -31.6210 -31.6209
   -31.5931 -31.5928 -31.5804 -31.5803 -31.5787 -31.5785 -31.5768 -31.5766
    -8.3992  -8.3990  -7.9973  -7.9971   3.8215   3.8215   4.1979   4.1980
     5.8302   5.8303   6.7402   6.7404   6.8687   6.8689   7.0161   7.0162

          k = 0.2495-0.5011 0.0000 (  5150 PWs)   bands (ev):

   -64.8292 -64.8287 -64.8258 -64.8252 -31.6178 -31.6175 -31.6096 -31.6093
   -31.6068 -31.6063 -31.5855 -31.5851 -31.5829 -31.5828 -31.5761 -31.5759
    -8.5107  -8.5036  -7.9490  -7.9476   4.4158   4.4208   4.7469   4.7524
     5.0943   5.1066   6.5394   6.5439   6.5656   6.5746   7.0953   7.0976

          k = 0.2495-0.5011 0.2500 (  5136 PWs)   bands (ev):

   -64.8287 -64.8283 -64.8263 -64.8257 -31.6282 -31.6281 -31.6209 -31.6208
   -31.5936 -31.5934 -31.5798 -31.5797 -31.5788 -31.5785 -31.5769 -31.5768
    -8.4001  -8.3941  -7.9980  -7.9978   3.8209   3.8210   4.1917   4.1975
     5.8305   5.8306   6.7384   6.7386   6.8706   6.8732   7.0097   7.0153

          k = 0.2495-0.5011-0.5000 (  5132 PWs)   bands (ev):

   -64.8275 -64.8275 -64.8275 -64.8264 -31.6315 -31.6312 -31.6312 -31.6312
   -31.5838 -31.5836 -31.5835 -31.5834 -31.5746 -31.5744 -31.5742 -31.5742
    -8.1687  -8.1686  -8.1655  -8.1654   3.6361   3.6362   3.6391   3.6392
     6.5186   6.5188   6.5250   6.5251   7.0662   7.0664   7.0688   7.0689

          k =-0.4989 0.0000 0.0000 (  5110 PWs)   bands (ev):

   -64.8300 -64.8295 -64.8250 -64.8244 -31.6098 -31.6093 -31.6086 -31.6081
   -31.6032 -31.6028 -31.5916 -31.5915 -31.5804 -31.5801 -31.5794 -31.5790
    -8.6538  -8.6456  -7.8551  -7.8549   4.8358   4.8411   4.8486   4.8539
     5.1223   5.1271   5.9842   5.9846   6.9633   6.9711   6.9733   6.9810

          k =-0.4989 0.0000 0.2500 (  5150 PWs)   bands (ev):

   -64.8292 -64.8288 -64.8257 -64.8251 -31.6177 -31.6174 -31.6106 -31.6103
   -31.6059 -31.6055 -31.5851 -31.5849 -31.5836 -31.5832 -31.5755 -31.5754
    -8.5164  -8.5092  -7.9471  -7.9457   4.4189   4.4241   4.7551   4.7606
     5.0896   5.1019   6.5469   6.5514   6.5704   6.5794   7.0944   7.0967

          k =-0.4989 0.0000-0.5000 (  5200 PWs)   bands (ev):

   -64.8275 -64.8275 -64.8275 -64.8264 -31.6196 -31.6194 -31.6192 -31.6192
   -31.5956 -31.5954 -31.5952 -31.5950 -31.5777 -31.5776 -31.5774 -31.5773
    -8.2092  -8.2091  -8.2046  -8.2045   4.3003   4.3005   4.3024   4.3025
     5.7613   5.7615   5.7724   5.7726   7.0581   7.0582   7.0618   7.0620

          k =-0.4989 0.2505 0.0000 (  5146 PWs)   bands (ev):

   -64.8292 -64.8288 -64.8257 -64.8251 -31.6168 -31.6166 -31.6105 -31.6102
   -31.6071 -31.6067 -31.5847 -31.5844 -31.5843 -31.5842 -31.5746 -31.5745
    -8.5157  -8.5085  -7.9463  -7.9449   4.4161   4.4213   4.7501   4.7555
     5.0858   5.0981   6.5519   6.5564   6.5770   6.5860   7.0905   7.0928

          k =-0.4989 0.2505 0.2500 (  5134 PWs)   bands (ev):

   -64.8287 -64.8283 -64.8262 -64.8256 -31.6279 -31.6277 -31.6211 -31.6210
   -31.5923 -31.5920 -31.5816 -31.5815 -31.5784 -31.5782 -31.5768 -31.5765
    -8.4042  -8.3981  -7.9965  -7.9964   3.8219   3.8220   4.1984   4.2042
     5.8301   5.8301   6.7418   6.7420   6.8645   6.8669   7.0168   7.0224

          k =-0.4989 0.2505-0.5000 (  5136 PWs)   bands (ev):

   -64.8275 -64.8275 -64.8275 -64.8264 -31.6316 -31.6314 -31.6313 -31.6313
   -31.5821 -31.5819 -31.5819 -31.5817 -31.5762 -31.5761 -31.5759 -31.5759
    -8.1703  -8.1701  -8.1670  -8.1669   3.6415   3.6416   3.6445   3.6446
     6.5237   6.5238   6.5301   6.5302   7.0598   7.0600   7.0625   7.0627

          k =-0.4989-0.5011 0.0000 (  5192 PWs)   bands (ev):

   -64.8275 -64.8275 -64.8274 -64.8264 -31.6190 -31.6188 -31.6186 -31.6185
   -31.5975 -31.5971 -31.5971 -31.5967 -31.5763 -31.5761 -31.5759 -31.5758
    -8.2099  -8.2054  -8.2053  -8.2008   4.2913   4.2933   4.2934   4.2954
     5.7562   5.7671   5.7674   5.7782   7.0597   7.0634   7.0634   7.0671

          k =-0.4989-0.5011 0.2500 (  5140 PWs)   bands (ev):

   -64.8275 -64.8275 -64.8274 -64.8264 -31.6317 -31.6314 -31.6314 -31.6313
   -31.5833 -31.5830 -31.5830 -31.5828 -31.5754 -31.5752 -31.5750 -31.5750
    -8.1711  -8.1679  -8.1677  -8.1646   3.6374   3.6403   3.6403   3.6433
     6.5180   6.5242   6.5245   6.5307   7.0617   7.0643   7.0644   7.0670

          k =-0.4989-0.5011-0.5000 (  5152 PWs)   bands (ev):

   -64.8275 -64.8275 -64.8275 -64.8264 -31.6401 -31.6398 -31.6398 -31.6398
   -31.5767 -31.5765 -31.5764 -31.5763 -31.5740 -31.5738 -31.5737 -31.5736
    -8.1299  -8.1297  -8.1297  -8.1297   3.2174   3.2175   3.2175   3.2175
     7.0613   7.0614   7.0615   7.0616   7.0687   7.0688   7.0689   7.0690

          k =-0.2495 0.2505 0.0000 (  5159 PWs)   bands (ev):

   -64.8319 -64.8263 -64.8259 -64.8248 -31.6221 -31.6196 -31.6195 -31.6072
   -31.5942 -31.5940 -31.5930 -31.5879 -31.5877 -31.5857 -31.5754 -31.5684
    -8.9661  -8.0679  -8.0599  -7.8903   4.1595   4.1634   4.3286   5.0713
     5.8470   6.0454   6.0656   6.4812   6.4882   6.5836   7.1734   7.5055

          k =-0.2495 0.2505-0.2500 (  5151 PWs)   bands (ev):

   -64.8309 -64.8263 -64.8262 -64.8254 -31.6253 -31.6250 -31.6248 -31.6058
   -31.5938 -31.5937 -31.5933 -31.5849 -31.5838 -31.5829 -31.5722 -31.5702
    -8.7963  -8.0336  -8.0308  -8.0279   3.9995   4.0004   4.0014   5.0892
     5.8426   5.8457   5.8489   6.6993   6.7055   6.7116   7.3547   7.3560

          k =-0.2495 0.2505 0.5000 (  5132 PWs)   bands (ev):

   -64.8287 -64.8283 -64.8263 -64.8256 -31.6279 -31.6277 -31.6210 -31.6209
   -31.5931 -31.5928 -31.5804 -31.5803 -31.5787 -31.5785 -31.5768 -31.5766
    -8.3992  -8.3990  -7.9973  -7.9971   3.8214   3.8215   4.1979   4.1980
     5.8302   5.8303   6.7402   6.7404   6.8687   6.8689   7.0161   7.0162

     highest occupied level (ev):     7.6772

!    total energy              =    -608.39275210 Ry
     Harris-Foulkes estimate   =    -608.39275210 Ry
     estimated scf accuracy    <          5.3E-09 Ry

     The total energy is the sum of the following terms:

     one-electron contribution =    -303.56497501 Ry
     hartree contribution      =     168.07175278 Ry
     xc contribution           =     -97.84650616 Ry
     ewald contribution        =    -375.05302371 Ry

     convergence has been achieved in   3 iterations

     Forces acting on atoms (cartesian axes, Ry/au):

     atom    1 type  1   force =    -0.00070421    0.00072647    0.00000000
     atom    2 type  1   force =    -0.00072680   -0.00072943    0.00000000
     atom    3 type  1   force =     0.00070614    0.00075035    0.00000000
     atom    4 type  1   force =     0.00070583   -0.00072971    0.00000000
     atom    5 type  2   force =     0.00092880    0.00094450    0.00000000
     atom    6 type  2   force =    -0.00092002   -0.00095143    0.00000000
     atom    7 type  2   force =    -0.00092099    0.00094428    0.00000000
     atom    8 type  2   force =     0.00093125   -0.00095503    0.00000000

     Total force =     0.003347     Total SCF correction =     0.000266


     Computing stress (Cartesian axis) and pressure

          total   stress  (Ry/bohr**3)                   (kbar)     P=  -68.19
  -0.00048986   0.00000000   0.00000000        -72.06      0.00      0.00
   0.00000000  -0.00043716   0.00000000          0.00    -64.31      0.00
   0.00000000   0.00000000  -0.00046359          0.00      0.00    -68.20


     number of scf cycles    =   2
     number of bfgs steps    =   1

     energy   old            =    -608.3927306812 Ry
     energy   new            =    -608.3927521029 Ry

     CASE: energy  _new < energy  _old

     new trust radius        =       0.0021159432 bohr
     new conv_thr            =       0.0000000002 Ry


ATOMIC_POSITIONS (alat)
Mg      -0.000280606   0.000292725   0.000000000
Mg      -0.000285157   0.499709441   0.500000000
Mg       0.500278349   0.000297444   0.500000000
Mg       0.500277962   0.499709635   0.000000000
O        0.500347838   0.000355707   0.000000000
O       -0.000343445   0.499640394   0.000000000
O       -0.000343869   0.000355734   0.500000000
O        0.500348929   0.499638919   0.500000000



     Writing output data file diamond.1.002143.70.4.save
     NEW-OLD atomic charge density approx. for the potential

     Check: negative/imaginary core charge=   -0.000007    0.000000

     total cpu time spent up to now is       18.8 secs

     per-process dynamical memory:    51.7 Mb

     Self-consistent Calculation

     iteration #  1     ecut=    70.00 Ry     beta=0.70
     Davidson diagonalization with overlap
     ethr =  1.00E-06,  avg # of iterations =  3.0

     Threshold (ethr) on eigenvalues was too large:
     Diagonalizing with lowered threshold

     Davidson diagonalization with overlap
     ethr =  8.55E-09,  avg # of iterations =  1.2

     total cpu time spent up to now is       21.6 secs

     total energy              =    -608.39276451 Ry
     Harris-Foulkes estimate   =    -608.39276858 Ry
     estimated scf accuracy    <       0.00000554 Ry

     iteration #  2     ecut=    70.00 Ry     beta=0.70
     Davidson diagonalization with overlap
     ethr =  8.65E-09,  avg # of iterations =  2.2

     total cpu time spent up to now is       22.8 secs

     total energy              =    -608.39276619 Ry
     Harris-Foulkes estimate   =    -608.39276676 Ry
     estimated scf accuracy    <       0.00000095 Ry

     iteration #  3     ecut=    70.00 Ry     beta=0.70
     Davidson diagonalization with overlap
     ethr =  1.48E-09,  avg # of iterations =  2.0

     total cpu time spent up to now is       24.0 secs

     total energy              =    -608.39276640 Ry
     Harris-Foulkes estimate   =    -608.39276639 Ry
     estimated scf accuracy    <          5.8E-09 Ry

     iteration #  4     ecut=    70.00 Ry     beta=0.70
     Davidson diagonalization with overlap
     ethr =  9.02E-12,  avg # of iterations =  2.6

     total cpu time spent up to now is       25.4 secs

     total energy              =    -608.39276640 Ry
     Harris-Foulkes estimate   =    -608.39276640 Ry
     estimated scf accuracy    <          6.3E-10 Ry

     iteration #  5     ecut=    70.00 Ry     beta=0.70
     Davidson diagonalization with overlap
     ethr =  9.83E-13,  avg # of iterations =  2.1

     total cpu time spent up to now is       26.6 secs

     End of self-consistent calculation

          k = 0.0000 0.0000 0.0000 (  5145 PWs)   bands (ev):

   -64.8345 -64.8251 -64.8250 -64.8243 -31.6320 -31.6309 -31.6299 -31.5947
   -31.5942 -31.5939 -31.5929 -31.5926 -31.5921 -31.5657 -31.5637 -31.5623
    -9.3647  -7.9194  -7.9138  -7.9082   3.7511   3.7580   3.7651   6.3648
     6.3668   6.3781   6.3819   6.3934   6.3953   7.6674   7.6725   7.6772

          k = 0.0000 0.0000 0.2500 (  5165 PWs)   bands (ev):

   -64.8331 -64.8263 -64.8251 -64.8244 -31.6255 -31.6233 -31.6206 -31.6004
   -31.5970 -31.5944 -31.5936 -31.5905 -31.5874 -31.5782 -31.5726 -31.5703
    -9.1563  -8.1286  -7.8893  -7.8814   4.0418   4.0550   4.0952   5.8542
     5.8613   6.1601   6.1811   6.5310   6.5551   6.6589   7.4436   7.4568

          k = 0.0000 0.0000-0.5000 (  5110 PWs)   bands (ev):

   -64.8299 -64.8295 -64.8251 -64.8245 -31.6106 -31.6103 -31.6082 -31.6080
   -31.6019 -31.6019 -31.5907 -31.5907 -31.5816 -31.5814 -31.5796 -31.5793
    -8.6461  -8.6459  -7.8566  -7.8565   4.8426   4.8428   4.8531   4.8533
     5.1227   5.1229   5.9734   5.9737   6.9584   6.9585   6.9782   6.9783

          k = 0.0000 0.2505 0.0000 (  5157 PWs)   bands (ev):

   -64.8331 -64.8262 -64.8251 -64.8245 -31.6253 -31.6243 -31.6195 -31.5998
   -31.5977 -31.5925 -31.5920 -31.5903 -31.5895 -31.5770 -31.5727 -31.5715
    -9.1550  -8.1233  -7.8895  -7.8855   4.0433   4.0498   4.0990   5.8660
     5.8698   6.1570   6.1675   6.5291   6.5416   6.6544   7.4473   7.4539

          k = 0.0000 0.2505 0.2500 (  5157 PWs)   bands (ev):

   -64.8319 -64.8263 -64.8259 -64.8249 -31.6209 -31.6208 -31.6194 -31.6066
   -31.5956 -31.5952 -31.5925 -31.5869 -31.5866 -31.5854 -31.5765 -31.5677
    -8.9650  -8.0638  -8.0598  -7.8930   4.1601   4.1623   4.3236   5.0714
     5.8407   6.0532   6.0636   6.4750   6.4784   6.5905   7.1781   7.5047

          k = 0.0000 0.2505-0.5000 (  5146 PWs)   bands (ev):

   -64.8292 -64.8288 -64.8258 -64.8252 -31.6167 -31.6165 -31.6099 -31.6098
   -31.6079 -31.6077 -31.5861 -31.5859 -31.5830 -31.5829 -31.5744 -31.5742
    -8.5090  -8.5089  -7.9462  -7.9461   4.4153   4.4154   4.7460   4.7462
     5.0926   5.0928   6.5525   6.5528   6.5825   6.5827   7.0902   7.0903

          k = 0.0000-0.5011 0.0000 (  5110 PWs)   bands (ev):

   -64.8299 -64.8294 -64.8251 -64.8245 -31.6104 -31.6100 -31.6092 -31.6089
   -31.6009 -31.6007 -31.5898 -31.5898 -31.5818 -31.5816 -31.5808 -31.5806
    -8.6443  -8.6401  -7.8581  -7.8580   4.8451   4.8503   4.8518   4.8569
     5.1196   5.1221   5.9624   5.9628   6.9575   6.9615   6.9674   6.9713

          k = 0.0000-0.5011 0.2500 (  5146 PWs)   bands (ev):

   -64.8292 -64.8287 -64.8258 -64.8252 -31.6171 -31.6169 -31.6094 -31.6093
   -31.6079 -31.6076 -31.5865 -31.5862 -31.5824 -31.5823 -31.5748 -31.5747
    -8.5083  -8.5046  -7.9479  -7.9472   4.4139   4.4166   4.7431   4.7459
     5.0936   5.1001   6.5453   6.5476   6.5746   6.5792   7.0921   7.0933

          k = 0.0000-0.5011-0.5000 (  5196 PWs)   bands (ev):

   -64.8275 -64.8275 -64.8275 -64.8264 -31.6188 -31.6186 -31.6184 -31.6184
   -31.5986 -31.5984 -31.5983 -31.5981 -31.5755 -31.5753 -31.5751 -31.5751
    -8.2051  -8.2050  -8.2028  -8.2027   4.2847   4.2848   4.2856   4.2857
     5.7650   5.7652   5.7707   5.7709   7.0656   7.0657   7.0674   7.0676

          k = 0.2495 0.0000 0.0000 (  5165 PWs)   bands (ev):

   -64.8331 -64.8264 -64.8250 -64.8244 -31.6240 -31.6229 -31.6229 -31.5984
   -31.5971 -31.5952 -31.5948 -31.5887 -31.5870 -31.5808 -31.5715 -31.5704
    -9.1575  -8.1340  -7.8852  -7.8812   4.0473   4.0539   4.0908   5.8463
     5.8496   6.1738   6.1843   6.5444   6.5562   6.6627   7.4464   7.4531

          k = 0.2495 0.0000 0.2500 (  5159 PWs)   bands (ev):

   -64.8319 -64.8263 -64.8259 -64.8248 -31.6221 -31.6211 -31.6184 -31.6078
   -31.5934 -31.5926 -31.5925 -31.5888 -31.5878 -31.5868 -31.5742 -31.5691
    -8.9672  -8.0680  -8.0640  -7.8876   4.1608   4.1625   4.3334   5.0712
     5.8534   6.0478   6.0577   6.4910   6.4945   6.5764   7.1685   7.5063

          k = 0.2495 0.0000-0.5000 (  5150 PWs)   bands (ev):

   -64.8292 -64.8288 -64.8258 -64.8252 -31.6180 -31.6178 -31.6101 -31.6100
   -31.6057 -31.6054 -31.5842 -31.5842 -31.5837 -31.5835 -31.5765 -31.5763
    -8.5104  -8.5102  -7.9478  -7.9477   4.4214   4.4215   4.7562   4.7564
     5.0998   5.1001   6.5429   6.5432   6.5690   6.5692   7.0978   7.0979

          k = 0.2495 0.2505 0.0000 (  5159 PWs)   bands (ev):

   -64.8319 -64.8263 -64.8259 -64.8248 -31.6221 -31.6196 -31.6195 -31.6072
   -31.5942 -31.5940 -31.5930 -31.5879 -31.5878 -31.5857 -31.5754 -31.5684
    -8.9661  -8.0679  -8.0600  -7.8903   4.1595   4.1634   4.3286   5.0713
     5.8470   6.0453   6.0656   6.4812   6.4882   6.5835   7.1733   7.5055

          k = 0.2495 0.2505 0.2500 (  5151 PWs)   bands (ev):

   -64.8309 -64.8263 -64.8262 -64.8255 -31.6253 -31.6250 -31.6248 -31.6058
   -31.5938 -31.5937 -31.5934 -31.5849 -31.5838 -31.5829 -31.5722 -31.5702
    -8.7963  -8.0336  -8.0308  -8.0280   3.9994   4.0004   4.0014   5.0892
     5.8425   5.8457   5.8488   6.6992   6.7055   6.7116   7.3546   7.3559

          k = 0.2495 0.2505-0.5000 (  5132 PWs)   bands (ev):

   -64.8287 -64.8283 -64.8263 -64.8256 -31.6278 -31.6277 -31.6210 -31.6209
   -31.5931 -31.5928 -31.5804 -31.5803 -31.5787 -31.5785 -31.5768 -31.5766
    -8.3992  -8.3991  -7.9973  -7.9972   3.8214   3.8215   4.1979   4.1980
     5.8302   5.8303   6.7402   6.7404   6.8687   6.8688   7.0160   7.0161

          k = 0.2495-0.5011 0.0000 (  5150 PWs)   bands (ev):

   -64.8292 -64.8287 -64.8258 -64.8252 -31.6177 -31.6175 -31.6095 -31.6094
   -31.6067 -31.6064 -31.5855 -31.5852 -31.5829 -31.5828 -31.5761 -31.5759
    -8.5090  -8.5053  -7.9487  -7.9479   4.4170   4.4197   4.7483   4.7510
     5.0972   5.1037   6.5405   6.5428   6.5677   6.5724   7.0958   7.0970

          k = 0.2495-0.5011 0.2500 (  5136 PWs)   bands (ev):

   -64.8287 -64.8283 -64.8263 -64.8257 -31.6282 -31.6281 -31.6209 -31.6208
   -31.5936 -31.5934 -31.5798 -31.5797 -31.5788 -31.5786 -31.5769 -31.5768
    -8.3987  -8.3956  -7.9980  -7.9979   3.8209   3.8210   4.1931   4.1960
     5.8305   5.8305   6.7384   6.7386   6.8712   6.8726   7.0110   7.0139

          k = 0.2495-0.5011-0.5000 (  5132 PWs)   bands (ev):

   -64.8275 -64.8275 -64.8275 -64.8264 -31.6315 -31.6312 -31.6312 -31.6312
   -31.5838 -31.5836 -31.5835 -31.5834 -31.5746 -31.5744 -31.5742 -31.5742
    -8.1680  -8.1679  -8.1663  -8.1662   3.6369   3.6370   3.6383   3.6384
     6.5201   6.5203   6.5235   6.5236   7.0668   7.0670   7.0681   7.0683

          k =-0.4989 0.0000 0.0000 (  5110 PWs)   bands (ev):

   -64.8300 -64.8295 -64.8250 -64.8244 -31.6097 -31.6094 -31.6086 -31.6082
   -31.6032 -31.6029 -31.5916 -31.5915 -31.5804 -31.5801 -31.5794 -31.5791
    -8.6519  -8.6475  -7.8550  -7.8550   4.8387   4.8440   4.8457   4.8510
     5.1234   5.1259   5.9843   5.9846   6.9651   6.9693   6.9751   6.9792

          k =-0.4989 0.0000 0.2500 (  5150 PWs)   bands (ev):

   -64.8292 -64.8288 -64.8257 -64.8251 -31.6177 -31.6174 -31.6106 -31.6104
   -31.6059 -31.6056 -31.5851 -31.5849 -31.5836 -31.5833 -31.5755 -31.5754
    -8.5147  -8.5108  -7.9468  -7.9460   4.4200   4.4229   4.7565   4.7593
     5.0923   5.0991   6.5480   6.5505   6.5723   6.5772   7.0949   7.0961

          k =-0.4989 0.0000-0.5000 (  5200 PWs)   bands (ev):

   -64.8275 -64.8275 -64.8275 -64.8264 -31.6195 -31.6194 -31.6192 -31.6192
   -31.5956 -31.5954 -31.5953 -31.5950 -31.5777 -31.5775 -31.5774 -31.5774
    -8.2082  -8.2080  -8.2057  -8.2056   4.3009   4.3010   4.3018   4.3019
     5.7638   5.7640   5.7698   5.7700   7.0589   7.0591   7.0609   7.0611

          k =-0.4989 0.2505 0.0000 (  5146 PWs)   bands (ev):

   -64.8292 -64.8288 -64.8257 -64.8251 -31.6168 -31.6166 -31.6105 -31.6103
   -31.6071 -31.6067 -31.5846 -31.5844 -31.5843 -31.5842 -31.5746 -31.5745
    -8.5140  -8.5101  -7.9460  -7.9452   4.4172   4.4201   4.7514   4.7542
     5.0886   5.0953   6.5529   6.5554   6.5791   6.5839   7.0910   7.0923

          k =-0.4989 0.2505 0.2500 (  5134 PWs)   bands (ev):

   -64.8287 -64.8283 -64.8262 -64.8256 -31.6279 -31.6277 -31.6211 -31.6210
   -31.5923 -31.5920 -31.5816 -31.5815 -31.5784 -31.5782 -31.5768 -31.5765
    -8.4028  -8.3995  -7.9965  -7.9965   3.8219   3.8220   4.1998   4.2028
     5.8301   5.8301   6.7418   6.7420   6.8649   6.8664   7.0180   7.0210

          k =-0.4989 0.2505-0.5000 (  5136 PWs)   bands (ev):

   -64.8275 -64.8275 -64.8275 -64.8264 -31.6316 -31.6313 -31.6313 -31.6313
   -31.5821 -31.5819 -31.5819 -31.5817 -31.5762 -31.5760 -31.5759 -31.5759
    -8.1695  -8.1694  -8.1678  -8.1677   3.6422   3.6423   3.6438   3.6438
     6.5251   6.5252   6.5286   6.5287   7.0604   7.0606   7.0618   7.0620

          k =-0.4989-0.5011 0.0000 (  5192 PWs)   bands (ev):

   -64.8275 -64.8275 -64.8274 -64.8264 -31.6190 -31.6188 -31.6186 -31.6186
   -31.5974 -31.5971 -31.5971 -31.5968 -31.5762 -31.5760 -31.5759 -31.5758
    -8.2077  -8.2054  -8.2053  -8.2030   4.2924   4.2933   4.2934   4.2943
     5.7613   5.7670   5.7674   5.7731   7.0615   7.0633   7.0634   7.0653

          k =-0.4989-0.5011 0.2500 (  5140 PWs)   bands (ev):

   -64.8275 -64.8275 -64.8274 -64.8264 -31.6316 -31.6314 -31.6314 -31.6313
   -31.5832 -31.5830 -31.5830 -31.5828 -31.5753 -31.5752 -31.5750 -31.5750
    -8.1696  -8.1679  -8.1678  -8.1661   3.6388   3.6403   3.6404   3.6418
     6.5209   6.5242   6.5245   6.5277   7.0630   7.0643   7.0644   7.0657

          k =-0.4989-0.5011-0.5000 (  5152 PWs)   bands (ev):

   -64.8275 -64.8275 -64.8275 -64.8264 -31.6401 -31.6398 -31.6398 -31.6398
   -31.5766 -31.5765 -31.5764 -31.5763 -31.5740 -31.5738 -31.5737 -31.5736
    -8.1299  -8.1297  -8.1297  -8.1297   3.2173   3.2175   3.2175   3.2175
     7.0613   7.0614   7.0615   7.0616   7.0687   7.0688   7.0689   7.0690

          k =-0.2495 0.2505 0.0000 (  5159 PWs)   bands (ev):

   -64.8319 -64.8263 -64.8259 -64.8248 -31.6221 -31.6196 -31.6195 -31.6072
   -31.5942 -31.5940 -31.5930 -31.5879 -31.5878 -31.5857 -31.5754 -31.5684
    -8.9661  -8.0679  -8.0600  -7.8903   4.1595   4.1634   4.3286   5.0713
     5.8470   6.0453   6.0656   6.4812   6.4882   6.5835   7.1733   7.5055

          k =-0.2495 0.2505-0.2500 (  5151 PWs)   bands (ev):

   -64.8309 -64.8263 -64.8262 -64.8255 -31.6253 -31.6250 -31.6248 -31.6058
   -31.5938 -31.5937 -31.5934 -31.5849 -31.5838 -31.5829 -31.5722 -31.5702
    -8.7963  -8.0336  -8.0308  -8.0280   3.9994   4.0004   4.0014   5.0892
     5.8425   5.8457   5.8488   6.6992   6.7055   6.7116   7.3546   7.3559

          k =-0.2495 0.2505 0.5000 (  5132 PWs)   bands (ev):

   -64.8287 -64.8283 -64.8263 -64.8256 -31.6278 -31.6277 -31.6210 -31.6209
   -31.5931 -31.5928 -31.5804 -31.5803 -31.5787 -31.5785 -31.5768 -31.5766
    -8.3992  -8.3991  -7.9973  -7.9972   3.8214   3.8215   4.1979   4.1980
     5.8302   5.8303   6.7402   6.7404   6.8687   6.8688   7.0160   7.0161

     highest occupied level (ev):     7.6772

!    total energy              =    -608.39276640 Ry
     Harris-Foulkes estimate   =    -608.39276640 Ry
     estimated scf accuracy    <          9.9E-11 Ry

     The total energy is the sum of the following terms:

     one-electron contribution =    -303.56237915 Ry
     hartree contribution      =     168.07046431 Ry
     xc contribution           =     -97.84649324 Ry
     ewald contribution        =    -375.05435832 Ry

     convergence has been achieved in   5 iterations

     Forces acting on atoms (cartesian axes, Ry/au):

     atom    1 type  1   force =    -0.00050283    0.00049959    0.00000000
     atom    2 type  1   force =    -0.00054210   -0.00052200    0.00000000
     atom    3 type  1   force =     0.00052404    0.00054011    0.00000000
     atom    4 type  1   force =     0.00052356   -0.00052165    0.00000000
     atom    5 type  2   force =     0.00044375    0.00043820    0.00000000
     atom    6 type  2   force =    -0.00044496   -0.00043590    0.00000000
     atom    7 type  2   force =    -0.00044507    0.00043760    0.00000000
     atom    8 type  2   force =     0.00044362   -0.00043595    0.00000000

     Total force =     0.001933     Total SCF correction =     0.000112


     Computing stress (Cartesian axis) and pressure

          total   stress  (Ry/bohr**3)                   (kbar)     P=  -68.20
  -0.00048996   0.00000000   0.00000000        -72.08      0.00      0.00
   0.00000000  -0.00043727   0.00000000          0.00    -64.32      0.00
   0.00000000   0.00000000  -0.00046355          0.00      0.00    -68.19


     number of scf cycles    =   3
     number of bfgs steps    =   2

     energy   old            =    -608.3927521029 Ry
     energy   new            =    -608.3927663972 Ry

     CASE: energy  _new < energy  _old

     new trust radius        =       0.0025900080 bohr
     new conv_thr            =       0.0000000001 Ry


ATOMIC_POSITIONS (alat)
Mg      -0.000497346   0.000510824   0.000000000
Mg      -0.000515497   0.499484608   0.500000000
Mg       0.500501371   0.000529636   0.500000000
Mg       0.500500819   0.499484869   0.000000000
O        0.500571338   0.000579242   0.000000000
O       -0.000566387   0.499416806   0.000000000
O       -0.000566944   0.000579075   0.500000000
O        0.500572647   0.499414940   0.500000000



     Writing output data file diamond.1.002143.70.4.save
     NEW-OLD atomic charge density approx. for the potential

     Check: negative/imaginary core charge=   -0.000007    0.000000

     total cpu time spent up to now is       27.4 secs

     per-process dynamical memory:    51.7 Mb

     Self-consistent Calculation

     iteration #  1     ecut=    70.00 Ry     beta=0.70
     Davidson diagonalization with overlap
     ethr =  1.00E-06,  avg # of iterations =  3.0

     Threshold (ethr) on eigenvalues was too large:
     Diagonalizing with lowered threshold

     Davidson diagonalization with overlap
     ethr =  1.37E-08,  avg # of iterations =  1.1

     total cpu time spent up to now is       30.2 secs

     total energy              =    -608.39276954 Ry
     Harris-Foulkes estimate   =    -608.39277598 Ry
     estimated scf accuracy    <       0.00000880 Ry

     iteration #  2     ecut=    70.00 Ry     beta=0.70
     Davidson diagonalization with overlap
     ethr =  1.37E-08,  avg # of iterations =  2.2

     total cpu time spent up to now is       31.4 secs

     total energy              =    -608.39277221 Ry
     Harris-Foulkes estimate   =    -608.39277312 Ry
     estimated scf accuracy    <       0.00000152 Ry

     iteration #  3     ecut=    70.00 Ry     beta=0.70
     Davidson diagonalization with overlap
     ethr =  2.38E-09,  avg # of iterations =  2.0

     total cpu time spent up to now is       32.6 secs

     total energy              =    -608.39277254 Ry
     Harris-Foulkes estimate   =    -608.39277253 Ry
     estimated scf accuracy    <       0.00000001 Ry

     iteration #  4     ecut=    70.00 Ry     beta=0.70
     Davidson diagonalization with overlap
     ethr =  1.58E-11,  avg # of iterations =  2.5

     total cpu time spent up to now is       34.0 secs

     total energy              =    -608.39277254 Ry
     Harris-Foulkes estimate   =    -608.39277254 Ry
     estimated scf accuracy    <          6.3E-10 Ry

     iteration #  5     ecut=    70.00 Ry     beta=0.70
     Davidson diagonalization with overlap
     ethr =  9.78E-13,  avg # of iterations =  2.0

     total cpu time spent up to now is       35.2 secs

     End of self-consistent calculation

          k = 0.0000 0.0000 0.0000 (  5145 PWs)   bands (ev):

   -64.8346 -64.8251 -64.8250 -64.8243 -31.6320 -31.6310 -31.6299 -31.5947
   -31.5942 -31.5939 -31.5929 -31.5926 -31.5921 -31.5657 -31.5637 -31.5623
    -9.3647  -7.9194  -7.9138  -7.9082   3.7511   3.7581   3.7651   6.3648
     6.3668   6.3781   6.3819   6.3934   6.3953   7.6674   7.6725   7.6772

          k = 0.0000 0.0000 0.2500 (  5165 PWs)   bands (ev):

   -64.8331 -64.8263 -64.8251 -64.8245 -31.6255 -31.6233 -31.6206 -31.6004
   -31.5970 -31.5944 -31.5936 -31.5905 -31.5874 -31.5782 -31.5726 -31.5703
    -9.1563  -8.1286  -7.8893  -7.8813   4.0418   4.0550   4.0953   5.8542
     5.8613   6.1601   6.1811   6.5310   6.5551   6.6589   7.4436   7.4568

          k = 0.0000 0.0000-0.5000 (  5110 PWs)   bands (ev):

   -64.8299 -64.8295 -64.8251 -64.8245 -31.6106 -31.6103 -31.6082 -31.6080
   -31.6019 -31.6019 -31.5907 -31.5907 -31.5816 -31.5814 -31.5796 -31.5793
    -8.6461  -8.6459  -7.8566  -7.8565   4.8426   4.8428   4.8531   4.8533
     5.1227   5.1229   5.9734   5.9737   6.9584   6.9585   6.9782   6.9783

          k = 0.0000 0.2505 0.0000 (  5157 PWs)   bands (ev):

   -64.8331 -64.8262 -64.8251 -64.8245 -31.6253 -31.6243 -31.6195 -31.5998
   -31.5977 -31.5925 -31.5920 -31.5904 -31.5895 -31.5770 -31.5727 -31.5715
    -9.1550  -8.1233  -7.8895  -7.8855   4.0433   4.0498   4.0990   5.8660
     5.8698   6.1570   6.1675   6.5292   6.5416   6.6544   7.4473   7.4539

          k = 0.0000 0.2505 0.2500 (  5157 PWs)   bands (ev):

   -64.8319 -64.8263 -64.8259 -64.8249 -31.6209 -31.6208 -31.6194 -31.6067
   -31.5956 -31.5952 -31.5925 -31.5869 -31.5866 -31.5854 -31.5765 -31.5677
    -8.9650  -8.0638  -8.0598  -7.8930   4.1601   4.1623   4.3236   5.0714
     5.8407   6.0532   6.0636   6.4750   6.4784   6.5905   7.1781   7.5047

          k = 0.0000 0.2505-0.5000 (  5146 PWs)   bands (ev):

   -64.8292 -64.8288 -64.8258 -64.8252 -31.6167 -31.6165 -31.6099 -31.6098
   -31.6079 -31.6077 -31.5861 -31.5859 -31.5830 -31.5829 -31.5744 -31.5742
    -8.5090  -8.5088  -7.9462  -7.9461   4.4153   4.4154   4.7460   4.7462
     5.0926   5.0928   6.5526   6.5528   6.5825   6.5826   7.0902   7.0903

          k = 0.0000-0.5011 0.0000 (  5110 PWs)   bands (ev):

   -64.8299 -64.8294 -64.8251 -64.8245 -31.6103 -31.6101 -31.6092 -31.6089
   -31.6008 -31.6008 -31.5899 -31.5898 -31.5818 -31.5816 -31.5808 -31.5806
    -8.6426  -8.6419  -7.8581  -7.8580   4.8480   4.8489   4.8531   4.8541
     5.1205   5.1211   5.9624   5.9628   6.9591   6.9599   6.9690   6.9697

          k = 0.0000-0.5011 0.2500 (  5146 PWs)   bands (ev):

   -64.8292 -64.8287 -64.8258 -64.8252 -31.6171 -31.6170 -31.6094 -31.6093
   -31.6079 -31.6076 -31.5865 -31.5862 -31.5824 -31.5823 -31.5748 -31.5747
    -8.5068  -8.5062  -7.9476  -7.9474   4.4151   4.4154   4.7442   4.7449
     5.0964   5.0973   6.5463   6.5467   6.5764   6.5772   7.0926   7.0928

          k = 0.0000-0.5011-0.5000 (  5196 PWs)   bands (ev):

   -64.8275 -64.8275 -64.8275 -64.8265 -31.6188 -31.6186 -31.6184 -31.6184
   -31.5986 -31.5984 -31.5984 -31.5981 -31.5755 -31.5753 -31.5752 -31.5751
    -8.2042  -8.2040  -8.2037  -8.2036   4.2850   4.2851   4.2853   4.2855
     5.7674   5.7676   5.7683   5.7685   7.0663   7.0664   7.0667   7.0669

          k = 0.2495 0.0000 0.0000 (  5165 PWs)   bands (ev):

   -64.8331 -64.8264 -64.8250 -64.8244 -31.6240 -31.6229 -31.6229 -31.5984
   -31.5971 -31.5952 -31.5948 -31.5887 -31.5870 -31.5808 -31.5716 -31.5704
    -9.1575  -8.1340  -7.8851  -7.8812   4.0473   4.0540   4.0908   5.8463
     5.8496   6.1738   6.1843   6.5444   6.5562   6.6627   7.4464   7.4531

          k = 0.2495 0.0000 0.2500 (  5159 PWs)   bands (ev):

   -64.8319 -64.8263 -64.8259 -64.8248 -31.6221 -31.6211 -31.6184 -31.6078
   -31.5934 -31.5926 -31.5925 -31.5888 -31.5878 -31.5868 -31.5742 -31.5691
    -8.9672  -8.0680  -8.0640  -7.8876   4.1608   4.1625   4.3334   5.0712
     5.8534   6.0478   6.0577   6.4910   6.4946   6.5764   7.1685   7.5064

          k = 0.2495 0.0000-0.5000 (  5150 PWs)   bands (ev):

   -64.8292 -64.8288 -64.8258 -64.8252 -31.6180 -31.6178 -31.6101 -31.6100
   -31.6057 -31.6054 -31.5842 -31.5842 -31.5837 -31.5835 -31.5765 -31.5763
    -8.5104  -8.5102  -7.9478  -7.9477   4.4214   4.4215   4.7562   4.7564
     5.0998   5.1001   6.5430   6.5432   6.5690   6.5691   7.0978   7.0979

          k = 0.2495 0.2505 0.0000 (  5159 PWs)   bands (ev):

   -64.8319 -64.8263 -64.8259 -64.8248 -31.6221 -31.6196 -31.6195 -31.6072
   -31.5942 -31.5940 -31.5930 -31.5878 -31.5878 -31.5857 -31.5754 -31.5684
    -8.9661  -8.0679  -8.0600  -7.8903   4.1595   4.1634   4.3286   5.0713
     5.8470   6.0453   6.0656   6.4812   6.4882   6.5835   7.1733   7.5055

          k = 0.2495 0.2505 0.2500 (  5151 PWs)   bands (ev):

   -64.8309 -64.8263 -64.8262 -64.8255 -31.6253 -31.6250 -31.6248 -31.6058
   -31.5938 -31.5937 -31.5934 -31.5849 -31.5838 -31.5829 -31.5722 -31.5702
    -8.7962  -8.0336  -8.0308  -8.0280   3.9994   4.0004   4.0014   5.0892
     5.8426   5.8457   5.8489   6.6992   6.7055   6.7116   7.3546   7.3559

          k = 0.2495 0.2505-0.5000 (  5132 PWs)   bands (ev):

   -64.8287 -64.8283 -64.8263 -64.8256 -31.6279 -31.6277 -31.6210 -31.6209
   -31.5931 -31.5928 -31.5804 -31.5803 -31.5787 -31.5785 -31.5768 -31.5766
    -8.3992  -8.3990  -7.9973  -7.9972   3.8214   3.8215   4.1979   4.1980
     5.8302   5.8303   6.7402   6.7404   6.8687   6.8688   7.0160   7.0161

          k = 0.2495-0.5011 0.0000 (  5150 PWs)   bands (ev):

   -64.8292 -64.8287 -64.8258 -64.8252 -31.6177 -31.6176 -31.6095 -31.6094
   -31.6067 -31.6065 -31.5855 -31.5852 -31.5829 -31.5828 -31.5761 -31.5759
    -8.5074  -8.5068  -7.9484  -7.9482   4.4182   4.4185   4.7493   4.7500
     5.1000   5.1009   6.5415   6.5419   6.5697   6.5705   7.0963   7.0965

          k = 0.2495-0.5011 0.2500 (  5136 PWs)   bands (ev):

   -64.8287 -64.8283 -64.8263 -64.8257 -31.6282 -31.6281 -31.6209 -31.6208
   -31.5936 -31.5934 -31.5798 -31.5797 -31.5788 -31.5786 -31.5769 -31.5768
    -8.3974  -8.3968  -7.9980  -7.9979   3.8209   3.8210   4.1942   4.1949
     5.8305   5.8306   6.7384   6.7386   6.8718   6.8720   7.0122   7.0127

          k = 0.2495-0.5011-0.5000 (  5132 PWs)   bands (ev):

   -64.8275 -64.8275 -64.8275 -64.8264 -31.6315 -31.6312 -31.6312 -31.6312
   -31.5838 -31.5836 -31.5835 -31.5834 -31.5746 -31.5744 -31.5742 -31.5742
    -8.1673  -8.1672  -8.1670  -8.1669   3.6374   3.6375   3.6378   3.6379
     6.5215   6.5216   6.5221   6.5222   7.0673   7.0675   7.0676   7.0678

          k =-0.4989 0.0000 0.0000 (  5110 PWs)   bands (ev):

   -64.8300 -64.8295 -64.8250 -64.8245 -31.6097 -31.6094 -31.6085 -31.6083
   -31.6030 -31.6030 -31.5916 -31.5915 -31.5804 -31.5801 -31.5793 -31.5791
    -8.6499  -8.6495  -7.8550  -7.8550   4.8419   4.8424   4.8472   4.8478
     5.1244   5.1249   5.9843   5.9846   6.9670   6.9674   6.9769   6.9774

          k =-0.4989 0.0000 0.2500 (  5150 PWs)   bands (ev):

   -64.8292 -64.8288 -64.8257 -64.8252 -31.6176 -31.6175 -31.6105 -31.6104
   -31.6058 -31.6056 -31.5850 -31.5850 -31.5836 -31.5833 -31.5756 -31.5754
    -8.5129  -8.5126  -7.9465  -7.9463   4.4214   4.4216   4.7576   4.7581
     5.0954   5.0960   6.5491   6.5495   6.5745   6.5750   7.0955   7.0956

          k =-0.4989 0.0000-0.5000 (  5200 PWs)   bands (ev):

   -64.8275 -64.8275 -64.8275 -64.8265 -31.6195 -31.6193 -31.6192 -31.6192
   -31.5955 -31.5953 -31.5953 -31.5951 -31.5777 -31.5775 -31.5774 -31.5774
    -8.2071  -8.2069  -8.2068  -8.2067   4.3012   4.3013   4.3015   4.3017
     5.7665   5.7667   5.7671   5.7673   7.0598   7.0599   7.0601   7.0603

          k =-0.4989 0.2505 0.0000 (  5146 PWs)   bands (ev):

   -64.8292 -64.8288 -64.8257 -64.8252 -31.6168 -31.6166 -31.6104 -31.6104
   -31.6070 -31.6068 -31.5846 -31.5844 -31.5843 -31.5843 -31.5746 -31.5745
    -8.5123  -8.5119  -7.9456  -7.9455   4.4186   4.4187   4.7525   4.7530
     5.0917   5.0922   6.5540   6.5543   6.5813   6.5818   7.0916   7.0917

          k =-0.4989 0.2505 0.2500 (  5134 PWs)   bands (ev):

   -64.8287 -64.8283 -64.8262 -64.8256 -31.6279 -31.6277 -31.6211 -31.6210
   -31.5923 -31.5920 -31.5816 -31.5815 -31.5784 -31.5783 -31.5768 -31.5766
    -8.4013  -8.4010  -7.9965  -7.9964   3.8219   3.8220   4.2011   4.2016
     5.8301   5.8301   6.7418   6.7420   6.8656   6.8657   7.0194   7.0197

          k =-0.4989 0.2505-0.5000 (  5136 PWs)   bands (ev):

   -64.8275 -64.8275 -64.8275 -64.8264 -31.6316 -31.6313 -31.6313 -31.6313
   -31.5821 -31.5819 -31.5819 -31.5817 -31.5762 -31.5760 -31.5759 -31.5759
    -8.1688  -8.1686  -8.1685  -8.1684   3.6429   3.6430   3.6432   3.6432
     6.5267   6.5268   6.5271   6.5272   7.0610   7.0612   7.0613   7.0614

          k =-0.4989-0.5011 0.0000 (  5192 PWs)   bands (ev):

   -64.8275 -64.8275 -64.8275 -64.8265 -31.6190 -31.6188 -31.6187 -31.6186
   -31.5973 -31.5971 -31.5971 -31.5968 -31.5762 -31.5760 -31.5759 -31.5759
    -8.2057  -8.2054  -8.2052  -8.2050   4.2930   4.2933   4.2934   4.2937
     5.7665   5.7670   5.7675   5.7679   7.0630   7.0633   7.0634   7.0637

          k =-0.4989-0.5011 0.2500 (  5140 PWs)   bands (ev):

   -64.8275 -64.8275 -64.8275 -64.8264 -31.6316 -31.6314 -31.6314 -31.6314
   -31.5832 -31.5830 -31.5830 -31.5828 -31.5753 -31.5752 -31.5750 -31.5750
    -8.1681  -8.1679  -8.1678  -8.1676   3.6400   3.6403   3.6404   3.6406
     6.5239   6.5242   6.5245   6.5248   7.0641   7.0643   7.0644   7.0646

          k =-0.4989-0.5011-0.5000 (  5152 PWs)   bands (ev):

   -64.8275 -64.8275 -64.8275 -64.8264 -31.6401 -31.6398 -31.6398 -31.6398
   -31.5767 -31.5765 -31.5764 -31.5763 -31.5740 -31.5738 -31.5737 -31.5736
    -8.1299  -8.1297  -8.1297  -8.1297   3.2173   3.2175   3.2175   3.2175
     7.0613   7.0614   7.0615   7.0616   7.0687   7.0688   7.0689   7.0690

          k =-0.2495 0.2505 0.0000 (  5159 PWs)   bands (ev):

   -64.8319 -64.8263 -64.8259 -64.8248 -31.6221 -31.6196 -31.6195 -31.6072
   -31.5942 -31.5940 -31.5930 -31.5878 -31.5878 -31.5857 -31.5754 -31.5684
    -8.9661  -8.0679  -8.0600  -7.8903   4.1595   4.1634   4.3286   5.0713
     5.8470   6.0453   6.0656   6.4812   6.4882   6.5835   7.1733   7.5055

          k =-0.2495 0.2505-0.2500 (  5151 PWs)   bands (ev):

   -64.8309 -64.8263 -64.8262 -64.8255 -31.6253 -31.6250 -31.6248 -31.6058
   -31.5938 -31.5937 -31.5934 -31.5849 -31.5838 -31.5829 -31.5722 -31.5702
    -8.7962  -8.0336  -8.0308  -8.0280   3.9994   4.0004   4.0014   5.0892
     5.8426   5.8457   5.8489   6.6992   6.7055   6.7116   7.3546   7.3559

          k =-0.2495 0.2505 0.5000 (  5132 PWs)   bands (ev):

   -64.8287 -64.8283 -64.8263 -64.8256 -31.6279 -31.6277 -31.6210 -31.6209
   -31.5931 -31.5928 -31.5804 -31.5803 -31.5787 -31.5785 -31.5768 -31.5766
    -8.3992  -8.3990  -7.9973  -7.9972   3.8214   3.8215   4.1979   4.1980
     5.8302   5.8303   6.7402   6.7404   6.8687   6.8688   7.0160   7.0161

     highest occupied level (ev):     7.6772

!    total energy              =    -608.39277254 Ry
     Harris-Foulkes estimate   =    -608.39277254 Ry
     estimated scf accuracy    <          1.1E-10 Ry

     The total energy is the sum of the following terms:

     one-electron contribution =    -303.56105649 Ry
     hartree contribution      =     168.06979689 Ry
     xc contribution           =     -97.84647804 Ry
     ewald contribution        =    -375.05503490 Ry

     convergence has been achieved in   5 iterations

     Forces acting on atoms (cartesian axes, Ry/au):

     atom    1 type  1   force =     0.00000297   -0.00003463    0.00000000
     atom    2 type  1   force =    -0.00005231   -0.00000999    0.00000000
     atom    3 type  1   force =     0.00004126    0.00002053    0.00000000
     atom    4 type  1   force =     0.00004163   -0.00000997    0.00000000
     atom    5 type  2   force =    -0.00011459   -0.00013381    0.00000000
     atom    6 type  2   force =     0.00010113    0.00014701    0.00000000
     atom    7 type  2   force =     0.00010127   -0.00013412    0.00000000
     atom    8 type  2   force =    -0.00012137    0.00015498    0.00000000

     Total force =     0.000371     Total SCF correction =     0.000126
     SCF correction compared to forces is large: reduce conv_thr to get better values


     Computing stress (Cartesian axis) and pressure

          total   stress  (Ry/bohr**3)                   (kbar)     P=  -68.20
  -0.00049004   0.00000000   0.00000000        -72.09      0.00      0.00
   0.00000000  -0.00043734   0.00000000          0.00    -64.33      0.00
   0.00000000   0.00000000  -0.00046356          0.00      0.00    -68.19


     number of scf cycles    =   4
     number of bfgs steps    =   3

     energy   old            =    -608.3927663972 Ry
     energy   new            =    -608.3927725423 Ry

     CASE: energy  _new < energy  _old

     new trust radius        =       0.0003609653 bohr
     new conv_thr            =            1.0E-10 Ry


ATOMIC_POSITIONS (alat)
Mg      -0.000481735   0.000491519   0.000000000
Mg      -0.000505181   0.499499337   0.500000000
Mg       0.500490322   0.000515580   0.500000000
Mg       0.500489823   0.499499596   0.000000000
O        0.500542370   0.000548075   0.000000000
O       -0.000538984   0.499449474   0.000000000
O       -0.000539515   0.000547887   0.500000000
O        0.500542900   0.499448532   0.500000000



     Writing output data file diamond.1.002143.70.4.save
     NEW-OLD atomic charge density approx. for the potential

     Check: negative/imaginary core charge=   -0.000007    0.000000

     total cpu time spent up to now is       35.9 secs

     per-process dynamical memory:    51.7 Mb

     Self-consistent Calculation

     iteration #  1     ecut=    70.00 Ry     beta=0.70
     Davidson diagonalization with overlap
     ethr =  1.00E-06,  avg # of iterations =  2.0

     Threshold (ethr) on eigenvalues was too large:
     Diagonalizing with lowered threshold

     Davidson diagonalization with overlap
     ethr =  9.08E-11,  avg # of iterations =  3.0

     total cpu time spent up to now is       38.8 secs

     total energy              =    -608.39277264 Ry
     Harris-Foulkes estimate   =    -608.39277274 Ry
     estimated scf accuracy    <       0.00000014 Ry

     iteration #  2     ecut=    70.00 Ry     beta=0.70
     Davidson diagonalization with overlap
     ethr =  2.13E-10,  avg # of iterations =  2.2

     total cpu time spent up to now is       40.0 secs

     total energy              =    -608.39277268 Ry
     Harris-Foulkes estimate   =    -608.39277270 Ry
     estimated scf accuracy    <       0.00000002 Ry

     iteration #  3     ecut=    70.00 Ry     beta=0.70
     Davidson diagonalization with overlap
     ethr =  3.70E-11,  avg # of iterations =  2.0

     total cpu time spent up to now is       41.2 secs

     total energy              =    -608.39277269 Ry
     Harris-Foulkes estimate   =    -608.39277269 Ry
     estimated scf accuracy    <          1.2E-10 Ry

     iteration #  4     ecut=    70.00 Ry     beta=0.70
     Davidson diagonalization with overlap
     ethr =  1.95E-13,  avg # of iterations =  2.9

     total cpu time spent up to now is       42.7 secs

     End of self-consistent calculation

          k = 0.0000 0.0000 0.0000 (  5145 PWs)   bands (ev):

   -64.8346 -64.8251 -64.8250 -64.8243 -31.6320 -31.6310 -31.6299 -31.5947
   -31.5942 -31.5939 -31.5929 -31.5926 -31.5921 -31.5657 -31.5637 -31.5623
    -9.3647  -7.9194  -7.9138  -7.9082   3.7511   3.7580   3.7651   6.3648
     6.3668   6.3781   6.3819   6.3934   6.3953   7.6674   7.6725   7.6772

          k = 0.0000 0.0000 0.2500 (  5165 PWs)   bands (ev):

   -64.8331 -64.8263 -64.8251 -64.8245 -31.6255 -31.6233 -31.6206 -31.6004
   -31.5970 -31.5944 -31.5936 -31.5905 -31.5874 -31.5782 -31.5726 -31.5703
    -9.1563  -8.1286  -7.8893  -7.8814   4.0418   4.0550   4.0953   5.8542
     5.8613   6.1601   6.1811   6.5310   6.5551   6.6589   7.4436   7.4568

          k = 0.0000 0.0000-0.5000 (  5110 PWs)   bands (ev):

   -64.8299 -64.8295 -64.8251 -64.8245 -31.6106 -31.6103 -31.6082 -31.6080
   -31.6019 -31.6019 -31.5907 -31.5907 -31.5816 -31.5814 -31.5796 -31.5793
    -8.6461  -8.6459  -7.8566  -7.8565   4.8426   4.8428   4.8531   4.8533
     5.1226   5.1229   5.9734   5.9737   6.9583   6.9585   6.9782   6.9783

          k = 0.0000 0.2505 0.0000 (  5157 PWs)   bands (ev):

   -64.8331 -64.8262 -64.8251 -64.8245 -31.6253 -31.6243 -31.6195 -31.5998
   -31.5977 -31.5925 -31.5920 -31.5904 -31.5895 -31.5770 -31.5727 -31.5715
    -9.1550  -8.1233  -7.8895  -7.8855   4.0433   4.0498   4.0990   5.8660
     5.8698   6.1570   6.1675   6.5292   6.5416   6.6544   7.4473   7.4539

          k = 0.0000 0.2505 0.2500 (  5157 PWs)   bands (ev):

   -64.8319 -64.8263 -64.8259 -64.8249 -31.6209 -31.6208 -31.6194 -31.6067
   -31.5956 -31.5952 -31.5925 -31.5869 -31.5866 -31.5854 -31.5765 -31.5677
    -8.9650  -8.0638  -8.0598  -7.8930   4.1601   4.1623   4.3236   5.0714
     5.8407   6.0532   6.0636   6.4750   6.4784   6.5905   7.1781   7.5047

          k = 0.0000 0.2505-0.5000 (  5146 PWs)   bands (ev):

   -64.8292 -64.8288 -64.8258 -64.8252 -31.6167 -31.6165 -31.6099 -31.6098
   -31.6079 -31.6077 -31.5861 -31.5859 -31.5830 -31.5829 -31.5744 -31.5742
    -8.5090  -8.5088  -7.9462  -7.9461   4.4153   4.4154   4.7460   4.7462
     5.0926   5.0928   6.5526   6.5528   6.5825   6.5826   7.0902   7.0903

          k = 0.0000-0.5011 0.0000 (  5110 PWs)   bands (ev):

   -64.8299 -64.8294 -64.8251 -64.8245 -31.6103 -31.6101 -31.6092 -31.6089
   -31.6008 -31.6008 -31.5899 -31.5898 -31.5818 -31.5816 -31.5808 -31.5806
    -8.6423  -8.6422  -7.8581  -7.8580   4.8484   4.8485   4.8536   4.8536
     5.1207   5.1210   5.9624   5.9628   6.9594   6.9596   6.9693   6.9694

          k = 0.0000-0.5011 0.2500 (  5146 PWs)   bands (ev):

   -64.8292 -64.8287 -64.8258 -64.8252 -31.6171 -31.6170 -31.6094 -31.6093
   -31.6079 -31.6076 -31.5865 -31.5862 -31.5824 -31.5823 -31.5748 -31.5747
    -8.5065  -8.5064  -7.9476  -7.9475   4.4152   4.4153   4.7444   4.7447
     5.0968   5.0969   6.5464   6.5466   6.5768   6.5769   7.0927   7.0927

          k = 0.0000-0.5011-0.5000 (  5196 PWs)   bands (ev):

   -64.8275 -64.8275 -64.8275 -64.8264 -31.6188 -31.6186 -31.6184 -31.6184
   -31.5986 -31.5984 -31.5984 -31.5981 -31.5755 -31.5753 -31.5752 -31.5751
    -8.2041  -8.2039  -8.2038  -8.2038   4.2851   4.2852   4.2852   4.2854
     5.7677   5.7678   5.7682   5.7682   7.0664   7.0666   7.0666   7.0668

          k = 0.2495 0.0000 0.0000 (  5165 PWs)   bands (ev):

   -64.8331 -64.8264 -64.8250 -64.8244 -31.6240 -31.6229 -31.6229 -31.5984
   -31.5971 -31.5952 -31.5948 -31.5887 -31.5870 -31.5808 -31.5716 -31.5704
    -9.1575  -8.1340  -7.8851  -7.8812   4.0473   4.0540   4.0908   5.8463
     5.8496   6.1738   6.1843   6.5444   6.5562   6.6627   7.4464   7.4531

          k = 0.2495 0.0000 0.2500 (  5159 PWs)   bands (ev):

   -64.8319 -64.8263 -64.8259 -64.8248 -31.6221 -31.6211 -31.6184 -31.6078
   -31.5934 -31.5926 -31.5925 -31.5888 -31.5878 -31.5868 -31.5742 -31.5691
    -8.9672  -8.0680  -8.0640  -7.8876   4.1608   4.1625   4.3334   5.0712
     5.8534   6.0478   6.0577   6.4910   6.4946   6.5764   7.1685   7.5064

          k = 0.2495 0.0000-0.5000 (  5150 PWs)   bands (ev):

   -64.8292 -64.8288 -64.8258 -64.8252 -31.6180 -31.6178 -31.6101 -31.6100
   -31.6057 -31.6054 -31.5842 -31.5842 -31.5837 -31.5835 -31.5765 -31.5763
    -8.5104  -8.5102  -7.9478  -7.9477   4.4214   4.4215   4.7562   4.7564
     5.0998   5.1001   6.5430   6.5432   6.5690   6.5691   7.0978   7.0979

          k = 0.2495 0.2505 0.0000 (  5159 PWs)   bands (ev):

   -64.8319 -64.8263 -64.8259 -64.8248 -31.6221 -31.6196 -31.6195 -31.6072
   -31.5942 -31.5940 -31.5930 -31.5878 -31.5878 -31.5857 -31.5754 -31.5684
    -8.9661  -8.0679  -8.0600  -7.8903   4.1595   4.1634   4.3286   5.0713
     5.8470   6.0453   6.0656   6.4812   6.4882   6.5835   7.1733   7.5055

          k = 0.2495 0.2505 0.2500 (  5151 PWs)   bands (ev):

   -64.8309 -64.8263 -64.8262 -64.8255 -31.6253 -31.6250 -31.6248 -31.6058
   -31.5938 -31.5937 -31.5934 -31.5849 -31.5838 -31.5829 -31.5722 -31.5702
    -8.7962  -8.0336  -8.0308  -8.0280   3.9994   4.0004   4.0014   5.0892
     5.8425   5.8457   5.8489   6.6992   6.7055   6.7116   7.3546   7.3559

          k = 0.2495 0.2505-0.5000 (  5132 PWs)   bands (ev):

   -64.8287 -64.8283 -64.8263 -64.8256 -31.6279 -31.6277 -31.6210 -31.6209
   -31.5931 -31.5928 -31.5804 -31.5803 -31.5787 -31.5785 -31.5768 -31.5766
    -8.3992  -8.3990  -7.9973  -7.9972   3.8214   3.8215   4.1979   4.1980
     5.8302   5.8303   6.7402   6.7404   6.8687   6.8688   7.0160   7.0161

          k = 0.2495-0.5011 0.0000 (  5150 PWs)   bands (ev):

   -64.8292 -64.8287 -64.8258 -64.8252 -31.6177 -31.6176 -31.6095 -31.6094
   -31.6067 -31.6065 -31.5855 -31.5852 -31.5829 -31.5828 -31.5761 -31.5759
    -8.5072  -8.5071  -7.9483  -7.9482   4.4183   4.4184   4.7495   4.7498
     5.1004   5.1005   6.5416   6.5418   6.5700   6.5701   7.0964   7.0964

          k = 0.2495-0.5011 0.2500 (  5136 PWs)   bands (ev):

   -64.8287 -64.8283 -64.8263 -64.8257 -31.6282 -31.6281 -31.6209 -31.6208
   -31.5936 -31.5934 -31.5798 -31.5797 -31.5788 -31.5786 -31.5769 -31.5768
    -8.3972  -8.3971  -7.9980  -7.9979   3.8209   3.8210   4.1945   4.1947
     5.8305   5.8306   6.7384   6.7386   6.8718   6.8720   7.0124   7.0125

          k = 0.2495-0.5011-0.5000 (  5132 PWs)   bands (ev):

   -64.8275 -64.8275 -64.8275 -64.8264 -31.6315 -31.6312 -31.6312 -31.6312
   -31.5838 -31.5836 -31.5835 -31.5834 -31.5746 -31.5744 -31.5742 -31.5742
    -8.1672  -8.1671  -8.1670  -8.1670   3.6375   3.6376   3.6377   3.6377
     6.5217   6.5217   6.5220   6.5220   7.0674   7.0675   7.0675   7.0677

          k =-0.4989 0.0000 0.0000 (  5110 PWs)   bands (ev):

   -64.8300 -64.8295 -64.8250 -64.8245 -31.6097 -31.6094 -31.6085 -31.6083
   -31.6030 -31.6030 -31.5916 -31.5915 -31.5804 -31.5801 -31.5793 -31.5791
    -8.6498  -8.6496  -7.8551  -7.8550   4.8420   4.8423   4.8474   4.8476
     5.1245   5.1248   5.9843   5.9846   6.9672   6.9672   6.9771   6.9772

          k =-0.4989 0.0000 0.2500 (  5150 PWs)   bands (ev):

   -64.8292 -64.8288 -64.8257 -64.8252 -31.6176 -31.6175 -31.6105 -31.6104
   -31.6059 -31.6056 -31.5850 -31.5850 -31.5836 -31.5833 -31.5756 -31.5754
    -8.5128  -8.5127  -7.9465  -7.9464   4.4214   4.4216   4.7578   4.7580
     5.0956   5.0958   6.5492   6.5494   6.5747   6.5748   7.0955   7.0956

          k =-0.4989 0.0000-0.5000 (  5200 PWs)   bands (ev):

   -64.8275 -64.8275 -64.8275 -64.8265 -31.6195 -31.6193 -31.6192 -31.6192
   -31.5955 -31.5953 -31.5953 -31.5951 -31.5777 -31.5775 -31.5774 -31.5774
    -8.2070  -8.2069  -8.2068  -8.2067   4.3013   4.3014   4.3014   4.3016
     5.7666   5.7668   5.7671   5.7672   7.0599   7.0600   7.0600   7.0602

          k =-0.4989 0.2505 0.0000 (  5146 PWs)   bands (ev):

   -64.8292 -64.8288 -64.8257 -64.8252 -31.6168 -31.6166 -31.6104 -31.6104
   -31.6070 -31.6068 -31.5846 -31.5844 -31.5843 -31.5843 -31.5746 -31.5745
    -8.5122  -8.5120  -7.9456  -7.9455   4.4186   4.4188   4.7527   4.7529
     5.0918   5.0921   6.5540   6.5543   6.5814   6.5816   7.0916   7.0917

          k =-0.4989 0.2505 0.2500 (  5134 PWs)   bands (ev):

   -64.8287 -64.8283 -64.8262 -64.8256 -31.6279 -31.6277 -31.6211 -31.6210
   -31.5923 -31.5920 -31.5816 -31.5815 -31.5784 -31.5783 -31.5768 -31.5766
    -8.4012  -8.4011  -7.9965  -7.9964   3.8219   3.8220   4.2012   4.2014
     5.8301   5.8301   6.7418   6.7420   6.8656   6.8657   7.0195   7.0196

          k =-0.4989 0.2505-0.5000 (  5136 PWs)   bands (ev):

   -64.8275 -64.8275 -64.8275 -64.8264 -31.6316 -31.6313 -31.6313 -31.6313
   -31.5821 -31.5819 -31.5819 -31.5817 -31.5762 -31.5760 -31.5759 -31.5759
    -8.1687  -8.1686  -8.1685  -8.1685   3.6430   3.6431   3.6431   3.6431
     6.5267   6.5268   6.5270   6.5271   7.0611   7.0612   7.0612   7.0614

          k =-0.4989-0.5011 0.0000 (  5192 PWs)   bands (ev):

   -64.8275 -64.8275 -64.8275 -64.8265 -31.6190 -31.6188 -31.6186 -31.6186
   -31.5973 -31.5971 -31.5971 -31.5968 -31.5762 -31.5760 -31.5759 -31.5759
    -8.2055  -8.2053  -8.2053  -8.2052   4.2932   4.2933   4.2933   4.2936
     5.7670   5.7671   5.7674   5.7675   7.0632   7.0633   7.0634   7.0636

          k =-0.4989-0.5011 0.2500 (  5140 PWs)   bands (ev):

   -64.8275 -64.8275 -64.8275 -64.8264 -31.6316 -31.6314 -31.6314 -31.6314
   -31.5832 -31.5830 -31.5830 -31.5828 -31.5753 -31.5752 -31.5750 -31.5750
    -8.1680  -8.1678  -8.1678  -8.1677   3.6402   3.6403   3.6404   3.6404
     6.5242   6.5242   6.5245   6.5245   7.0642   7.0643   7.0643   7.0645

          k =-0.4989-0.5011-0.5000 (  5152 PWs)   bands (ev):

   -64.8275 -64.8275 -64.8275 -64.8264 -31.6401 -31.6398 -31.6398 -31.6398
   -31.5767 -31.5765 -31.5764 -31.5763 -31.5740 -31.5738 -31.5737 -31.5736
    -8.1299  -8.1297  -8.1297  -8.1297   3.2173   3.2175   3.2175   3.2175
     7.0613   7.0614   7.0615   7.0616   7.0687   7.0688   7.0689   7.0690

          k =-0.2495 0.2505 0.0000 (  5159 PWs)   bands (ev):

   -64.8319 -64.8263 -64.8259 -64.8248 -31.6221 -31.6196 -31.6195 -31.6072
   -31.5942 -31.5940 -31.5930 -31.5878 -31.5878 -31.5857 -31.5754 -31.5684
    -8.9661  -8.0679  -8.0600  -7.8903   4.1595   4.1634   4.3286   5.0713
     5.8470   6.0453   6.0656   6.4812   6.4882   6.5835   7.1733   7.5055

          k =-0.2495 0.2505-0.2500 (  5151 PWs)   bands (ev):

   -64.8309 -64.8263 -64.8262 -64.8255 -31.6253 -31.6250 -31.6248 -31.6058
   -31.5938 -31.5937 -31.5934 -31.5849 -31.5838 -31.5829 -31.5722 -31.5702
    -8.7962  -8.0336  -8.0308  -8.0280   3.9994   4.0004   4.0014   5.0892
     5.8425   5.8457   5.8489   6.6992   6.7055   6.7116   7.3546   7.3559

          k =-0.2495 0.2505 0.5000 (  5132 PWs)   bands (ev):

   -64.8287 -64.8283 -64.8263 -64.8256 -31.6279 -31.6277 -31.6210 -31.6209
   -31.5931 -31.5928 -31.5804 -31.5803 -31.5787 -31.5785 -31.5768 -31.5766
    -8.3992  -8.3990  -7.9973  -7.9972   3.8214   3.8215   4.1979   4.1980
     5.8302   5.8303   6.7402   6.7404   6.8687   6.8688   7.0160   7.0161

     highest occupied level (ev):     7.6772

!    total energy              =    -608.39277269 Ry
     Harris-Foulkes estimate   =    -608.39277269 Ry
     estimated scf accuracy    <          3.0E-11 Ry

     The total energy is the sum of the following terms:

     one-electron contribution =    -303.56106739 Ry
     hartree contribution      =     168.06980374 Ry
     xc contribution           =     -97.84647893 Ry
     ewald contribution        =    -375.05503010 Ry

     convergence has been achieved in   4 iterations

     Forces acting on atoms (cartesian axes, Ry/au):

     atom    1 type  1   force =    -0.00002692    0.00000664    0.00000000
     atom    2 type  1   force =    -0.00007288   -0.00004240    0.00000000
     atom    3 type  1   force =     0.00006319    0.00005173    0.00000000
     atom    4 type  1   force =     0.00006347   -0.00004232    0.00000000
     atom    5 type  2   force =    -0.00003997   -0.00005125    0.00000000
     atom    6 type  2   force =     0.00003025    0.00006030    0.00000000
     atom    7 type  2   force =     0.00003034   -0.00005151    0.00000000
     atom    8 type  2   force =    -0.00004748    0.00006881    0.00000000

     Total force =     0.000199     Total SCF correction =     0.000036
     SCF correction compared to forces is large: reduce conv_thr to get better values


     Computing stress (Cartesian axis) and pressure

          total   stress  (Ry/bohr**3)                   (kbar)     P=  -68.20
  -0.00049004   0.00000000   0.00000000        -72.09      0.00      0.00
   0.00000000  -0.00043733   0.00000000          0.00    -64.33      0.00
   0.00000000   0.00000000  -0.00046356          0.00      0.00    -68.19


     bfgs converged in   5 scf cycles and   4 bfgs steps
     (criteria: energy <  1.0E-05 Ry, force <  1.0E-04 Ry/Bohr)

     End of BFGS Geometry Optimization

     Final energy   =    -608.3927726901 Ry
Begin final coordinates

ATOMIC_POSITIONS (alat)
Mg      -0.000481735   0.000491519   0.000000000
Mg      -0.000505181   0.499499337   0.500000000
Mg       0.500490322   0.000515580   0.500000000
Mg       0.500489823   0.499499596   0.000000000
O        0.500542370   0.000548075   0.000000000
O       -0.000538984   0.499449474   0.000000000
O       -0.000539515   0.000547887   0.500000000
O        0.500542900   0.499448532   0.500000000
End final coordinates



     Writing output data file diamond.1.002143.70.4.save
 
     init_run     :      0.53s CPU      0.55s WALL (       1 calls)
     electrons    :     38.09s CPU     39.04s WALL (       5 calls)
     update_pot   :      0.45s CPU      0.46s WALL (       4 calls)
     forces       :      0.83s CPU      0.83s WALL (       5 calls)
     stress       :      1.91s CPU      1.93s WALL (       5 calls)

     Called by init_run:
     wfcinit      :      0.42s CPU      0.44s WALL (       1 calls)
     potinit      :      0.05s CPU      0.05s WALL (       1 calls)

     Called by electrons:
     c_bands      :     33.15s CPU     33.98s WALL (      30 calls)
     sum_band     :      4.75s CPU      4.86s WALL (      30 calls)
     v_of_rho     :      0.16s CPU      0.16s WALL (      31 calls)
     mix_rho      :      0.02s CPU      0.02s WALL (      30 calls)

     Called by c_bands:
     init_us_2    :      0.51s CPU      0.53s WALL (    2130 calls)
     cegterg      :     30.87s CPU     31.64s WALL (     900 calls)

     Called by sum_band:

     Called by *egterg:
     h_psi        :     22.91s CPU     23.40s WALL (    2879 calls)
     g_psi        :      0.17s CPU      0.17s WALL (    1949 calls)
     cdiaghg      :      4.20s CPU      4.20s WALL (    2609 calls)

     Called by h_psi:
     h_psi:pot    :     22.82s CPU     23.28s WALL (    2879 calls)
     h_psi:calbec :      1.28s CPU      1.28s WALL (    2879 calls)
     vloc_psi     :     20.46s CPU     20.90s WALL (    2879 calls)
     add_vuspsi   :      1.08s CPU      1.08s WALL (    2879 calls)

     General routines
     calbec       :      1.70s CPU      1.70s WALL (    3629 calls)
     fft          :      0.13s CPU      0.13s WALL (     473 calls)
     fftw         :     23.12s CPU     22.88s WALL (  178880 calls)
     davcio       :      0.00s CPU      0.01s WALL (      30 calls)
 
     Parallel routines
     fft_scatter  :      6.02s CPU      5.90s WALL (  179353 calls)
 
     PWSCF        :    42.22s CPU        43.35s WALL

 
   This run was terminated on:  16:13:19  22Apr2018            

=------------------------------------------------------------------------------=
   JOB DONE.
=------------------------------------------------------------------------------=
