
     Program PWSCF v.6.1 (svn rev. 13369) starts on 22Apr2018 at 16:11:52 

     This program is part of the open-source Quantum ESPRESSO suite
     for quantum simulation of materials; please cite
         "P. Giannozzi et al., J. Phys.:Condens. Matter 21 395502 (2009);
          URL http://www.quantum-espresso.org", 
     in publications or presentations arising from this work. More details at
     http://www.quantum-espresso.org/quote

     Parallel version (MPI), running on     8 processors
     R & G space division:  proc/nbgrp/npool/nimage =       8
     Waiting for input...
     Reading input from standard input
Warning: card       &CELL ignored
Warning: card       CELL_DYNAMICS = 'BFGS' ignored
Warning: card       PRESS = 0.0D0 ignored
Warning: card       PRESS_CONV_THR = 0.01D0 ignored
Warning: card       / ignored

     Current dimensions of program PWSCF are:
     Max number of different atomic species (ntypx) = 10
     Max number of k-points (npk) =  40000
     Max angular momentum in pseudopotentials (lmaxx) =  3

     Subspace diagonalization in iterative solution of the eigenvalue problem:
     a serial algorithm will be used

 
     Parallelization info
     --------------------
     sticks:   dense  smooth     PW     G-vecs:    dense   smooth      PW
     Min         181     181     52                 5155     5155     818
     Max         182     182     53                 5157     5157     821
     Sum        1449    1449    421                41243    41243    6563
 


     bravais-lattice index     =            0
     lattice parameter (alat)  =       8.0448  a.u.
     unit-cell volume          =     520.6402 (a.u.)^3
     number of atoms/cell      =            8
     number of atomic types    =            2
     number of electrons       =        64.00
     number of Kohn-Sham states=           32
     kinetic-energy cutoff     =      70.0000  Ry
     charge density cutoff     =     280.0000  Ry
     convergence threshold     =      1.0E-08
     mixing beta               =       0.7000
     number of iterations used =            8  plain     mixing
     Exchange-correlation      = PBE ( 1  4  3  4 0 0)
     nstep                     =           50


     celldm(1)=   8.044750  celldm(2)=   0.000000  celldm(3)=   0.000000
     celldm(4)=   0.000000  celldm(5)=   0.000000  celldm(6)=   0.000000

     crystal axes: (cart. coord. in units of alat)
               a(1) = (   1.001429   0.000000   0.000000 )  
               a(2) = (   0.000000   0.998571   0.000000 )  
               a(3) = (   0.000000   0.000000   1.000002 )  

     reciprocal axes: (cart. coord. in units 2 pi/alat)
               b(1) = (  0.998573  0.000000  0.000000 )  
               b(2) = (  0.000000  1.001431  0.000000 )  
               b(3) = (  0.000000  0.000000  0.999998 )  


     PseudoPot. # 1 for Mg read from file:
     ../pseudo/Mg.pbe.UPF
     MD5 check sum: 4c04d8c6e0476e83eaecaf72fa8acc4d
     Pseudo is Norm-conserving, Zval = 10.0
     Generated using ONCVPSP code by D. R. Hamann
     Using radial grid of 1510 points,  4 beta functions with: 
                l(1) =   0
                l(2) =   0
                l(3) =   1
                l(4) =   1

     PseudoPot. # 2 for O  read from file:
     ../pseudo/O.pbe.UPF
     MD5 check sum: 3e3f909f7470e8921608ab6b1f57bbae
     Pseudo is Norm-conserving + core correction, Zval =  6.0
     Generated using ONCVPSP code by D. R. Hamann
     Using radial grid of  936 points,  5 beta functions with: 
                l(1) =   0
                l(2) =   0
                l(3) =   1
                l(4) =   1
                l(5) =   2

     atomic species   valence    mass     pseudopotential
        Mg            10.00    24.30500     Mg( 1.00)
        O              6.00    15.99940     O ( 1.00)

      2 Sym. Ops. (no inversion) found



   Cartesian axes

     site n.     atom                  positions (alat units)
         1           Mg  tau(   1) = (   0.0000000   0.0000000   0.0000000  )
         2           Mg  tau(   2) = (   0.0000000   0.5000000   0.5000000  )
         3           Mg  tau(   3) = (   0.5000000   0.0000000   0.5000000  )
         4           Mg  tau(   4) = (   0.5000000   0.5000000   0.0000000  )
         5           O   tau(   5) = (   0.5000000   0.0000000   0.0000000  )
         6           O   tau(   6) = (   0.0000000   0.5000000   0.0000000  )
         7           O   tau(   7) = (   0.0000000   0.0000000   0.5000000  )
         8           O   tau(   8) = (   0.5000000   0.5000000   0.5000000  )

     number of k points=    30
                       cart. coord. in units 2pi/alat
        k(    1) = (   0.0000000   0.0000000   0.0000000), wk =   0.0312500
        k(    2) = (   0.0000000   0.0000000   0.2499995), wk =   0.0625000
        k(    3) = (   0.0000000   0.0000000  -0.4999990), wk =   0.0312500
        k(    4) = (   0.0000000   0.2503578   0.0000000), wk =   0.0625000
        k(    5) = (   0.0000000   0.2503578   0.2499995), wk =   0.1250000
        k(    6) = (   0.0000000   0.2503578  -0.4999990), wk =   0.0625000
        k(    7) = (   0.0000000  -0.5007155   0.0000000), wk =   0.0312500
        k(    8) = (   0.0000000  -0.5007155   0.2499995), wk =   0.0625000
        k(    9) = (   0.0000000  -0.5007155  -0.4999990), wk =   0.0312500
        k(   10) = (   0.2496433   0.0000000   0.0000000), wk =   0.0625000
        k(   11) = (   0.2496433   0.0000000   0.2499995), wk =   0.1250000
        k(   12) = (   0.2496433   0.0000000  -0.4999990), wk =   0.0625000
        k(   13) = (   0.2496433   0.2503578   0.0000000), wk =   0.0625000
        k(   14) = (   0.2496433   0.2503578   0.2499995), wk =   0.1250000
        k(   15) = (   0.2496433   0.2503578  -0.4999990), wk =   0.0625000
        k(   16) = (   0.2496433  -0.5007155   0.0000000), wk =   0.0625000
        k(   17) = (   0.2496433  -0.5007155   0.2499995), wk =   0.1250000
        k(   18) = (   0.2496433  -0.5007155  -0.4999990), wk =   0.0625000
        k(   19) = (  -0.4992865   0.0000000   0.0000000), wk =   0.0312500
        k(   20) = (  -0.4992865   0.0000000   0.2499995), wk =   0.0625000
        k(   21) = (  -0.4992865   0.0000000  -0.4999990), wk =   0.0312500
        k(   22) = (  -0.4992865   0.2503578   0.0000000), wk =   0.0625000
        k(   23) = (  -0.4992865   0.2503578   0.2499995), wk =   0.1250000
        k(   24) = (  -0.4992865   0.2503578  -0.4999990), wk =   0.0625000
        k(   25) = (  -0.4992865  -0.5007155   0.0000000), wk =   0.0312500
        k(   26) = (  -0.4992865  -0.5007155   0.2499995), wk =   0.0625000
        k(   27) = (  -0.4992865  -0.5007155  -0.4999990), wk =   0.0312500
        k(   28) = (  -0.2496433   0.2503578   0.0000000), wk =   0.0625000
        k(   29) = (  -0.2496433   0.2503578  -0.2499995), wk =   0.1250000
        k(   30) = (  -0.2496433   0.2503578   0.4999990), wk =   0.0625000

     Dense  grid:    41243 G-vectors     FFT dimensions: (  45,  45,  45)

     Estimated max dynamical RAM per process >      15.33MB

     Estimated total allocated dynamical RAM >     122.66MB

     Check: negative/imaginary core charge=   -0.000007    0.000000

     Initial potential from superposition of free atoms

     starting charge   63.99678, renormalised to   64.00000
     Starting wfc are   36 randomized atomic wfcs

     total cpu time spent up to now is        0.7 secs

     per-process dynamical memory:    51.0 Mb

     Self-consistent Calculation

     iteration #  1     ecut=    70.00 Ry     beta=0.70
     Davidson diagonalization with overlap
     ethr =  1.00E-02,  avg # of iterations =  2.0

     total cpu time spent up to now is        1.9 secs

     total energy              =    -607.71977147 Ry
     Harris-Foulkes estimate   =    -608.84383186 Ry
     estimated scf accuracy    <       1.56187127 Ry

     iteration #  2     ecut=    70.00 Ry     beta=0.70
     Davidson diagonalization with overlap
     ethr =  2.44E-03,  avg # of iterations =  2.9

     total cpu time spent up to now is        3.3 secs

     total energy              =    -608.10574743 Ry
     Harris-Foulkes estimate   =    -608.80375349 Ry
     estimated scf accuracy    <       1.44919158 Ry

     iteration #  3     ecut=    70.00 Ry     beta=0.70
     Davidson diagonalization with overlap
     ethr =  2.26E-03,  avg # of iterations =  2.0

     total cpu time spent up to now is        4.6 secs

     total energy              =    -608.39135532 Ry
     Harris-Foulkes estimate   =    -608.39201414 Ry
     estimated scf accuracy    <       0.00675193 Ry

     iteration #  4     ecut=    70.00 Ry     beta=0.70
     Davidson diagonalization with overlap
     ethr =  1.05E-05,  avg # of iterations =  2.0

     total cpu time spent up to now is        5.8 secs

     total energy              =    -608.39283005 Ry
     Harris-Foulkes estimate   =    -608.39287430 Ry
     estimated scf accuracy    <       0.00011059 Ry

     iteration #  5     ecut=    70.00 Ry     beta=0.70
     Davidson diagonalization with overlap
     ethr =  1.73E-07,  avg # of iterations =  1.5

     total cpu time spent up to now is        6.8 secs

     total energy              =    -608.39283739 Ry
     Harris-Foulkes estimate   =    -608.39283590 Ry
     estimated scf accuracy    <       0.00001037 Ry

     iteration #  6     ecut=    70.00 Ry     beta=0.70
     Davidson diagonalization with overlap
     ethr =  1.62E-08,  avg # of iterations =  2.0

     total cpu time spent up to now is        8.3 secs

     total energy              =    -608.39283902 Ry
     Harris-Foulkes estimate   =    -608.39283942 Ry
     estimated scf accuracy    <       0.00000100 Ry

     iteration #  7     ecut=    70.00 Ry     beta=0.70
     Davidson diagonalization with overlap
     ethr =  1.57E-09,  avg # of iterations =  2.0

     total cpu time spent up to now is        9.4 secs

     total energy              =    -608.39283901 Ry
     Harris-Foulkes estimate   =    -608.39283910 Ry
     estimated scf accuracy    <       0.00000023 Ry

     iteration #  8     ecut=    70.00 Ry     beta=0.70
     Davidson diagonalization with overlap
     ethr =  3.60E-10,  avg # of iterations =  2.0

     total cpu time spent up to now is       10.7 secs

     total energy              =    -608.39283902 Ry
     Harris-Foulkes estimate   =    -608.39283904 Ry
     estimated scf accuracy    <       0.00000004 Ry

     iteration #  9     ecut=    70.00 Ry     beta=0.70
     Davidson diagonalization with overlap
     ethr =  6.15E-11,  avg # of iterations =  2.0

     total cpu time spent up to now is       12.1 secs

     End of self-consistent calculation

          k = 0.0000 0.0000 0.0000 (  5137 PWs)   bands (ev):

   -64.8342 -64.8248 -64.8247 -64.8240 -31.6314 -31.6307 -31.6300 -31.5940
   -31.5937 -31.5935 -31.5928 -31.5926 -31.5923 -31.5638 -31.5631 -31.5623
    -9.3647  -7.9175  -7.9138  -7.9101   3.7534   3.7580   3.7628   6.3698
     6.3712   6.3787   6.3813   6.3889   6.3901   7.6691   7.6725   7.6757

          k = 0.0000 0.0000 0.2500 (  5157 PWs)   bands (ev):

   -64.8328 -64.8260 -64.8248 -64.8241 -31.6249 -31.6234 -31.6201 -31.5989
   -31.5972 -31.5940 -31.5935 -31.5894 -31.5874 -31.5780 -31.5720 -31.5704
    -9.1563  -8.1287  -7.8880  -7.8827   4.0440   4.0527   4.0954   5.8559
     5.8602   6.1636   6.1775   6.5351   6.5510   6.6589   7.4458   7.4546

          k = 0.0000 0.0000-0.5000 (  5110 PWs)   bands (ev):

   -64.8296 -64.8291 -64.8248 -64.8242 -31.6100 -31.6097 -31.6084 -31.6082
   -31.6017 -31.6017 -31.5905 -31.5905 -31.5810 -31.5808 -31.5797 -31.5794
    -8.6461  -8.6460  -7.8566  -7.8565   4.8443   4.8444   4.8513   4.8515
     5.1226   5.1229   5.9733   5.9736   6.9617   6.9617   6.9749   6.9749

          k = 0.0000 0.2504 0.0000 (  5157 PWs)   bands (ev):

   -64.8328 -64.8260 -64.8248 -64.8242 -31.6248 -31.6241 -31.6195 -31.5986
   -31.5976 -31.5931 -31.5922 -31.5897 -31.5891 -31.5772 -31.5720 -31.5713
    -9.1555  -8.1251  -7.8881  -7.8855   4.0450   4.0493   4.0978   5.8638
     5.8659   6.1615   6.1685   6.5336   6.5419   6.6559   7.4483   7.4527

          k = 0.0000 0.2504 0.2500 (  5161 PWs)   bands (ev):

   -64.8316 -64.8260 -64.8256 -64.8246 -31.6211 -31.6200 -31.6194 -31.6066
   -31.5950 -31.5948 -31.5924 -31.5870 -31.5864 -31.5861 -31.5759 -31.5677
    -8.9654  -8.0639  -8.0612  -7.8921   4.1602   4.1622   4.3255   5.0713
     5.8428   6.0539   6.0607   6.4779   6.4805   6.5881   7.1765   7.5049

          k = 0.0000 0.2504-0.5000 (  5146 PWs)   bands (ev):

   -64.8289 -64.8285 -64.8255 -64.8249 -31.6166 -31.6165 -31.6097 -31.6097
   -31.6072 -31.6070 -31.5855 -31.5853 -31.5829 -31.5829 -31.5745 -31.5743
    -8.5093  -8.5092  -7.9465  -7.9464   4.4163   4.4164   4.7477   4.7479
     5.0938   5.0940   6.5508   6.5510   6.5804   6.5805   7.0915   7.0915

          k = 0.0000-0.5007 0.0000 (  5110 PWs)   bands (ev):

   -64.8296 -64.8291 -64.8248 -64.8242 -31.6099 -31.6094 -31.6091 -31.6087
   -31.6012 -31.6007 -31.5899 -31.5899 -31.5812 -31.5809 -31.5806 -31.5802
    -8.6474  -8.6396  -7.8576  -7.8575   4.8421   4.8456   4.8543   4.8578
     5.1191   5.1239   5.9660   5.9664   6.9587   6.9653   6.9661   6.9727

          k = 0.0000-0.5007 0.2500 (  5154 PWs)   bands (ev):

   -64.8289 -64.8284 -64.8255 -64.8249 -31.6171 -31.6168 -31.6097 -31.6095
   -31.6074 -31.6069 -31.5859 -31.5855 -31.5829 -31.5827 -31.5748 -31.5747
    -8.5110  -8.5041  -7.9480  -7.9467   4.4138   4.4186   4.7440   4.7494
     5.0907   5.1025   6.5445   6.5489   6.5723   6.5809   7.0920   7.0942

          k = 0.0000-0.5007-0.5000 (  5208 PWs)   bands (ev):

   -64.8272 -64.8272 -64.8272 -64.8261 -31.6189 -31.6187 -31.6185 -31.6185
   -31.5981 -31.5978 -31.5977 -31.5974 -31.5759 -31.5758 -31.5756 -31.5755
    -8.2066  -8.2065  -8.2023  -8.2022   4.2868   4.2869   4.2888   4.2890
     5.7623   5.7624   5.7729   5.7730   7.0635   7.0637   7.0671   7.0672

          k = 0.2496 0.0000 0.0000 (  5157 PWs)   bands (ev):

   -64.8328 -64.8260 -64.8247 -64.8241 -31.6242 -31.6235 -31.6207 -31.5984
   -31.5975 -31.5945 -31.5943 -31.5885 -31.5872 -31.5787 -31.5712 -31.5704
    -9.1571  -8.1322  -7.8852  -7.8826   4.0473   4.0518   4.0931   5.8502
     5.8524   6.1727   6.1797   6.5441   6.5517   6.6618   7.4477   7.4522

          k = 0.2496 0.0000 0.2500 (  5159 PWs)   bands (ev):

   -64.8316 -64.8260 -64.8256 -64.8245 -31.6216 -31.6209 -31.6185 -31.6073
   -31.5930 -31.5927 -31.5926 -31.5882 -31.5872 -31.5866 -31.5743 -31.5686
    -8.9669  -8.0667  -8.0640  -7.8885   4.1609   4.1621   4.3318   5.0712
     5.8512   6.0504   6.0570   6.4889   6.4912   6.5787   7.1701   7.5060

          k = 0.2496 0.0000-0.5000 (  5150 PWs)   bands (ev):

   -64.8289 -64.8285 -64.8255 -64.8249 -31.6175 -31.6174 -31.6098 -31.6098
   -31.6058 -31.6056 -31.5839 -31.5838 -31.5837 -31.5836 -31.5759 -31.5758
    -8.5102  -8.5101  -7.9476  -7.9475   4.4204   4.4205   4.7545   4.7547
     5.0986   5.0987   6.5444   6.5446   6.5714   6.5715   7.0965   7.0966

          k = 0.2496 0.2504 0.0000 (  5163 PWs)   bands (ev):

   -64.8316 -64.8260 -64.8256 -64.8245 -31.6216 -31.6199 -31.6193 -31.6069
   -31.5944 -31.5939 -31.5927 -31.5876 -31.5873 -31.5858 -31.5751 -31.5682
    -8.9662  -8.0666  -8.0613  -7.8903   4.1600   4.1628   4.3286   5.0713
     5.8470   6.0485   6.0622   6.4823   6.4869   6.5835   7.1733   7.5055

          k = 0.2496 0.2504 0.2500 (  5153 PWs)   bands (ev):

   -64.8306 -64.8260 -64.8260 -64.8251 -31.6250 -31.6248 -31.6246 -31.6056
   -31.5935 -31.5934 -31.5931 -31.5844 -31.5836 -31.5832 -31.5718 -31.5703
    -8.7963  -8.0327  -8.0308  -8.0289   3.9997   4.0004   4.0010   5.0891
     5.8436   5.8457   5.8478   6.7012   6.7054   6.7094   7.3548   7.3557

          k = 0.2496 0.2504-0.5000 (  5134 PWs)   bands (ev):

   -64.8284 -64.8280 -64.8260 -64.8253 -31.6276 -31.6274 -31.6208 -31.6207
   -31.5928 -31.5926 -31.5802 -31.5801 -31.5782 -31.5780 -31.5770 -31.5768
    -8.3992  -8.3991  -7.9973  -7.9972   3.8214   3.8215   4.1978   4.1980
     5.8302   5.8303   6.7401   6.7403   6.8687   6.8688   7.0159   7.0160

          k = 0.2496-0.5007 0.0000 (  5158 PWs)   bands (ev):

   -64.8289 -64.8284 -64.8255 -64.8249 -31.6175 -31.6172 -31.6098 -31.6095
   -31.6066 -31.6062 -31.5852 -31.5849 -31.5832 -31.5831 -31.5758 -31.5756
    -8.5114  -8.5046  -7.9486  -7.9472   4.4159   4.4207   4.7474   4.7528
     5.0931   5.1049   6.5414   6.5458   6.5676   6.5762   7.0945   7.0967

          k = 0.2496-0.5007 0.2500 (  5138 PWs)   bands (ev):

   -64.8284 -64.8280 -64.8260 -64.8253 -31.6280 -31.6278 -31.6207 -31.6206
   -31.5932 -31.5929 -31.5798 -31.5797 -31.5783 -31.5780 -31.5771 -31.5770
    -8.4008  -8.3949  -7.9978  -7.9976   3.8210   3.8211   4.1928   4.1985
     5.8304   5.8304   6.7389   6.7392   6.8696   6.8720   7.0109   7.0163

          k = 0.2496-0.5007-0.5000 (  5132 PWs)   bands (ev):

   -64.8272 -64.8272 -64.8271 -64.8261 -31.6312 -31.6310 -31.6309 -31.6309
   -31.5833 -31.5830 -31.5830 -31.5828 -31.5746 -31.5744 -31.5743 -31.5743
    -8.1690  -8.1689  -8.1659  -8.1658   3.6370   3.6371   3.6399   3.6400
     6.5196   6.5196   6.5257   6.5258   7.0651   7.0653   7.0676   7.0678

          k =-0.4993 0.0000 0.0000 (  5110 PWs)   bands (ev):

   -64.8296 -64.8292 -64.8247 -64.8242 -31.6095 -31.6090 -31.6087 -31.6082
   -31.6026 -31.6022 -31.5911 -31.5910 -31.5803 -31.5799 -31.5796 -31.5792
    -8.6524  -8.6446  -7.8556  -7.8555   4.8380   4.8416   4.8501   4.8536
     5.1217   5.1264   5.9806   5.9809   6.9639   6.9705   6.9713   6.9778

          k =-0.4993 0.0000 0.2500 (  5146 PWs)   bands (ev):

   -64.8289 -64.8285 -64.8254 -64.8248 -31.6174 -31.6171 -31.6102 -31.6099
   -31.6059 -31.6055 -31.5842 -31.5841 -31.5838 -31.5834 -31.5752 -31.5750
    -8.5152  -8.5083  -7.9473  -7.9459   4.4180   4.4228   4.7530   4.7583
     5.0901   5.1018   6.5465   6.5508   6.5710   6.5795   7.0939   7.0961

          k =-0.4993 0.0000-0.5000 (  5208 PWs)   bands (ev):

   -64.8272 -64.8272 -64.8272 -64.8261 -31.6193 -31.6191 -31.6189 -31.6189
   -31.5961 -31.5959 -31.5958 -31.5955 -31.5772 -31.5771 -31.5769 -31.5768
    -8.2086  -8.2085  -8.2043  -8.2042   4.2976   4.2977   4.2996   4.2997
     5.7616   5.7617   5.7721   5.7721   7.0592   7.0594   7.0628   7.0629

          k =-0.4993 0.2504 0.0000 (  5150 PWs)   bands (ev):

   -64.8289 -64.8285 -64.8254 -64.8248 -31.6170 -31.6167 -31.6101 -31.6098
   -31.6069 -31.6064 -31.5845 -31.5841 -31.5841 -31.5840 -31.5746 -31.5744
    -8.5147  -8.5079  -7.9468  -7.9454   4.4160   4.4208   4.7496   4.7549
     5.0875   5.0992   6.5498   6.5541   6.5753   6.5839   7.0914   7.0935

          k =-0.4993 0.2504 0.2500 (  5136 PWs)   bands (ev):

   -64.8284 -64.8280 -64.8259 -64.8253 -31.6276 -31.6275 -31.6209 -31.6208
   -31.5922 -31.5920 -31.5811 -31.5811 -31.5779 -31.5778 -31.5770 -31.5768
    -8.4034  -8.3976  -7.9968  -7.9967   3.8217   3.8218   4.1974   4.2029
     5.8301   5.8302   6.7412   6.7414   6.8655   6.8678   7.0156   7.0209

          k =-0.4993 0.2504-0.5000 (  5140 PWs)   bands (ev):

   -64.8272 -64.8272 -64.8272 -64.8261 -31.6314 -31.6311 -31.6311 -31.6311
   -31.5823 -31.5820 -31.5820 -31.5818 -31.5759 -31.5757 -31.5755 -31.5755
    -8.1700  -8.1699  -8.1669  -8.1668   3.6406   3.6407   3.6435   3.6436
     6.5229   6.5230   6.5290   6.5290   7.0609   7.0610   7.0634   7.0636

          k =-0.4993-0.5007 0.0000 (  5208 PWs)   bands (ev):

   -64.8272 -64.8272 -64.8271 -64.8261 -31.6190 -31.6188 -31.6186 -31.6185
   -31.5974 -31.5970 -31.5970 -31.5966 -31.5765 -31.5763 -31.5761 -31.5760
    -8.2097  -8.2054  -8.2054  -8.2011   4.2913   4.2933   4.2933   4.2953
     5.7565   5.7669   5.7672   5.7776   7.0597   7.0632   7.0633   7.0668

          k =-0.4993-0.5007 0.2500 (  5136 PWs)   bands (ev):

   -64.8272 -64.8272 -64.8271 -64.8261 -31.6314 -31.6311 -31.6311 -31.6311
   -31.5828 -31.5826 -31.5826 -31.5824 -31.5751 -31.5750 -31.5748 -31.5747
    -8.1710  -8.1679  -8.1678  -8.1648   3.6375   3.6403   3.6403   3.6432
     6.5182   6.5242   6.5244   6.5304   7.0618   7.0644   7.0644   7.0669

          k =-0.4993-0.5007-0.5000 (  5152 PWs)   bands (ev):

   -64.8272 -64.8272 -64.8272 -64.8261 -31.6398 -31.6395 -31.6395 -31.6395
   -31.5761 -31.5759 -31.5758 -31.5758 -31.5741 -31.5739 -31.5738 -31.5737
    -8.1300  -8.1298  -8.1298  -8.1297   3.2173   3.2174   3.2174   3.2175
     7.0625   7.0625   7.0626   7.0628   7.0675   7.0676   7.0677   7.0678

          k =-0.2496 0.2504 0.0000 (  5163 PWs)   bands (ev):

   -64.8316 -64.8260 -64.8256 -64.8245 -31.6216 -31.6199 -31.6193 -31.6069
   -31.5944 -31.5939 -31.5927 -31.5876 -31.5873 -31.5858 -31.5751 -31.5682
    -8.9662  -8.0666  -8.0613  -7.8903   4.1600   4.1628   4.3286   5.0713
     5.8470   6.0485   6.0622   6.4823   6.4869   6.5835   7.1733   7.5055

          k =-0.2496 0.2504-0.2500 (  5153 PWs)   bands (ev):

   -64.8306 -64.8260 -64.8260 -64.8251 -31.6250 -31.6248 -31.6246 -31.6056
   -31.5935 -31.5934 -31.5931 -31.5844 -31.5836 -31.5832 -31.5718 -31.5703
    -8.7963  -8.0327  -8.0308  -8.0289   3.9997   4.0004   4.0010   5.0891
     5.8436   5.8457   5.8478   6.7012   6.7054   6.7094   7.3548   7.3557

          k =-0.2496 0.2504 0.5000 (  5134 PWs)   bands (ev):

   -64.8284 -64.8280 -64.8260 -64.8253 -31.6276 -31.6274 -31.6208 -31.6207
   -31.5928 -31.5926 -31.5802 -31.5801 -31.5782 -31.5780 -31.5770 -31.5768
    -8.3992  -8.3991  -7.9973  -7.9972   3.8214   3.8215   4.1978   4.1980
     5.8302   5.8302   6.7401   6.7403   6.8687   6.8688   7.0159   7.0160

     highest occupied level (ev):     7.6757

!    total energy              =    -608.39283902 Ry
     Harris-Foulkes estimate   =    -608.39283902 Ry
     estimated scf accuracy    <          1.4E-09 Ry

     The total energy is the sum of the following terms:

     one-electron contribution =    -303.56292965 Ry
     hartree contribution      =     168.07073148 Ry
     xc contribution           =     -97.84648503 Ry
     ewald contribution        =    -375.05415583 Ry

     convergence has been achieved in   9 iterations

     Forces acting on atoms (cartesian axes, Ry/au):

     atom    1 type  1   force =    -0.00076617    0.00079388    0.00000000
     atom    2 type  1   force =    -0.00076722   -0.00077905    0.00000000
     atom    3 type  1   force =     0.00075174    0.00079430    0.00000000
     atom    4 type  1   force =     0.00075114   -0.00077807    0.00000000
     atom    5 type  2   force =     0.00088952    0.00090285    0.00000000
     atom    6 type  2   force =    -0.00087633   -0.00091620    0.00000000
     atom    7 type  2   force =    -0.00087599    0.00090244    0.00000000
     atom    8 type  2   force =     0.00089332   -0.00092016    0.00000000

     Total force =     0.003349     Total SCF correction =     0.000020


     Computing stress (Cartesian axis) and pressure

          total   stress  (Ry/bohr**3)                   (kbar)     P=  -68.05
  -0.00048074   0.00000000   0.00000000        -70.72      0.00      0.00
   0.00000000  -0.00044502   0.00000000          0.00    -65.46      0.00
   0.00000000   0.00000000  -0.00046201          0.00      0.00    -67.96


     BFGS Geometry Optimization

     number of scf cycles    =   1
     number of bfgs steps    =   0

     energy   new            =    -608.3928390221 Ry

     new trust radius        =       0.0012824610 bohr
     new conv_thr            =       0.0000000100 Ry


ATOMIC_POSITIONS (alat)
Mg      -0.000095238   0.000098683   0.000000000
Mg      -0.000095370   0.499903161   0.500000000
Mg       0.500093444   0.000098735   0.500000000
Mg       0.500093370   0.499903283   0.000000000
O        0.500110571   0.000112228   0.000000000
O       -0.000108932   0.499886113   0.000000000
O       -0.000108889   0.000112177   0.500000000
O        0.500111044   0.499885620   0.500000000



     Writing output data file diamond.1.001429.70.4.save
     NEW-OLD atomic charge density approx. for the potential

     Check: negative/imaginary core charge=   -0.000007    0.000000

     total cpu time spent up to now is       12.9 secs

     per-process dynamical memory:    55.6 Mb

     Self-consistent Calculation

     iteration #  1     ecut=    70.00 Ry     beta=0.70
     Davidson diagonalization with overlap
     ethr =  1.00E-06,  avg # of iterations =  2.6

     Threshold (ethr) on eigenvalues was too large:
     Diagonalizing with lowered threshold

     Davidson diagonalization with overlap
     ethr =  2.90E-09,  avg # of iterations =  2.0

     total cpu time spent up to now is       15.7 secs

     total energy              =    -608.39284783 Ry
     Harris-Foulkes estimate   =    -608.39284936 Ry
     estimated scf accuracy    <       0.00000209 Ry

     iteration #  2     ecut=    70.00 Ry     beta=0.70
     Davidson diagonalization with overlap
     ethr =  3.26E-09,  avg # of iterations =  2.3

     total cpu time spent up to now is       16.9 secs

     total energy              =    -608.39284846 Ry
     Harris-Foulkes estimate   =    -608.39284868 Ry
     estimated scf accuracy    <       0.00000036 Ry

     iteration #  3     ecut=    70.00 Ry     beta=0.70
     Davidson diagonalization with overlap
     ethr =  5.69E-10,  avg # of iterations =  2.0

     total cpu time spent up to now is       18.1 secs

     End of self-consistent calculation

          k = 0.0000 0.0000 0.0000 (  5137 PWs)   bands (ev):

   -64.8345 -64.8250 -64.8250 -64.8242 -31.6316 -31.6309 -31.6302 -31.5942
   -31.5939 -31.5937 -31.5930 -31.5928 -31.5925 -31.5640 -31.5633 -31.5625
    -9.3647  -7.9175  -7.9137  -7.9100   3.7534   3.7581   3.7628   6.3699
     6.3712   6.3788   6.3813   6.3890   6.3902   7.6692   7.6725   7.6758

          k = 0.0000 0.0000 0.2500 (  5157 PWs)   bands (ev):

   -64.8330 -64.8262 -64.8250 -64.8244 -31.6250 -31.6236 -31.6203 -31.5991
   -31.5974 -31.5942 -31.5937 -31.5895 -31.5876 -31.5781 -31.5722 -31.5706
    -9.1562  -8.1286  -7.8879  -7.8826   4.0440   4.0528   4.0955   5.8560
     5.8603   6.1637   6.1776   6.5351   6.5511   6.6589   7.4458   7.4547

          k = 0.0000 0.0000-0.5000 (  5110 PWs)   bands (ev):

   -64.8298 -64.8294 -64.8250 -64.8244 -31.6101 -31.6099 -31.6086 -31.6084
   -31.6019 -31.6019 -31.5907 -31.5906 -31.5812 -31.5810 -31.5799 -31.5796
    -8.6460  -8.6459  -7.8565  -7.8564   4.8444   4.8445   4.8514   4.8515
     5.1227   5.1230   5.9734   5.9737   6.9617   6.9618   6.9749   6.9750

          k = 0.0000 0.2504 0.0000 (  5157 PWs)   bands (ev):

   -64.8330 -64.8262 -64.8250 -64.8244 -31.6250 -31.6243 -31.6197 -31.5988
   -31.5978 -31.5933 -31.5924 -31.5899 -31.5893 -31.5774 -31.5722 -31.5715
    -9.1554  -8.1250  -7.8880  -7.8854   4.0450   4.0493   4.0978   5.8638
     5.8659   6.1616   6.1686   6.5337   6.5420   6.6560   7.4483   7.4527

          k = 0.0000 0.2504 0.2500 (  5161 PWs)   bands (ev):

   -64.8318 -64.8262 -64.8258 -64.8248 -31.6213 -31.6202 -31.6196 -31.6067
   -31.5952 -31.5950 -31.5926 -31.5872 -31.5866 -31.5863 -31.5761 -31.5679
    -8.9654  -8.0638  -8.0611  -7.8921   4.1602   4.1622   4.3255   5.0714
     5.8429   6.0539   6.0607   6.4780   6.4805   6.5882   7.1765   7.5050

          k = 0.0000 0.2504-0.5000 (  5146 PWs)   bands (ev):

   -64.8291 -64.8287 -64.8257 -64.8251 -31.6168 -31.6167 -31.6099 -31.6098
   -31.6074 -31.6072 -31.5857 -31.5855 -31.5831 -31.5831 -31.5747 -31.5745
    -8.5092  -8.5091  -7.9465  -7.9463   4.4163   4.4164   4.7477   4.7479
     5.0939   5.0940   6.5509   6.5512   6.5804   6.5805   7.0915   7.0916

          k = 0.0000-0.5007 0.0000 (  5110 PWs)   bands (ev):

   -64.8298 -64.8294 -64.8250 -64.8244 -31.6100 -31.6097 -31.6093 -31.6089
   -31.6013 -31.6010 -31.5901 -31.5901 -31.5814 -31.5811 -31.5807 -31.5804
    -8.6461  -8.6408  -7.8575  -7.8575   4.8441   4.8475   4.8525   4.8560
     5.1199   5.1232   5.9661   5.9664   6.9599   6.9650   6.9665   6.9716

          k = 0.0000-0.5007 0.2500 (  5154 PWs)   bands (ev):

   -64.8291 -64.8287 -64.8257 -64.8251 -31.6172 -31.6170 -31.6099 -31.6097
   -31.6075 -31.6072 -31.5860 -31.5857 -31.5830 -31.5829 -31.5750 -31.5749
    -8.5099  -8.5051  -7.9478  -7.9468   4.4146   4.4180   4.7449   4.7486
     5.0926   5.1008   6.5453   6.5483   6.5736   6.5795   7.0924   7.0940

          k = 0.0000-0.5007-0.5000 (  5208 PWs)   bands (ev):

   -64.8274 -64.8274 -64.8274 -64.8264 -31.6190 -31.6189 -31.6187 -31.6187
   -31.5982 -31.5980 -31.5979 -31.5977 -31.5761 -31.5759 -31.5758 -31.5757
    -8.2059  -8.2058  -8.2029  -8.2028   4.2871   4.2873   4.2885   4.2887
     5.7640   5.7641   5.7713   5.7714   7.0641   7.0643   7.0666   7.0668

          k = 0.2496 0.0000 0.0000 (  5157 PWs)   bands (ev):

   -64.8331 -64.8263 -64.8250 -64.8243 -31.6244 -31.6237 -31.6209 -31.5986
   -31.5977 -31.5947 -31.5945 -31.5887 -31.5873 -31.5789 -31.5714 -31.5706
    -9.1570  -8.1321  -7.8852  -7.8825   4.0474   4.0518   4.0931   5.8503
     5.8525   6.1728   6.1797   6.5441   6.5518   6.6618   7.4478   7.4522

          k = 0.2496 0.0000 0.2500 (  5159 PWs)   bands (ev):

   -64.8318 -64.8262 -64.8258 -64.8247 -31.6217 -31.6211 -31.6187 -31.6075
   -31.5932 -31.5929 -31.5928 -31.5884 -31.5874 -31.5868 -31.5745 -31.5688
    -8.9668  -8.0666  -8.0640  -7.8885   4.1610   4.1621   4.3318   5.0712
     5.8513   6.0505   6.0570   6.4889   6.4913   6.5788   7.1701   7.5061

          k = 0.2496 0.0000-0.5000 (  5150 PWs)   bands (ev):

   -64.8291 -64.8287 -64.8257 -64.8251 -31.6177 -31.6176 -31.6100 -31.6099
   -31.6060 -31.6058 -31.5841 -31.5840 -31.5839 -31.5838 -31.5761 -31.5760
    -8.5101  -8.5100  -7.9475  -7.9474   4.4204   4.4205   4.7545   4.7547
     5.0987   5.0988   6.5445   6.5448   6.5714   6.5714   7.0966   7.0966

          k = 0.2496 0.2504 0.0000 (  5163 PWs)   bands (ev):

   -64.8318 -64.8262 -64.8258 -64.8248 -31.6218 -31.6201 -31.6195 -31.6071
   -31.5946 -31.5940 -31.5929 -31.5878 -31.5875 -31.5860 -31.5753 -31.5683
    -8.9661  -8.0665  -8.0612  -7.8903   4.1600   4.1628   4.3286   5.0713
     5.8471   6.0485   6.0622   6.4824   6.4870   6.5835   7.1733   7.5055

          k = 0.2496 0.2504 0.2500 (  5153 PWs)   bands (ev):

   -64.8308 -64.8262 -64.8262 -64.8254 -31.6252 -31.6249 -31.6248 -31.6058
   -31.5937 -31.5936 -31.5933 -31.5846 -31.5838 -31.5834 -31.5720 -31.5705
    -8.7962  -8.0326  -8.0307  -8.0289   3.9998   4.0004   4.0011   5.0892
     5.8437   5.8457   5.8478   6.7013   6.7055   6.7095   7.3549   7.3558

          k = 0.2496 0.2504-0.5000 (  5134 PWs)   bands (ev):

   -64.8286 -64.8282 -64.8262 -64.8256 -31.6278 -31.6276 -31.6210 -31.6209
   -31.5930 -31.5928 -31.5804 -31.5803 -31.5784 -31.5782 -31.5771 -31.5770
    -8.3992  -8.3990  -7.9972  -7.9971   3.8215   3.8215   4.1979   4.1980
     5.8303   5.8303   6.7402   6.7404   6.8687   6.8689   7.0160   7.0160

          k = 0.2496-0.5007 0.0000 (  5158 PWs)   bands (ev):

   -64.8291 -64.8287 -64.8257 -64.8251 -31.6176 -31.6174 -31.6099 -31.6097
   -31.6068 -31.6064 -31.5854 -31.5851 -31.5834 -31.5833 -31.5760 -31.5758
    -8.5103  -8.5056  -7.9483  -7.9473   4.4167   4.4200   4.7483   4.7520
     5.0950   5.1032   6.5422   6.5452   6.5690   6.5750   7.0949   7.0964

          k = 0.2496-0.5007 0.2500 (  5138 PWs)   bands (ev):

   -64.8286 -64.8282 -64.8262 -64.8256 -31.6282 -31.6280 -31.6209 -31.6208
   -31.5933 -31.5931 -31.5800 -31.5799 -31.5785 -31.5782 -31.5773 -31.5772
    -8.3998  -8.3957  -7.9977  -7.9976   3.8211   3.8212   4.1938   4.1976
     5.8304   5.8305   6.7390   6.7392   6.8700   6.8717   7.0118   7.0155

          k = 0.2496-0.5007-0.5000 (  5132 PWs)   bands (ev):

   -64.8274 -64.8274 -64.8274 -64.8264 -31.6314 -31.6312 -31.6311 -31.6311
   -31.5834 -31.5832 -31.5832 -31.5830 -31.5748 -31.5746 -31.5745 -31.5745
    -8.1684  -8.1683  -8.1663  -8.1662   3.6375   3.6376   3.6395   3.6396
     6.5206   6.5206   6.5248   6.5249   7.0656   7.0658   7.0673   7.0675

          k =-0.4993 0.0000 0.0000 (  5110 PWs)   bands (ev):

   -64.8299 -64.8294 -64.8250 -64.8244 -31.6096 -31.6092 -31.6088 -31.6085
   -31.6028 -31.6024 -31.5913 -31.5912 -31.5804 -31.5801 -31.5797 -31.5794
    -8.6511  -8.6457  -7.8555  -7.8554   4.8399   4.8434   4.8484   4.8519
     5.1225   5.1257   5.9807   5.9810   6.9650   6.9702   6.9717   6.9768

          k =-0.4993 0.0000 0.2500 (  5146 PWs)   bands (ev):

   -64.8291 -64.8287 -64.8257 -64.8251 -31.6175 -31.6173 -31.6103 -31.6101
   -31.6061 -31.6057 -31.5844 -31.5843 -31.5839 -31.5836 -31.5754 -31.5752
    -8.5141  -8.5093  -7.9470  -7.9461   4.4188   4.4222   4.7538   4.7575
     5.0919   5.1001   6.5473   6.5503   6.5722   6.5782   7.0943   7.0958

          k =-0.4993 0.0000-0.5000 (  5208 PWs)   bands (ev):

   -64.8274 -64.8274 -64.8274 -64.8264 -31.6195 -31.6193 -31.6191 -31.6191
   -31.5963 -31.5961 -31.5960 -31.5957 -31.5774 -31.5772 -31.5771 -31.5771
    -8.2079  -8.2078  -8.2049  -8.2047   4.2980   4.2981   4.2993   4.2995
     5.7632   5.7633   5.7705   5.7707   7.0598   7.0600   7.0623   7.0625

          k =-0.4993 0.2504 0.0000 (  5150 PWs)   bands (ev):

   -64.8291 -64.8287 -64.8257 -64.8251 -31.6172 -31.6169 -31.6103 -31.6101
   -31.6070 -31.6067 -31.5847 -31.5844 -31.5843 -31.5842 -31.5748 -31.5746
    -8.5136  -8.5088  -7.9465  -7.9456   4.4168   4.4202   4.7505   4.7541
     5.0893   5.0975   6.5505   6.5535   6.5766   6.5826   7.0917   7.0933

          k =-0.4993 0.2504 0.2500 (  5136 PWs)   bands (ev):

   -64.8286 -64.8282 -64.8262 -64.8255 -31.6278 -31.6277 -31.6211 -31.6210
   -31.5924 -31.5922 -31.5813 -31.5812 -31.5781 -31.5780 -31.5772 -31.5770
    -8.4025  -8.3984  -7.9967  -7.9967   3.8218   3.8219   4.1983   4.2021
     5.8302   5.8302   6.7412   6.7415   6.8659   6.8675   7.0165   7.0202

          k =-0.4993 0.2504-0.5000 (  5140 PWs)   bands (ev):

   -64.8274 -64.8274 -64.8274 -64.8264 -31.6316 -31.6313 -31.6313 -31.6313
   -31.5825 -31.5822 -31.5822 -31.5820 -31.5760 -31.5759 -31.5757 -31.5757
    -8.1695  -8.1693  -8.1673  -8.1672   3.6411   3.6412   3.6431   3.6432
     6.5239   6.5239   6.5281   6.5282   7.0613   7.0615   7.0631   7.0633

          k =-0.4993-0.5007 0.0000 (  5208 PWs)   bands (ev):

   -64.8274 -64.8274 -64.8274 -64.8264 -31.6192 -31.6190 -31.6188 -31.6188
   -31.5975 -31.5972 -31.5972 -31.5969 -31.5767 -31.5765 -31.5763 -31.5762
    -8.2083  -8.2054  -8.2053  -8.2023   4.2920   4.2933   4.2934   4.2947
     5.7598   5.7669   5.7673   5.7745   7.0608   7.0633   7.0633   7.0658

          k =-0.4993-0.5007 0.2500 (  5136 PWs)   bands (ev):

   -64.8274 -64.8274 -64.8274 -64.8264 -31.6316 -31.6313 -31.6313 -31.6313
   -31.5830 -31.5828 -31.5827 -31.5826 -31.5753 -31.5751 -31.5750 -31.5749
    -8.1700  -8.1679  -8.1677  -8.1657   3.6384   3.6403   3.6404   3.6423
     6.5201   6.5243   6.5245   6.5286   7.0627   7.0644   7.0645   7.0662

          k =-0.4993-0.5007-0.5000 (  5152 PWs)   bands (ev):

   -64.8274 -64.8274 -64.8274 -64.8263 -31.6400 -31.6397 -31.6397 -31.6397
   -31.5763 -31.5761 -31.5760 -31.5759 -31.5743 -31.5740 -31.5740 -31.5739
    -8.1298  -8.1297  -8.1297  -8.1296   3.2173   3.2175   3.2175   3.2175
     7.0625   7.0627   7.0628   7.0628   7.0676   7.0677   7.0678   7.0678

          k =-0.2496 0.2504 0.0000 (  5163 PWs)   bands (ev):

   -64.8318 -64.8262 -64.8258 -64.8248 -31.6218 -31.6201 -31.6195 -31.6071
   -31.5946 -31.5940 -31.5929 -31.5878 -31.5875 -31.5860 -31.5753 -31.5683
    -8.9661  -8.0665  -8.0612  -7.8903   4.1600   4.1628   4.3286   5.0713
     5.8471   6.0485   6.0622   6.4824   6.4870   6.5835   7.1733   7.5055

          k =-0.2496 0.2504-0.2500 (  5153 PWs)   bands (ev):

   -64.8308 -64.8262 -64.8262 -64.8254 -31.6252 -31.6249 -31.6248 -31.6058
   -31.5937 -31.5936 -31.5933 -31.5846 -31.5838 -31.5834 -31.5720 -31.5705
    -8.7962  -8.0326  -8.0307  -8.0289   3.9998   4.0004   4.0011   5.0892
     5.8437   5.8457   5.8478   6.7013   6.7055   6.7095   7.3549   7.3558

          k =-0.2496 0.2504 0.5000 (  5134 PWs)   bands (ev):

   -64.8286 -64.8282 -64.8262 -64.8256 -31.6278 -31.6276 -31.6210 -31.6209
   -31.5930 -31.5928 -31.5804 -31.5803 -31.5784 -31.5782 -31.5771 -31.5770
    -8.3992  -8.3990  -7.9972  -7.9971   3.8215   3.8215   4.1979   4.1980
     5.8303   5.8303   6.7402   6.7404   6.8687   6.8689   7.0160   7.0160

     highest occupied level (ev):     7.6758

!    total energy              =    -608.39284854 Ry
     Harris-Foulkes estimate   =    -608.39284854 Ry
     estimated scf accuracy    <          2.4E-09 Ry

     The total energy is the sum of the following terms:

     one-electron contribution =    -303.56132613 Ry
     hartree contribution      =     168.06996652 Ry
     xc contribution           =     -97.84646760 Ry
     ewald contribution        =    -375.05502133 Ry

     convergence has been achieved in   3 iterations

     Forces acting on atoms (cartesian axes, Ry/au):

     atom    1 type  1   force =    -0.00047140    0.00048200    0.00000000
     atom    2 type  1   force =    -0.00048622   -0.00048279    0.00000000
     atom    3 type  1   force =     0.00047272    0.00049759    0.00000000
     atom    4 type  1   force =     0.00047276   -0.00048330    0.00000000
     atom    5 type  2   force =     0.00061614    0.00062145    0.00000000
     atom    6 type  2   force =    -0.00061202   -0.00062759    0.00000000
     atom    7 type  2   force =    -0.00061137    0.00062210    0.00000000
     atom    8 type  2   force =     0.00061939   -0.00062946    0.00000000

     Total force =     0.002220     Total SCF correction =     0.000181


     Computing stress (Cartesian axis) and pressure

          total   stress  (Ry/bohr**3)                   (kbar)     P=  -68.01
  -0.00048051   0.00000000   0.00000000        -70.69      0.00      0.00
   0.00000000  -0.00044479   0.00000000          0.00    -65.43      0.00
   0.00000000   0.00000000  -0.00046170          0.00      0.00    -67.92


     number of scf cycles    =   2
     number of bfgs steps    =   1

     energy   old            =    -608.3928390221 Ry
     energy   new            =    -608.3928485408 Ry

     CASE: energy  _new < energy  _old

     new trust radius        =       0.0014107071 bohr
     new conv_thr            =            1.0E-10 Ry


ATOMIC_POSITIONS (alat)
Mg      -0.000188901   0.000194461   0.000000000
Mg      -0.000191962   0.499807238   0.500000000
Mg       0.500187357   0.000197593   0.500000000
Mg       0.500187291   0.499807260   0.000000000
O        0.500232915   0.000235630   0.000000000
O       -0.000230452   0.499761487   0.000000000
O       -0.000230282   0.000235707   0.500000000
O        0.500234032   0.499760624   0.500000000



     Writing output data file diamond.1.001429.70.4.save
     NEW-OLD atomic charge density approx. for the potential

     Check: negative/imaginary core charge=   -0.000007    0.000000

     total cpu time spent up to now is       18.8 secs

     per-process dynamical memory:    55.6 Mb

     Self-consistent Calculation

     iteration #  1     ecut=    70.00 Ry     beta=0.70
     Davidson diagonalization with overlap
     ethr =  1.00E-06,  avg # of iterations =  2.8

     Threshold (ethr) on eigenvalues was too large:
     Diagonalizing with lowered threshold

     Davidson diagonalization with overlap
     ethr =  3.52E-09,  avg # of iterations =  2.0

     total cpu time spent up to now is       21.6 secs

     total energy              =    -608.39285406 Ry
     Harris-Foulkes estimate   =    -608.39285588 Ry
     estimated scf accuracy    <       0.00000247 Ry

     iteration #  2     ecut=    70.00 Ry     beta=0.70
     Davidson diagonalization with overlap
     ethr =  3.86E-09,  avg # of iterations =  2.2

     total cpu time spent up to now is       22.9 secs

     total energy              =    -608.39285482 Ry
     Harris-Foulkes estimate   =    -608.39285507 Ry
     estimated scf accuracy    <       0.00000043 Ry

     iteration #  3     ecut=    70.00 Ry     beta=0.70
     Davidson diagonalization with overlap
     ethr =  6.68E-10,  avg # of iterations =  2.0

     total cpu time spent up to now is       24.0 secs

     total energy              =    -608.39285491 Ry
     Harris-Foulkes estimate   =    -608.39285491 Ry
     estimated scf accuracy    <          2.7E-09 Ry

     iteration #  4     ecut=    70.00 Ry     beta=0.70
     Davidson diagonalization with overlap
     ethr =  4.14E-12,  avg # of iterations =  2.7

     total cpu time spent up to now is       25.5 secs

     total energy              =    -608.39285491 Ry
     Harris-Foulkes estimate   =    -608.39285491 Ry
     estimated scf accuracy    <          5.7E-10 Ry

     iteration #  5     ecut=    70.00 Ry     beta=0.70
     Davidson diagonalization with overlap
     ethr =  8.87E-13,  avg # of iterations =  2.8

     total cpu time spent up to now is       26.8 secs

     End of self-consistent calculation

          k = 0.0000 0.0000 0.0000 (  5137 PWs)   bands (ev):

   -64.8345 -64.8250 -64.8250 -64.8242 -31.6316 -31.6309 -31.6302 -31.5942
   -31.5939 -31.5937 -31.5930 -31.5928 -31.5925 -31.5640 -31.5633 -31.5625
    -9.3647  -7.9175  -7.9137  -7.9100   3.7534   3.7581   3.7628   6.3699
     6.3712   6.3788   6.3813   6.3890   6.3902   7.6692   7.6725   7.6758

          k = 0.0000 0.0000 0.2500 (  5157 PWs)   bands (ev):

   -64.8330 -64.8262 -64.8250 -64.8244 -31.6250 -31.6236 -31.6203 -31.5991
   -31.5974 -31.5941 -31.5937 -31.5895 -31.5876 -31.5781 -31.5722 -31.5706
    -9.1562  -8.1286  -7.8880  -7.8826   4.0440   4.0528   4.0955   5.8560
     5.8602   6.1637   6.1776   6.5351   6.5510   6.6589   7.4458   7.4547

          k = 0.0000 0.0000-0.5000 (  5110 PWs)   bands (ev):

   -64.8298 -64.8294 -64.8250 -64.8244 -31.6101 -31.6099 -31.6086 -31.6083
   -31.6019 -31.6019 -31.5907 -31.5906 -31.5812 -31.5810 -31.5799 -31.5796
    -8.6460  -8.6459  -7.8565  -7.8565   4.8444   4.8445   4.8514   4.8515
     5.1227   5.1229   5.9734   5.9737   6.9617   6.9618   6.9749   6.9750

          k = 0.0000 0.2504 0.0000 (  5157 PWs)   bands (ev):

   -64.8330 -64.8262 -64.8250 -64.8244 -31.6250 -31.6243 -31.6197 -31.5988
   -31.5978 -31.5933 -31.5924 -31.5899 -31.5893 -31.5774 -31.5722 -31.5715
    -9.1554  -8.1251  -7.8881  -7.8854   4.0450   4.0493   4.0978   5.8638
     5.8659   6.1616   6.1686   6.5337   6.5420   6.6559   7.4483   7.4527

          k = 0.0000 0.2504 0.2500 (  5161 PWs)   bands (ev):

   -64.8318 -64.8262 -64.8258 -64.8248 -31.6213 -31.6201 -31.6195 -31.6067
   -31.5952 -31.5950 -31.5926 -31.5872 -31.5866 -31.5863 -31.5761 -31.5679
    -8.9654  -8.0638  -8.0612  -7.8921   4.1602   4.1622   4.3255   5.0714
     5.8429   6.0539   6.0607   6.4780   6.4805   6.5882   7.1765   7.5050

          k = 0.0000 0.2504-0.5000 (  5146 PWs)   bands (ev):

   -64.8291 -64.8287 -64.8257 -64.8251 -31.6168 -31.6167 -31.6099 -31.6098
   -31.6075 -31.6072 -31.5857 -31.5855 -31.5831 -31.5831 -31.5747 -31.5745
    -8.5092  -8.5091  -7.9465  -7.9464   4.4163   4.4164   4.7477   4.7479
     5.0939   5.0940   6.5510   6.5512   6.5803   6.5804   7.0915   7.0916

          k = 0.0000-0.5007 0.0000 (  5110 PWs)   bands (ev):

   -64.8298 -64.8293 -64.8250 -64.8244 -31.6100 -31.6097 -31.6092 -31.6089
   -31.6012 -31.6010 -31.5901 -31.5900 -31.5814 -31.5811 -31.5807 -31.5805
    -8.6449  -8.6420  -7.8575  -7.8574   4.8460   4.8495   4.8505   4.8540
     5.1207   5.1223   5.9661   5.9664   6.9611   6.9638   6.9677   6.9704

          k = 0.0000-0.5007 0.2500 (  5154 PWs)   bands (ev):

   -64.8291 -64.8287 -64.8257 -64.8251 -31.6172 -31.6170 -31.6098 -31.6097
   -31.6075 -31.6072 -31.5860 -31.5858 -31.5830 -31.5829 -31.5750 -31.5749
    -8.5087  -8.5063  -7.9476  -7.9471   4.4154   4.4172   4.7458   4.7476
     5.0945   5.0988   6.5461   6.5476   6.5749   6.5780   7.0927   7.0936

          k = 0.0000-0.5007-0.5000 (  5208 PWs)   bands (ev):

   -64.8274 -64.8274 -64.8274 -64.8264 -31.6190 -31.6189 -31.6187 -31.6187
   -31.5982 -31.5980 -31.5980 -31.5977 -31.5761 -31.5759 -31.5758 -31.5758
    -8.2052  -8.2051  -8.2036  -8.2035   4.2875   4.2877   4.2881   4.2883
     5.7657   5.7658   5.7696   5.7697   7.0647   7.0649   7.0660   7.0661

          k = 0.2496 0.0000 0.0000 (  5157 PWs)   bands (ev):

   -64.8331 -64.8263 -64.8250 -64.8243 -31.6244 -31.6237 -31.6209 -31.5986
   -31.5977 -31.5947 -31.5945 -31.5887 -31.5873 -31.5789 -31.5714 -31.5706
    -9.1571  -8.1322  -7.8852  -7.8825   4.0474   4.0518   4.0931   5.8503
     5.8524   6.1728   6.1797   6.5441   6.5517   6.6618   7.4478   7.4522

          k = 0.2496 0.0000 0.2500 (  5159 PWs)   bands (ev):

   -64.8318 -64.8262 -64.8258 -64.8247 -31.6217 -31.6211 -31.6187 -31.6075
   -31.5932 -31.5929 -31.5928 -31.5884 -31.5874 -31.5868 -31.5745 -31.5688
    -8.9668  -8.0666  -8.0640  -7.8885   4.1610   4.1621   4.3318   5.0712
     5.8513   6.0505   6.0570   6.4889   6.4913   6.5787   7.1701   7.5061

          k = 0.2496 0.0000-0.5000 (  5150 PWs)   bands (ev):

   -64.8291 -64.8287 -64.8257 -64.8251 -31.6177 -31.6176 -31.6100 -31.6099
   -31.6060 -31.6058 -31.5841 -31.5840 -31.5840 -31.5838 -31.5761 -31.5760
    -8.5101  -8.5100  -7.9475  -7.9474   4.4204   4.4205   4.7545   4.7547
     5.0987   5.0988   6.5446   6.5448   6.5713   6.5714   7.0966   7.0966

          k = 0.2496 0.2504 0.0000 (  5163 PWs)   bands (ev):

   -64.8318 -64.8262 -64.8258 -64.8248 -31.6218 -31.6201 -31.6195 -31.6071
   -31.5946 -31.5940 -31.5929 -31.5878 -31.5875 -31.5860 -31.5753 -31.5683
    -8.9661  -8.0665  -8.0613  -7.8903   4.1600   4.1628   4.3286   5.0713
     5.8471   6.0485   6.0622   6.4824   6.4870   6.5835   7.1733   7.5055

          k = 0.2496 0.2504 0.2500 (  5153 PWs)   bands (ev):

   -64.8308 -64.8262 -64.8262 -64.8254 -31.6252 -31.6249 -31.6248 -31.6058
   -31.5937 -31.5936 -31.5933 -31.5846 -31.5838 -31.5834 -31.5720 -31.5705
    -8.7962  -8.0326  -8.0307  -8.0289   3.9998   4.0004   4.0011   5.0892
     5.8436   5.8457   5.8478   6.7013   6.7055   6.7095   7.3549   7.3557

          k = 0.2496 0.2504-0.5000 (  5134 PWs)   bands (ev):

   -64.8286 -64.8282 -64.8262 -64.8256 -31.6278 -31.6276 -31.6210 -31.6209
   -31.5930 -31.5928 -31.5804 -31.5803 -31.5784 -31.5782 -31.5771 -31.5770
    -8.3992  -8.3991  -7.9972  -7.9971   3.8214   3.8215   4.1979   4.1980
     5.8303   5.8303   6.7402   6.7404   6.8687   6.8689   7.0160   7.0160

          k = 0.2496-0.5007 0.0000 (  5158 PWs)   bands (ev):

   -64.8291 -64.8287 -64.8257 -64.8251 -31.6176 -31.6174 -31.6099 -31.6098
   -31.6067 -31.6064 -31.5854 -31.5851 -31.5834 -31.5833 -31.5760 -31.5758
    -8.5092  -8.5067  -7.9481  -7.9476   4.4174   4.4193   4.7492   4.7510
     5.0969   5.1012   6.5429   6.5445   6.5704   6.5735   7.0952   7.0960

          k = 0.2496-0.5007 0.2500 (  5138 PWs)   bands (ev):

   -64.8286 -64.8282 -64.8262 -64.8256 -31.6282 -31.6280 -31.6209 -31.6208
   -31.5933 -31.5931 -31.5800 -31.5799 -31.5785 -31.5782 -31.5773 -31.5772
    -8.3988  -8.3967  -7.9977  -7.9976   3.8211   3.8211   4.1947   4.1966
     5.8304   5.8305   6.7390   6.7392   6.8704   6.8713   7.0127   7.0146

          k = 0.2496-0.5007-0.5000 (  5132 PWs)   bands (ev):

   -64.8274 -64.8274 -64.8274 -64.8264 -31.6314 -31.6312 -31.6311 -31.6311
   -31.5834 -31.5832 -31.5832 -31.5830 -31.5748 -31.5746 -31.5745 -31.5745
    -8.1679  -8.1678  -8.1668  -8.1667   3.6380   3.6381   3.6390   3.6391
     6.5216   6.5216   6.5238   6.5239   7.0660   7.0662   7.0669   7.0670

          k =-0.4993 0.0000 0.0000 (  5110 PWs)   bands (ev):

   -64.8299 -64.8294 -64.8250 -64.8244 -31.6096 -31.6093 -31.6088 -31.6085
   -31.6027 -31.6025 -31.5913 -31.5912 -31.5804 -31.5802 -31.5797 -31.5795
    -8.6499  -8.6470  -7.8555  -7.8554   4.8418   4.8453   4.8464   4.8500
     5.1232   5.1249   5.9806   5.9810   6.9662   6.9690   6.9728   6.9756

          k =-0.4993 0.0000 0.2500 (  5146 PWs)   bands (ev):

   -64.8291 -64.8287 -64.8257 -64.8251 -31.6175 -31.6173 -31.6103 -31.6102
   -31.6060 -31.6057 -31.5844 -31.5843 -31.5839 -31.5837 -31.5754 -31.5752
    -8.5130  -8.5104  -7.9468  -7.9463   4.4195   4.4214   4.7547   4.7566
     5.0938   5.0982   6.5480   6.5497   6.5735   6.5767   7.0946   7.0955

          k =-0.4993 0.0000-0.5000 (  5208 PWs)   bands (ev):

   -64.8274 -64.8274 -64.8274 -64.8264 -31.6195 -31.6193 -31.6191 -31.6191
   -31.5963 -31.5961 -31.5960 -31.5958 -31.5774 -31.5772 -31.5771 -31.5771
    -8.2072  -8.2071  -8.2056  -8.2055   4.2983   4.2985   4.2990   4.2991
     5.7648   5.7649   5.7688   5.7689   7.0604   7.0606   7.0617   7.0619

          k =-0.4993 0.2504 0.0000 (  5150 PWs)   bands (ev):

   -64.8291 -64.8287 -64.8257 -64.8251 -31.6171 -31.6170 -31.6102 -31.6101
   -31.6070 -31.6067 -31.5846 -31.5844 -31.5843 -31.5842 -31.5748 -31.5746
    -8.5125  -8.5099  -7.9463  -7.9458   4.4175   4.4194   4.7513   4.7532
     5.0912   5.0956   6.5512   6.5528   6.5780   6.5812   7.0921   7.0929

          k =-0.4993 0.2504 0.2500 (  5136 PWs)   bands (ev):

   -64.8286 -64.8282 -64.8262 -64.8255 -31.6278 -31.6277 -31.6211 -31.6210
   -31.5924 -31.5922 -31.5813 -31.5812 -31.5781 -31.5780 -31.5772 -31.5770
    -8.4016  -8.3994  -7.9967  -7.9967   3.8218   3.8218   4.1992   4.2012
     5.8302   5.8302   6.7412   6.7415   6.8662   6.8672   7.0173   7.0193

          k =-0.4993 0.2504-0.5000 (  5140 PWs)   bands (ev):

   -64.8274 -64.8274 -64.8274 -64.8264 -31.6316 -31.6313 -31.6313 -31.6313
   -31.5824 -31.5822 -31.5822 -31.5820 -31.5760 -31.5759 -31.5757 -31.5757
    -8.1689  -8.1689  -8.1678  -8.1677   3.6416   3.6417   3.6426   3.6427
     6.5248   6.5249   6.5271   6.5272   7.0617   7.0619   7.0627   7.0628

          k =-0.4993-0.5007 0.0000 (  5208 PWs)   bands (ev):

   -64.8274 -64.8274 -64.8274 -64.8264 -31.6192 -31.6190 -31.6188 -31.6188
   -31.5975 -31.5972 -31.5972 -31.5969 -31.5766 -31.5765 -31.5763 -31.5763
    -8.2069  -8.2054  -8.2053  -8.2037   4.2927   4.2933   4.2933   4.2939
     5.7632   5.7669   5.7673   5.7710   7.0620   7.0633   7.0633   7.0646

          k =-0.4993-0.5007 0.2500 (  5136 PWs)   bands (ev):

   -64.8274 -64.8274 -64.8274 -64.8264 -31.6316 -31.6313 -31.6313 -31.6313
   -31.5830 -31.5828 -31.5827 -31.5826 -31.5753 -31.5751 -31.5750 -31.5750
    -8.1690  -8.1679  -8.1678  -8.1667   3.6394   3.6403   3.6404   3.6413
     6.5221   6.5242   6.5245   6.5266   7.0635   7.0644   7.0644   7.0653

          k =-0.4993-0.5007-0.5000 (  5152 PWs)   bands (ev):

   -64.8274 -64.8274 -64.8274 -64.8263 -31.6400 -31.6397 -31.6397 -31.6397
   -31.5763 -31.5761 -31.5760 -31.5759 -31.5743 -31.5740 -31.5740 -31.5739
    -8.1299  -8.1297  -8.1297  -8.1297   3.2173   3.2175   3.2175   3.2175
     7.0625   7.0626   7.0627   7.0628   7.0676   7.0676   7.0678   7.0679

          k =-0.2496 0.2504 0.0000 (  5163 PWs)   bands (ev):

   -64.8318 -64.8262 -64.8258 -64.8248 -31.6218 -31.6201 -31.6195 -31.6071
   -31.5946 -31.5940 -31.5929 -31.5878 -31.5875 -31.5860 -31.5753 -31.5683
    -8.9661  -8.0665  -8.0613  -7.8903   4.1600   4.1628   4.3286   5.0713
     5.8471   6.0485   6.0622   6.4824   6.4870   6.5835   7.1733   7.5055

          k =-0.2496 0.2504-0.2500 (  5153 PWs)   bands (ev):

   -64.8308 -64.8262 -64.8262 -64.8254 -31.6252 -31.6249 -31.6248 -31.6058
   -31.5937 -31.5936 -31.5933 -31.5846 -31.5838 -31.5834 -31.5720 -31.5705
    -8.7962  -8.0326  -8.0307  -8.0289   3.9998   4.0004   4.0011   5.0892
     5.8436   5.8457   5.8478   6.7013   6.7055   6.7095   7.3549   7.3557

          k =-0.2496 0.2504 0.5000 (  5134 PWs)   bands (ev):

   -64.8286 -64.8282 -64.8262 -64.8256 -31.6278 -31.6276 -31.6210 -31.6209
   -31.5930 -31.5928 -31.5804 -31.5803 -31.5784 -31.5782 -31.5771 -31.5770
    -8.3992  -8.3991  -7.9972  -7.9971   3.8214   3.8215   4.1979   4.1980
     5.8303   5.8303   6.7402   6.7404   6.8687   6.8688   7.0160   7.0160

     highest occupied level (ev):     7.6758

!    total energy              =    -608.39285491 Ry
     Harris-Foulkes estimate   =    -608.39285491 Ry
     estimated scf accuracy    <          5.6E-11 Ry

     The total energy is the sum of the following terms:

     one-electron contribution =    -303.56017537 Ry
     hartree contribution      =     168.06940143 Ry
     xc contribution           =     -97.84646493 Ry
     ewald contribution        =    -375.05561603 Ry

     convergence has been achieved in   5 iterations

     Forces acting on atoms (cartesian axes, Ry/au):

     atom    1 type  1   force =    -0.00033384    0.00033220    0.00000000
     atom    2 type  1   force =    -0.00036021   -0.00034738    0.00000000
     atom    3 type  1   force =     0.00034816    0.00035922    0.00000000
     atom    4 type  1   force =     0.00034775   -0.00034717    0.00000000
     atom    5 type  2   force =     0.00029554    0.00029354    0.00000000
     atom    6 type  2   force =    -0.00029588   -0.00029167    0.00000000
     atom    7 type  2   force =    -0.00029651    0.00029311    0.00000000
     atom    8 type  2   force =     0.00029499   -0.00029185    0.00000000

     Total force =     0.001287     Total SCF correction =     0.000078


     Computing stress (Cartesian axis) and pressure

          total   stress  (Ry/bohr**3)                   (kbar)     P=  -68.01
  -0.00048054   0.00000000   0.00000000        -70.69      0.00      0.00
   0.00000000  -0.00044483   0.00000000          0.00    -65.44      0.00
   0.00000000   0.00000000  -0.00046167          0.00      0.00    -67.91


     number of scf cycles    =   3
     number of bfgs steps    =   2

     energy   old            =    -608.3928485408 Ry
     energy   new            =    -608.3928549080 Ry

     CASE: energy  _new < energy  _old

     new trust radius        =       0.0017456036 bohr
     new conv_thr            =            1.0E-10 Ry


ATOMIC_POSITIONS (alat)
Mg      -0.000335115   0.000341323   0.000000000
Mg      -0.000347363   0.499655909   0.500000000
Mg       0.500337846   0.000353914   0.500000000
Mg       0.500337667   0.499655937   0.000000000
O        0.500383727   0.000386428   0.000000000
O       -0.000380927   0.499610574   0.000000000
O       -0.000380870   0.000386452   0.500000000
O        0.500385035   0.499609463   0.500000000



     Writing output data file diamond.1.001429.70.4.save
     NEW-OLD atomic charge density approx. for the potential

     Check: negative/imaginary core charge=   -0.000007    0.000000

     total cpu time spent up to now is       27.5 secs

     per-process dynamical memory:    55.6 Mb

     Self-consistent Calculation

     iteration #  1     ecut=    70.00 Ry     beta=0.70
     Davidson diagonalization with overlap
     ethr =  1.00E-06,  avg # of iterations =  3.0

     Threshold (ethr) on eigenvalues was too large:
     Diagonalizing with lowered threshold

     Davidson diagonalization with overlap
     ethr =  6.13E-09,  avg # of iterations =  1.2

     total cpu time spent up to now is       30.3 secs

     total energy              =    -608.39285626 Ry
     Harris-Foulkes estimate   =    -608.39285919 Ry
     estimated scf accuracy    <       0.00000400 Ry

     iteration #  2     ecut=    70.00 Ry     beta=0.70
     Davidson diagonalization with overlap
     ethr =  6.25E-09,  avg # of iterations =  2.2

     total cpu time spent up to now is       31.5 secs

     total energy              =    -608.39285748 Ry
     Harris-Foulkes estimate   =    -608.39285789 Ry
     estimated scf accuracy    <       0.00000069 Ry

     iteration #  3     ecut=    70.00 Ry     beta=0.70
     Davidson diagonalization with overlap
     ethr =  1.08E-09,  avg # of iterations =  2.0

     total cpu time spent up to now is       32.7 secs

     total energy              =    -608.39285762 Ry
     Harris-Foulkes estimate   =    -608.39285762 Ry
     estimated scf accuracy    <          4.6E-09 Ry

     iteration #  4     ecut=    70.00 Ry     beta=0.70
     Davidson diagonalization with overlap
     ethr =  7.17E-12,  avg # of iterations =  2.5

     total cpu time spent up to now is       34.1 secs

     total energy              =    -608.39285763 Ry
     Harris-Foulkes estimate   =    -608.39285763 Ry
     estimated scf accuracy    <          3.1E-10 Ry

     iteration #  5     ecut=    70.00 Ry     beta=0.70
     Davidson diagonalization with overlap
     ethr =  4.85E-13,  avg # of iterations =  2.0

     total cpu time spent up to now is       35.3 secs

     End of self-consistent calculation

          k = 0.0000 0.0000 0.0000 (  5137 PWs)   bands (ev):

   -64.8345 -64.8250 -64.8250 -64.8242 -31.6316 -31.6309 -31.6302 -31.5942
   -31.5939 -31.5937 -31.5930 -31.5928 -31.5925 -31.5640 -31.5633 -31.5625
    -9.3647  -7.9175  -7.9137  -7.9100   3.7534   3.7581   3.7628   6.3699
     6.3712   6.3788   6.3813   6.3890   6.3902   7.6692   7.6725   7.6758

          k = 0.0000 0.0000 0.2500 (  5157 PWs)   bands (ev):

   -64.8330 -64.8262 -64.8250 -64.8244 -31.6250 -31.6236 -31.6203 -31.5991
   -31.5974 -31.5942 -31.5937 -31.5895 -31.5876 -31.5781 -31.5722 -31.5706
    -9.1562  -8.1286  -7.8880  -7.8826   4.0440   4.0528   4.0955   5.8560
     5.8603   6.1637   6.1776   6.5351   6.5510   6.6589   7.4458   7.4547

          k = 0.0000 0.0000-0.5000 (  5110 PWs)   bands (ev):

   -64.8298 -64.8294 -64.8250 -64.8244 -31.6101 -31.6099 -31.6086 -31.6083
   -31.6019 -31.6019 -31.5907 -31.5906 -31.5812 -31.5810 -31.5799 -31.5796
    -8.6460  -8.6459  -7.8565  -7.8564   4.8444   4.8445   4.8514   4.8515
     5.1227   5.1230   5.9734   5.9737   6.9617   6.9618   6.9749   6.9750

          k = 0.0000 0.2504 0.0000 (  5157 PWs)   bands (ev):

   -64.8330 -64.8262 -64.8250 -64.8244 -31.6250 -31.6243 -31.6197 -31.5988
   -31.5978 -31.5933 -31.5924 -31.5899 -31.5893 -31.5774 -31.5722 -31.5715
    -9.1554  -8.1250  -7.8881  -7.8854   4.0450   4.0493   4.0978   5.8638
     5.8659   6.1616   6.1686   6.5337   6.5420   6.6560   7.4483   7.4527

          k = 0.0000 0.2504 0.2500 (  5161 PWs)   bands (ev):

   -64.8318 -64.8262 -64.8258 -64.8248 -31.6213 -31.6202 -31.6196 -31.6067
   -31.5952 -31.5950 -31.5926 -31.5872 -31.5866 -31.5863 -31.5761 -31.5679
    -8.9654  -8.0638  -8.0612  -7.8921   4.1603   4.1622   4.3255   5.0714
     5.8429   6.0539   6.0607   6.4780   6.4805   6.5881   7.1765   7.5050

          k = 0.0000 0.2504-0.5000 (  5146 PWs)   bands (ev):

   -64.8291 -64.8287 -64.8257 -64.8251 -31.6168 -31.6167 -31.6099 -31.6098
   -31.6075 -31.6072 -31.5857 -31.5855 -31.5831 -31.5831 -31.5747 -31.5745
    -8.5092  -8.5091  -7.9465  -7.9464   4.4163   4.4164   4.7477   4.7479
     5.0939   5.0940   6.5510   6.5512   6.5803   6.5804   7.0915   7.0916

          k = 0.0000-0.5007 0.0000 (  5110 PWs)   bands (ev):

   -64.8298 -64.8294 -64.8250 -64.8244 -31.6100 -31.6097 -31.6092 -31.6090
   -31.6011 -31.6011 -31.5901 -31.5900 -31.5814 -31.5811 -31.5807 -31.5805
    -8.6437  -8.6432  -7.8575  -7.8575   4.8479   4.8486   4.8514   4.8521
     5.1213   5.1217   5.9661   5.9664   6.9622   6.9627   6.9688   6.9693

          k = 0.0000-0.5007 0.2500 (  5154 PWs)   bands (ev):

   -64.8291 -64.8287 -64.8257 -64.8251 -31.6172 -31.6171 -31.6098 -31.6097
   -31.6075 -31.6072 -31.5860 -31.5858 -31.5830 -31.5830 -31.5750 -31.5749
    -8.5077  -8.5073  -7.9474  -7.9473   4.4162   4.4164   4.7465   4.7470
     5.0963   5.0970   6.5467   6.5471   6.5762   6.5767   7.0931   7.0932

          k = 0.0000-0.5007-0.5000 (  5208 PWs)   bands (ev):

   -64.8274 -64.8274 -64.8274 -64.8264 -31.6190 -31.6188 -31.6187 -31.6187
   -31.5982 -31.5980 -31.5980 -31.5977 -31.5761 -31.5759 -31.5758 -31.5758
    -8.2046  -8.2044  -8.2043  -8.2042   4.2877   4.2878   4.2880   4.2881
     5.7673   5.7674   5.7680   5.7681   7.0652   7.0654   7.0655   7.0657

          k = 0.2496 0.0000 0.0000 (  5157 PWs)   bands (ev):

   -64.8331 -64.8263 -64.8250 -64.8244 -31.6244 -31.6237 -31.6209 -31.5986
   -31.5977 -31.5947 -31.5945 -31.5887 -31.5873 -31.5789 -31.5714 -31.5706
    -9.1570  -8.1322  -7.8852  -7.8825   4.0474   4.0518   4.0931   5.8503
     5.8524   6.1728   6.1797   6.5441   6.5518   6.6618   7.4478   7.4522

          k = 0.2496 0.0000 0.2500 (  5159 PWs)   bands (ev):

   -64.8318 -64.8262 -64.8258 -64.8247 -31.6217 -31.6211 -31.6187 -31.6075
   -31.5932 -31.5929 -31.5928 -31.5884 -31.5874 -31.5868 -31.5745 -31.5688
    -8.9668  -8.0666  -8.0640  -7.8885   4.1610   4.1621   4.3318   5.0712
     5.8513   6.0505   6.0570   6.4889   6.4913   6.5787   7.1701   7.5061

          k = 0.2496 0.0000-0.5000 (  5150 PWs)   bands (ev):

   -64.8291 -64.8287 -64.8257 -64.8251 -31.6177 -31.6176 -31.6100 -31.6099
   -31.6060 -31.6058 -31.5841 -31.5840 -31.5839 -31.5838 -31.5761 -31.5760
    -8.5101  -8.5100  -7.9475  -7.9474   4.4204   4.4205   4.7545   4.7547
     5.0987   5.0988   6.5446   6.5448   6.5713   6.5713   7.0966   7.0966

          k = 0.2496 0.2504 0.0000 (  5163 PWs)   bands (ev):

   -64.8318 -64.8262 -64.8258 -64.8248 -31.6218 -31.6201 -31.6195 -31.6071
   -31.5946 -31.5940 -31.5929 -31.5878 -31.5875 -31.5860 -31.5753 -31.5683
    -8.9661  -8.0665  -8.0612  -7.8903   4.1600   4.1628   4.3287   5.0713
     5.8471   6.0485   6.0622   6.4824   6.4870   6.5835   7.1733   7.5055

          k = 0.2496 0.2504 0.2500 (  5153 PWs)   bands (ev):

   -64.8308 -64.8262 -64.8262 -64.8254 -31.6252 -31.6249 -31.6248 -31.6058
   -31.5937 -31.5936 -31.5933 -31.5846 -31.5838 -31.5834 -31.5720 -31.5705
    -8.7962  -8.0326  -8.0307  -8.0289   3.9998   4.0004   4.0011   5.0892
     5.8436   5.8457   5.8478   6.7013   6.7055   6.7095   7.3549   7.3557

          k = 0.2496 0.2504-0.5000 (  5134 PWs)   bands (ev):

   -64.8286 -64.8282 -64.8262 -64.8256 -31.6278 -31.6276 -31.6210 -31.6209
   -31.5930 -31.5928 -31.5804 -31.5803 -31.5784 -31.5782 -31.5771 -31.5770
    -8.3992  -8.3990  -7.9972  -7.9971   3.8214   3.8215   4.1979   4.1980
     5.8303   5.8303   6.7402   6.7404   6.8687   6.8688   7.0160   7.0160

          k = 0.2496-0.5007 0.0000 (  5158 PWs)   bands (ev):

   -64.8291 -64.8287 -64.8257 -64.8251 -31.6176 -31.6174 -31.6099 -31.6098
   -31.6067 -31.6065 -31.5854 -31.5851 -31.5833 -31.5833 -31.5760 -31.5758
    -8.5082  -8.5077  -7.9479  -7.9478   4.4182   4.4185   4.7499   4.7504
     5.0987   5.0994   6.5435   6.5439   6.5717   6.5722   7.0956   7.0957

          k = 0.2496-0.5007 0.2500 (  5138 PWs)   bands (ev):

   -64.8286 -64.8282 -64.8262 -64.8256 -31.6282 -31.6280 -31.6209 -31.6208
   -31.5934 -31.5931 -31.5800 -31.5799 -31.5784 -31.5782 -31.5773 -31.5772
    -8.3979  -8.3976  -7.9977  -7.9976   3.8211   3.8211   4.1954   4.1959
     5.8304   5.8305   6.7390   6.7392   6.8708   6.8709   7.0135   7.0138

          k = 0.2496-0.5007-0.5000 (  5132 PWs)   bands (ev):

   -64.8274 -64.8274 -64.8274 -64.8264 -31.6314 -31.6311 -31.6311 -31.6311
   -31.5834 -31.5832 -31.5832 -31.5830 -31.5748 -31.5746 -31.5745 -31.5745
    -8.1675  -8.1673  -8.1672  -8.1672   3.6384   3.6385   3.6387   3.6387
     6.5225   6.5225   6.5229   6.5230   7.0663   7.0665   7.0666   7.0667

          k =-0.4993 0.0000 0.0000 (  5110 PWs)   bands (ev):

   -64.8299 -64.8294 -64.8250 -64.8244 -31.6096 -31.6093 -31.6088 -31.6085
   -31.6026 -31.6026 -31.5913 -31.5912 -31.5804 -31.5802 -31.5797 -31.5795
    -8.6486  -8.6483  -7.8555  -7.8554   4.8439   4.8443   4.8474   4.8479
     5.1239   5.1243   5.9806   5.9810   6.9674   6.9678   6.9740   6.9744

          k =-0.4993 0.0000 0.2500 (  5146 PWs)   bands (ev):

   -64.8291 -64.8287 -64.8257 -64.8251 -31.6175 -31.6174 -31.6102 -31.6102
   -31.6060 -31.6058 -31.5844 -31.5843 -31.5839 -31.5837 -31.5754 -31.5752
    -8.5118  -8.5115  -7.9466  -7.9465   4.4204   4.4205   4.7555   4.7559
     5.0958   5.0962   6.5487   6.5490   6.5749   6.5753   7.0950   7.0951

          k =-0.4993 0.0000-0.5000 (  5208 PWs)   bands (ev):

   -64.8274 -64.8274 -64.8274 -64.8264 -31.6195 -31.6193 -31.6191 -31.6191
   -31.5962 -31.5961 -31.5960 -31.5958 -31.5774 -31.5772 -31.5771 -31.5771
    -8.2065  -8.2064  -8.2063  -8.2062   4.2985   4.2986   4.2988   4.2989
     5.7666   5.7667   5.7671   5.7672   7.0609   7.0611   7.0612   7.0614

          k =-0.4993 0.2504 0.0000 (  5150 PWs)   bands (ev):

   -64.8291 -64.8287 -64.8257 -64.8251 -31.6171 -31.6170 -31.6102 -31.6102
   -31.6070 -31.6067 -31.5846 -31.5844 -31.5843 -31.5842 -31.5748 -31.5746
    -8.5114  -8.5111  -7.9461  -7.9460   4.4184   4.4185   4.7521   4.7525
     5.0932   5.0936   6.5518   6.5521   6.5794   6.5798   7.0924   7.0925

          k =-0.4993 0.2504 0.2500 (  5136 PWs)   bands (ev):

   -64.8286 -64.8282 -64.8262 -64.8255 -31.6278 -31.6277 -31.6211 -31.6210
   -31.5924 -31.5922 -31.5813 -31.5812 -31.5781 -31.5780 -31.5772 -31.5770
    -8.4006  -8.4003  -7.9967  -7.9967   3.8218   3.8218   4.2000   4.2004
     5.8302   5.8302   6.7412   6.7415   6.8666   6.8668   7.0182   7.0184

          k =-0.4993 0.2504-0.5000 (  5140 PWs)   bands (ev):

   -64.8274 -64.8274 -64.8274 -64.8264 -31.6316 -31.6313 -31.6313 -31.6313
   -31.5824 -31.5822 -31.5822 -31.5820 -31.5760 -31.5759 -31.5757 -31.5757
    -8.1685  -8.1683  -8.1683  -8.1682   3.6420   3.6421   3.6422   3.6423
     6.5258   6.5259   6.5262   6.5262   7.0621   7.0622   7.0623   7.0625

          k =-0.4993-0.5007 0.0000 (  5208 PWs)   bands (ev):

   -64.8274 -64.8274 -64.8274 -64.8264 -31.6192 -31.6190 -31.6188 -31.6188
   -31.5974 -31.5972 -31.5972 -31.5969 -31.5766 -31.5764 -31.5763 -31.5763
    -8.2056  -8.2054  -8.2053  -8.2051   4.2931   4.2933   4.2933   4.2936
     5.7666   5.7669   5.7673   5.7677   7.0630   7.0633   7.0633   7.0636

          k =-0.4993-0.5007 0.2500 (  5136 PWs)   bands (ev):

   -64.8274 -64.8274 -64.8274 -64.8264 -31.6316 -31.6313 -31.6313 -31.6313
   -31.5830 -31.5828 -31.5827 -31.5826 -31.5753 -31.5751 -31.5750 -31.5750
    -8.1680  -8.1678  -8.1678  -8.1676   3.6401   3.6403   3.6404   3.6406
     6.5240   6.5242   6.5245   6.5247   7.0642   7.0644   7.0644   7.0647

          k =-0.4993-0.5007-0.5000 (  5152 PWs)   bands (ev):

   -64.8274 -64.8274 -64.8274 -64.8264 -31.6400 -31.6397 -31.6397 -31.6397
   -31.5763 -31.5761 -31.5760 -31.5759 -31.5743 -31.5740 -31.5740 -31.5739
    -8.1299  -8.1297  -8.1297  -8.1297   3.2173   3.2175   3.2175   3.2175
     7.0625   7.0626   7.0627   7.0628   7.0676   7.0677   7.0678   7.0679

          k =-0.2496 0.2504 0.0000 (  5163 PWs)   bands (ev):

   -64.8318 -64.8262 -64.8258 -64.8248 -31.6218 -31.6201 -31.6195 -31.6071
   -31.5946 -31.5940 -31.5929 -31.5878 -31.5875 -31.5860 -31.5753 -31.5683
    -8.9661  -8.0665  -8.0612  -7.8903   4.1600   4.1628   4.3287   5.0713
     5.8471   6.0485   6.0622   6.4824   6.4870   6.5835   7.1733   7.5055

          k =-0.2496 0.2504-0.2500 (  5153 PWs)   bands (ev):

   -64.8308 -64.8262 -64.8262 -64.8254 -31.6252 -31.6249 -31.6248 -31.6058
   -31.5937 -31.5936 -31.5933 -31.5846 -31.5838 -31.5834 -31.5720 -31.5705
    -8.7962  -8.0326  -8.0307  -8.0289   3.9998   4.0004   4.0011   5.0892
     5.8436   5.8457   5.8478   6.7013   6.7055   6.7095   7.3549   7.3557

          k =-0.2496 0.2504 0.5000 (  5134 PWs)   bands (ev):

   -64.8286 -64.8282 -64.8262 -64.8256 -31.6278 -31.6276 -31.6210 -31.6209
   -31.5930 -31.5928 -31.5804 -31.5803 -31.5784 -31.5782 -31.5771 -31.5770
    -8.3992  -8.3990  -7.9972  -7.9971   3.8214   3.8215   4.1979   4.1980
     5.8303   5.8303   6.7402   6.7404   6.8687   6.8688   7.0160   7.0160

     highest occupied level (ev):     7.6758

!    total energy              =    -608.39285763 Ry
     Harris-Foulkes estimate   =    -608.39285763 Ry
     estimated scf accuracy    <          5.7E-11 Ry

     The total energy is the sum of the following terms:

     one-electron contribution =    -303.55958816 Ry
     hartree contribution      =     168.06910410 Ry
     xc contribution           =     -97.84645773 Ry
     ewald contribution        =    -375.05591584 Ry

     convergence has been achieved in   5 iterations

     Forces acting on atoms (cartesian axes, Ry/au):

     atom    1 type  1   force =     0.00001035   -0.00002499    0.00000000
     atom    2 type  1   force =    -0.00002692   -0.00000550    0.00000000
     atom    3 type  1   force =     0.00001971    0.00001232    0.00000000
     atom    4 type  1   force =     0.00001973   -0.00000545    0.00000000
     atom    5 type  2   force =    -0.00008359   -0.00008959    0.00000000
     atom    6 type  2   force =     0.00007508    0.00009892    0.00000000
     atom    7 type  2   force =     0.00007449   -0.00008974    0.00000000
     atom    8 type  2   force =    -0.00008885    0.00010402    0.00000000

     Total force =     0.000255     Total SCF correction =     0.000089
     SCF correction compared to forces is large: reduce conv_thr to get better values


     Computing stress (Cartesian axis) and pressure

          total   stress  (Ry/bohr**3)                   (kbar)     P=  -68.02
  -0.00048058   0.00000000   0.00000000        -70.70      0.00      0.00
   0.00000000  -0.00044486   0.00000000          0.00    -65.44      0.00
   0.00000000   0.00000000  -0.00046168          0.00      0.00    -67.91


     number of scf cycles    =   4
     number of bfgs steps    =   3

     energy   old            =    -608.3928549080 Ry
     energy   new            =    -608.3928576256 Ry

     CASE: energy  _new < energy  _old

     new trust radius        =       0.0002612057 bohr
     new conv_thr            =            1.0E-10 Ry


ATOMIC_POSITIONS (alat)
Mg      -0.000322437   0.000326945   0.000000000
Mg      -0.000338134   0.499667222   0.500000000
Mg       0.500328198   0.000342970   0.500000000
Mg       0.500328029   0.499667255   0.000000000
O        0.500362249   0.000364269   0.000000000
O       -0.000360428   0.499633793   0.000000000
O       -0.000360430   0.000364279   0.500000000
O        0.500362954   0.499633267   0.500000000



     Writing output data file diamond.1.001429.70.4.save
     NEW-OLD atomic charge density approx. for the potential

     Check: negative/imaginary core charge=   -0.000007    0.000000

     total cpu time spent up to now is       36.0 secs

     per-process dynamical memory:    55.6 Mb

     Self-consistent Calculation

     iteration #  1     ecut=    70.00 Ry     beta=0.70
     Davidson diagonalization with overlap
     ethr =  1.00E-06,  avg # of iterations =  1.6

     Threshold (ethr) on eigenvalues was too large:
     Diagonalizing with lowered threshold

     Davidson diagonalization with overlap
     ethr =  4.14E-11,  avg # of iterations =  3.5

     total cpu time spent up to now is       39.0 secs

     total energy              =    -608.39285767 Ry
     Harris-Foulkes estimate   =    -608.39285773 Ry
     estimated scf accuracy    <       0.00000007 Ry

     iteration #  2     ecut=    70.00 Ry     beta=0.70
     Davidson diagonalization with overlap
     ethr =  1.14E-10,  avg # of iterations =  2.2

     total cpu time spent up to now is       40.2 secs

     total energy              =    -608.39285770 Ry
     Harris-Foulkes estimate   =    -608.39285770 Ry
     estimated scf accuracy    <       0.00000001 Ry

     iteration #  3     ecut=    70.00 Ry     beta=0.70
     Davidson diagonalization with overlap
     ethr =  2.01E-11,  avg # of iterations =  2.0

     total cpu time spent up to now is       41.4 secs

     End of self-consistent calculation

          k = 0.0000 0.0000 0.0000 (  5137 PWs)   bands (ev):

   -64.8345 -64.8250 -64.8250 -64.8242 -31.6316 -31.6309 -31.6302 -31.5942
   -31.5939 -31.5937 -31.5930 -31.5928 -31.5925 -31.5640 -31.5633 -31.5625
    -9.3647  -7.9175  -7.9137  -7.9100   3.7534   3.7581   3.7628   6.3699
     6.3712   6.3788   6.3813   6.3890   6.3902   7.6692   7.6725   7.6758

          k = 0.0000 0.0000 0.2500 (  5157 PWs)   bands (ev):

   -64.8330 -64.8262 -64.8250 -64.8244 -31.6250 -31.6236 -31.6203 -31.5991
   -31.5974 -31.5942 -31.5937 -31.5896 -31.5876 -31.5781 -31.5722 -31.5706
    -9.1562  -8.1286  -7.8880  -7.8826   4.0440   4.0528   4.0955   5.8560
     5.8603   6.1637   6.1776   6.5351   6.5510   6.6589   7.4458   7.4547

          k = 0.0000 0.0000-0.5000 (  5110 PWs)   bands (ev):

   -64.8298 -64.8294 -64.8250 -64.8244 -31.6101 -31.6099 -31.6086 -31.6084
   -31.6019 -31.6019 -31.5907 -31.5906 -31.5812 -31.5810 -31.5799 -31.5796
    -8.6460  -8.6459  -7.8565  -7.8565   4.8444   4.8445   4.8514   4.8515
     5.1227   5.1229   5.9734   5.9737   6.9617   6.9618   6.9749   6.9750

          k = 0.0000 0.2504 0.0000 (  5157 PWs)   bands (ev):

   -64.8330 -64.8262 -64.8250 -64.8244 -31.6250 -31.6243 -31.6197 -31.5988
   -31.5978 -31.5933 -31.5924 -31.5899 -31.5893 -31.5774 -31.5722 -31.5715
    -9.1554  -8.1250  -7.8881  -7.8854   4.0450   4.0493   4.0978   5.8638
     5.8659   6.1616   6.1686   6.5337   6.5420   6.6560   7.4483   7.4527

          k = 0.0000 0.2504 0.2500 (  5161 PWs)   bands (ev):

   -64.8318 -64.8262 -64.8258 -64.8248 -31.6213 -31.6202 -31.6196 -31.6067
   -31.5952 -31.5950 -31.5926 -31.5872 -31.5866 -31.5863 -31.5761 -31.5679
    -8.9654  -8.0638  -8.0612  -7.8921   4.1603   4.1622   4.3255   5.0714
     5.8429   6.0539   6.0607   6.4780   6.4805   6.5881   7.1765   7.5050

          k = 0.0000 0.2504-0.5000 (  5146 PWs)   bands (ev):

   -64.8291 -64.8287 -64.8257 -64.8251 -31.6168 -31.6167 -31.6099 -31.6098
   -31.6075 -31.6072 -31.5857 -31.5855 -31.5831 -31.5831 -31.5747 -31.5745
    -8.5092  -8.5091  -7.9464  -7.9464   4.4163   4.4164   4.7477   4.7479
     5.0939   5.0940   6.5510   6.5512   6.5803   6.5803   7.0915   7.0916

          k = 0.0000-0.5007 0.0000 (  5110 PWs)   bands (ev):

   -64.8298 -64.8294 -64.8250 -64.8244 -31.6100 -31.6097 -31.6092 -31.6090
   -31.6012 -31.6011 -31.5901 -31.5900 -31.5814 -31.5811 -31.5807 -31.5805
    -8.6435  -8.6434  -7.8575  -7.8574   4.8482   4.8483   4.8517   4.8518
     5.1214   5.1217   5.9661   5.9664   6.9624   6.9625   6.9690   6.9691

          k = 0.0000-0.5007 0.2500 (  5154 PWs)   bands (ev):

   -64.8291 -64.8287 -64.8257 -64.8251 -31.6172 -31.6171 -31.6098 -31.6097
   -31.6075 -31.6072 -31.5860 -31.5858 -31.5830 -31.5830 -31.5750 -31.5749
    -8.5075  -8.5075  -7.9474  -7.9473   4.4162   4.4163   4.7466   4.7468
     5.0966   5.0967   6.5468   6.5470   6.5765   6.5765   7.0931   7.0932

          k = 0.0000-0.5007-0.5000 (  5208 PWs)   bands (ev):

   -64.8274 -64.8274 -64.8274 -64.8264 -31.6190 -31.6188 -31.6187 -31.6187
   -31.5982 -31.5980 -31.5980 -31.5977 -31.5761 -31.5759 -31.5758 -31.5758
    -8.2045  -8.2043  -8.2043  -8.2043   4.2878   4.2879   4.2879   4.2881
     5.7675   5.7675   5.7679   5.7679   7.0653   7.0654   7.0654   7.0656

          k = 0.2496 0.0000 0.0000 (  5157 PWs)   bands (ev):

   -64.8331 -64.8263 -64.8250 -64.8244 -31.6244 -31.6237 -31.6209 -31.5986
   -31.5977 -31.5947 -31.5945 -31.5887 -31.5873 -31.5789 -31.5714 -31.5706
    -9.1570  -8.1322  -7.8852  -7.8825   4.0474   4.0518   4.0931   5.8503
     5.8524   6.1728   6.1797   6.5441   6.5518   6.6618   7.4478   7.4522

          k = 0.2496 0.0000 0.2500 (  5159 PWs)   bands (ev):

   -64.8318 -64.8262 -64.8258 -64.8247 -31.6217 -31.6211 -31.6187 -31.6075
   -31.5932 -31.5929 -31.5928 -31.5884 -31.5874 -31.5868 -31.5745 -31.5688
    -8.9668  -8.0666  -8.0640  -7.8885   4.1610   4.1621   4.3318   5.0712
     5.8513   6.0505   6.0570   6.4889   6.4913   6.5787   7.1701   7.5061

          k = 0.2496 0.0000-0.5000 (  5150 PWs)   bands (ev):

   -64.8291 -64.8287 -64.8257 -64.8251 -31.6177 -31.6176 -31.6100 -31.6099
   -31.6060 -31.6058 -31.5841 -31.5840 -31.5839 -31.5838 -31.5761 -31.5760
    -8.5101  -8.5100  -7.9475  -7.9474   4.4204   4.4205   4.7545   4.7547
     5.0987   5.0988   6.5446   6.5448   6.5713   6.5713   7.0966   7.0966

          k = 0.2496 0.2504 0.0000 (  5163 PWs)   bands (ev):

   -64.8318 -64.8262 -64.8258 -64.8248 -31.6218 -31.6201 -31.6195 -31.6071
   -31.5946 -31.5940 -31.5929 -31.5878 -31.5875 -31.5860 -31.5753 -31.5683
    -8.9661  -8.0665  -8.0612  -7.8903   4.1600   4.1628   4.3287   5.0713
     5.8471   6.0485   6.0622   6.4824   6.4870   6.5835   7.1733   7.5055

          k = 0.2496 0.2504 0.2500 (  5153 PWs)   bands (ev):

   -64.8308 -64.8262 -64.8262 -64.8254 -31.6252 -31.6249 -31.6248 -31.6058
   -31.5937 -31.5936 -31.5933 -31.5846 -31.5838 -31.5834 -31.5720 -31.5705
    -8.7962  -8.0326  -8.0307  -8.0289   3.9998   4.0004   4.0011   5.0892
     5.8436   5.8457   5.8478   6.7013   6.7055   6.7095   7.3549   7.3557

          k = 0.2496 0.2504-0.5000 (  5134 PWs)   bands (ev):

   -64.8286 -64.8282 -64.8262 -64.8256 -31.6278 -31.6276 -31.6210 -31.6209
   -31.5930 -31.5928 -31.5804 -31.5803 -31.5784 -31.5782 -31.5771 -31.5770
    -8.3992  -8.3991  -7.9972  -7.9971   3.8214   3.8215   4.1979   4.1980
     5.8303   5.8303   6.7402   6.7404   6.8687   6.8688   7.0160   7.0160

          k = 0.2496-0.5007 0.0000 (  5158 PWs)   bands (ev):

   -64.8291 -64.8287 -64.8257 -64.8251 -31.6176 -31.6174 -31.6099 -31.6098
   -31.6067 -31.6065 -31.5854 -31.5851 -31.5834 -31.5833 -31.5760 -31.5758
    -8.5080  -8.5079  -7.9479  -7.9478   4.4183   4.4184   4.7500   4.7502
     5.0990   5.0991   6.5436   6.5438   6.5719   6.5720   7.0956   7.0956

          k = 0.2496-0.5007 0.2500 (  5138 PWs)   bands (ev):

   -64.8286 -64.8282 -64.8262 -64.8256 -31.6282 -31.6280 -31.6209 -31.6208
   -31.5934 -31.5931 -31.5800 -31.5799 -31.5785 -31.5782 -31.5773 -31.5772
    -8.3978  -8.3977  -7.9977  -7.9976   3.8211   3.8211   4.1956   4.1958
     5.8304   5.8305   6.7390   6.7392   6.8708   6.8709   7.0136   7.0137

          k = 0.2496-0.5007-0.5000 (  5132 PWs)   bands (ev):

   -64.8274 -64.8274 -64.8274 -64.8264 -31.6314 -31.6312 -31.6311 -31.6311
   -31.5834 -31.5832 -31.5832 -31.5830 -31.5748 -31.5746 -31.5745 -31.5745
    -8.1674  -8.1673  -8.1673  -8.1672   3.6384   3.6386   3.6386   3.6386
     6.5226   6.5226   6.5228   6.5229   7.0664   7.0665   7.0665   7.0667

          k =-0.4993 0.0000 0.0000 (  5110 PWs)   bands (ev):

   -64.8299 -64.8294 -64.8250 -64.8244 -31.6096 -31.6093 -31.6088 -31.6085
   -31.6026 -31.6026 -31.5913 -31.5912 -31.5804 -31.5802 -31.5797 -31.5795
    -8.6485  -8.6484  -7.8555  -7.8554   4.8440   4.8442   4.8476   4.8477
     5.1239   5.1242   5.9806   5.9810   6.9676   6.9676   6.9742   6.9742

          k =-0.4993 0.0000 0.2500 (  5146 PWs)   bands (ev):

   -64.8291 -64.8287 -64.8257 -64.8251 -31.6175 -31.6174 -31.6102 -31.6102
   -31.6060 -31.6058 -31.5844 -31.5843 -31.5839 -31.5837 -31.5754 -31.5752
    -8.5117  -8.5116  -7.9466  -7.9465   4.4204   4.4205   4.7556   4.7558
     5.0959   5.0961   6.5487   6.5490   6.5751   6.5751   7.0950   7.0951

          k =-0.4993 0.0000-0.5000 (  5208 PWs)   bands (ev):

   -64.8274 -64.8274 -64.8274 -64.8264 -31.6195 -31.6193 -31.6191 -31.6191
   -31.5962 -31.5961 -31.5960 -31.5958 -31.5774 -31.5772 -31.5771 -31.5771
    -8.2065  -8.2063  -8.2063  -8.2063   4.2986   4.2987   4.2987   4.2989
     5.7667   5.7667   5.7671   5.7671   7.0610   7.0611   7.0611   7.0613

          k =-0.4993 0.2504 0.0000 (  5150 PWs)   bands (ev):

   -64.8291 -64.8287 -64.8257 -64.8251 -31.6171 -31.6170 -31.6102 -31.6102
   -31.6070 -31.6067 -31.5846 -31.5844 -31.5843 -31.5842 -31.5748 -31.5746
    -8.5113  -8.5112  -7.9461  -7.9460   4.4184   4.4185   4.7522   4.7524
     5.0933   5.0935   6.5519   6.5521   6.5796   6.5797   7.0924   7.0925

          k =-0.4993 0.2504 0.2500 (  5136 PWs)   bands (ev):

   -64.8286 -64.8282 -64.8262 -64.8255 -31.6278 -31.6277 -31.6211 -31.6210
   -31.5924 -31.5922 -31.5813 -31.5812 -31.5781 -31.5780 -31.5772 -31.5770
    -8.4005  -8.4004  -7.9967  -7.9966   3.8218   3.8218   4.2001   4.2003
     5.8302   5.8302   6.7412   6.7415   6.8666   6.8668   7.0183   7.0183

          k =-0.4993 0.2504-0.5000 (  5140 PWs)   bands (ev):

   -64.8274 -64.8274 -64.8274 -64.8264 -31.6316 -31.6313 -31.6313 -31.6313
   -31.5824 -31.5822 -31.5822 -31.5820 -31.5760 -31.5759 -31.5757 -31.5757
    -8.1684  -8.1683  -8.1683  -8.1682   3.6420   3.6422   3.6422   3.6422
     6.5259   6.5259   6.5261   6.5262   7.0621   7.0623   7.0623   7.0625

          k =-0.4993-0.5007 0.0000 (  5208 PWs)   bands (ev):

   -64.8274 -64.8274 -64.8274 -64.8264 -31.6192 -31.6190 -31.6188 -31.6188
   -31.5974 -31.5972 -31.5972 -31.5969 -31.5766 -31.5764 -31.5763 -31.5763
    -8.2055  -8.2053  -8.2053  -8.2053   4.2932   4.2933   4.2933   4.2935
     5.7669   5.7670   5.7673   5.7673   7.0631   7.0633   7.0633   7.0635

          k =-0.4993-0.5007 0.2500 (  5136 PWs)   bands (ev):

   -64.8274 -64.8274 -64.8274 -64.8264 -31.6316 -31.6313 -31.6313 -31.6313
   -31.5830 -31.5828 -31.5827 -31.5826 -31.5753 -31.5751 -31.5750 -31.5750
    -8.1679  -8.1678  -8.1678  -8.1677   3.6402   3.6403   3.6404   3.6404
     6.5242   6.5243   6.5245   6.5245   7.0643   7.0644   7.0644   7.0646

          k =-0.4993-0.5007-0.5000 (  5152 PWs)   bands (ev):

   -64.8274 -64.8274 -64.8274 -64.8264 -31.6400 -31.6397 -31.6397 -31.6397
   -31.5763 -31.5761 -31.5760 -31.5759 -31.5743 -31.5740 -31.5740 -31.5739
    -8.1299  -8.1297  -8.1297  -8.1297   3.2173   3.2175   3.2175   3.2175
     7.0625   7.0626   7.0627   7.0628   7.0676   7.0676   7.0678   7.0679

          k =-0.2496 0.2504 0.0000 (  5163 PWs)   bands (ev):

   -64.8318 -64.8262 -64.8258 -64.8248 -31.6218 -31.6201 -31.6195 -31.6071
   -31.5946 -31.5940 -31.5929 -31.5878 -31.5875 -31.5860 -31.5753 -31.5683
    -8.9661  -8.0665  -8.0612  -7.8903   4.1600   4.1628   4.3287   5.0713
     5.8471   6.0485   6.0622   6.4824   6.4870   6.5835   7.1733   7.5055

          k =-0.2496 0.2504-0.2500 (  5153 PWs)   bands (ev):

   -64.8308 -64.8262 -64.8262 -64.8254 -31.6252 -31.6249 -31.6248 -31.6058
   -31.5937 -31.5936 -31.5933 -31.5846 -31.5838 -31.5834 -31.5720 -31.5705
    -8.7962  -8.0326  -8.0307  -8.0289   3.9998   4.0004   4.0011   5.0892
     5.8436   5.8457   5.8478   6.7013   6.7055   6.7095   7.3549   7.3557

          k =-0.2496 0.2504 0.5000 (  5134 PWs)   bands (ev):

   -64.8286 -64.8282 -64.8262 -64.8256 -31.6278 -31.6276 -31.6210 -31.6209
   -31.5930 -31.5928 -31.5804 -31.5803 -31.5784 -31.5782 -31.5771 -31.5770
    -8.3992  -8.3991  -7.9972  -7.9971   3.8214   3.8215   4.1979   4.1980
     5.8303   5.8303   6.7402   6.7404   6.8687   6.8688   7.0160   7.0160

     highest occupied level (ev):     7.6758

!    total energy              =    -608.39285770 Ry
     Harris-Foulkes estimate   =    -608.39285770 Ry
     estimated scf accuracy    <          7.1E-11 Ry

     The total energy is the sum of the following terms:

     one-electron contribution =    -303.55959411 Ry
     hartree contribution      =     168.06910884 Ry
     xc contribution           =     -97.84645864 Ry
     ewald contribution        =    -375.05591379 Ry

     convergence has been achieved in   3 iterations

     Forces acting on atoms (cartesian axes, Ry/au):

     atom    1 type  1   force =    -0.00002938    0.00002097    0.00000000
     atom    2 type  1   force =    -0.00006011   -0.00004525    0.00000000
     atom    3 type  1   force =     0.00005348    0.00005140    0.00000000
     atom    4 type  1   force =     0.00005349   -0.00004517    0.00000000
     atom    5 type  2   force =    -0.00003043   -0.00003354    0.00000000
     atom    6 type  2   force =     0.00002454    0.00004032    0.00000000
     atom    7 type  2   force =     0.00002455   -0.00003442    0.00000000
     atom    8 type  2   force =    -0.00003615    0.00004569    0.00000000

     Total force =     0.000164     Total SCF correction =     0.000034
     SCF correction compared to forces is large: reduce conv_thr to get better values


     Computing stress (Cartesian axis) and pressure

          total   stress  (Ry/bohr**3)                   (kbar)     P=  -68.02
  -0.00048058   0.00000000   0.00000000        -70.70      0.00      0.00
   0.00000000  -0.00044485   0.00000000          0.00    -65.44      0.00
   0.00000000   0.00000000  -0.00046167          0.00      0.00    -67.91


     bfgs converged in   5 scf cycles and   4 bfgs steps
     (criteria: energy <  1.0E-05 Ry, force <  1.0E-04 Ry/Bohr)

     End of BFGS Geometry Optimization

     Final energy   =    -608.3928576990 Ry
Begin final coordinates

ATOMIC_POSITIONS (alat)
Mg      -0.000322437   0.000326945   0.000000000
Mg      -0.000338134   0.499667222   0.500000000
Mg       0.500328198   0.000342970   0.500000000
Mg       0.500328029   0.499667255   0.000000000
O        0.500362249   0.000364269   0.000000000
O       -0.000360428   0.499633793   0.000000000
O       -0.000360430   0.000364279   0.500000000
O        0.500362954   0.499633267   0.500000000
End final coordinates



     Writing output data file diamond.1.001429.70.4.save
 
     init_run     :      0.54s CPU      0.55s WALL (       1 calls)
     electrons    :     37.18s CPU     37.79s WALL (       5 calls)
     update_pot   :      0.44s CPU      0.45s WALL (       4 calls)
     forces       :      0.82s CPU      0.83s WALL (       5 calls)
     stress       :      1.89s CPU      1.89s WALL (       5 calls)

     Called by init_run:
     wfcinit      :      0.42s CPU      0.44s WALL (       1 calls)
     potinit      :      0.05s CPU      0.05s WALL (       1 calls)

     Called by electrons:
     c_bands      :     32.39s CPU     32.89s WALL (      29 calls)
     sum_band     :      4.60s CPU      4.70s WALL (      29 calls)
     v_of_rho     :      0.15s CPU      0.16s WALL (      30 calls)
     mix_rho      :      0.02s CPU      0.02s WALL (      29 calls)

     Called by c_bands:
     init_us_2    :      0.50s CPU      0.51s WALL (    2070 calls)
     cegterg      :     30.10s CPU     30.57s WALL (     870 calls)

     Called by sum_band:

     Called by *egterg:
     h_psi        :     22.39s CPU     22.85s WALL (    2817 calls)
     g_psi        :      0.16s CPU      0.16s WALL (    1917 calls)
     cdiaghg      :      4.07s CPU      4.08s WALL (    2547 calls)

     Called by h_psi:
     h_psi:pot    :     22.30s CPU     22.73s WALL (    2817 calls)
     h_psi:calbec :      1.27s CPU      1.26s WALL (    2817 calls)
     vloc_psi     :     20.01s CPU     20.43s WALL (    2817 calls)
     add_vuspsi   :      1.02s CPU      1.02s WALL (    2817 calls)

     General routines
     calbec       :      1.72s CPU      1.71s WALL (    3567 calls)
     fft          :      0.14s CPU      0.14s WALL (     462 calls)
     fftw         :     22.41s CPU     22.45s WALL (  172854 calls)
     davcio       :      0.00s CPU      0.00s WALL (      30 calls)
 
     Parallel routines
     fft_scatter  :      6.33s CPU      6.15s WALL (  173316 calls)
 
     PWSCF        :    41.30s CPU        42.05s WALL

 
   This run was terminated on:  16:12:34  22Apr2018            

=------------------------------------------------------------------------------=
   JOB DONE.
=------------------------------------------------------------------------------=
