
     Program PWSCF v.6.1 (svn rev. 13369) starts on 22Apr2018 at 19: 3:45 

     This program is part of the open-source Quantum ESPRESSO suite
     for quantum simulation of materials; please cite
         "P. Giannozzi et al., J. Phys.:Condens. Matter 21 395502 (2009);
          URL http://www.quantum-espresso.org", 
     in publications or presentations arising from this work. More details at
     http://www.quantum-espresso.org/quote

     Parallel version (MPI), running on     8 processors
     R & G space division:  proc/nbgrp/npool/nimage =       8
     Waiting for input...
     Reading input from standard input
Warning: card       &CELL ignored
Warning: card          CELL_DYNAMICS = 'BFGS' ignored
Warning: card          PRESS = 0.0D0 ignored
Warning: card          PRESS_CONV_THR = 0.01D0 ignored
Warning: card       / ignored

     Current dimensions of program PWSCF are:
     Max number of different atomic species (ntypx) = 10
     Max number of k-points (npk) =  40000
     Max angular momentum in pseudopotentials (lmaxx) =  3

     Subspace diagonalization in iterative solution of the eigenvalue problem:
     a serial algorithm will be used

 
     Parallelization info
     --------------------
     sticks:   dense  smooth     PW     G-vecs:    dense   smooth      PW
     Min         181     181     52                 5151     5151     816
     Max         182     182     53                 5153     5153     819
     Sum        1449    1449    421                41219    41219    6543
 


     bravais-lattice index     =           12
     lattice parameter (alat)  =       8.0448  a.u.
     unit-cell volume          =     520.6289 (a.u.)^3
     number of atoms/cell      =            8
     number of atomic types    =            2
     number of electrons       =        64.00
     number of Kohn-Sham states=           32
     kinetic-energy cutoff     =      70.0000  Ry
     charge density cutoff     =     280.0000  Ry
     convergence threshold     =      1.0E-08
     mixing beta               =       0.7000
     number of iterations used =            8  plain     mixing
     Exchange-correlation      = PBE ( 1  4  3  4 0 0)
     nstep                     =           50


     celldm(1)=   8.044750  celldm(2)=   1.000000  celldm(3)=   1.000022
     celldm(4)=  -0.009286  celldm(5)=   0.000000  celldm(6)=   0.000000

     crystal axes: (cart. coord. in units of alat)
               a(1) = (   1.000000   0.000000   0.000000 )  
               a(2) = (  -0.009286   0.999957   0.000000 )  
               a(3) = (   0.000000   0.000000   1.000022 )  

     reciprocal axes: (cart. coord. in units 2 pi/alat)
               b(1) = (  1.000000  0.009286  0.000000 )  
               b(2) = (  0.000000  1.000043  0.000000 )  
               b(3) = (  0.000000  0.000000  0.999978 )  


     PseudoPot. # 1 for Mg read from file:
     ../pseudo/Mg.pbe.UPF
     MD5 check sum: 4c04d8c6e0476e83eaecaf72fa8acc4d
     Pseudo is Norm-conserving, Zval = 10.0
     Generated using ONCVPSP code by D. R. Hamann
     Using radial grid of 1510 points,  4 beta functions with: 
                l(1) =   0
                l(2) =   0
                l(3) =   1
                l(4) =   1

     PseudoPot. # 2 for O  read from file:
     ../pseudo/O.pbe.UPF
     MD5 check sum: 3e3f909f7470e8921608ab6b1f57bbae
     Pseudo is Norm-conserving + core correction, Zval =  6.0
     Generated using ONCVPSP code by D. R. Hamann
     Using radial grid of  936 points,  5 beta functions with: 
                l(1) =   0
                l(2) =   0
                l(3) =   1
                l(4) =   1
                l(5) =   2

     atomic species   valence    mass     pseudopotential
        Mg            10.00    24.30500     Mg( 1.00)
        O              6.00    15.99940     O ( 1.00)

     No symmetry found



   Cartesian axes

     site n.     atom                  positions (alat units)
         1           Mg  tau(   1) = (   0.0000000   0.0000000   0.0000000  )
         2           Mg  tau(   2) = (   0.0000000   0.5000000   0.5000000  )
         3           Mg  tau(   3) = (   0.5000000   0.0000000   0.5000000  )
         4           Mg  tau(   4) = (   0.5000000   0.5000000   0.0000000  )
         5           O   tau(   5) = (   0.5000000   0.0000000   0.0000000  )
         6           O   tau(   6) = (   0.0000000   0.5000000   0.0000000  )
         7           O   tau(   7) = (   0.0000000   0.0000000   0.5000000  )
         8           O   tau(   8) = (   0.5000000   0.5000000   0.5000000  )

     number of k points=    36
                       cart. coord. in units 2pi/alat
        k(    1) = (   0.0000000   0.0000000   0.0000000), wk =   0.0312500
        k(    2) = (   0.0000000   0.0000000   0.2499946), wk =   0.0625000
        k(    3) = (   0.0000000   0.0000000  -0.4999892), wk =   0.0312500
        k(    4) = (   0.0000000   0.2500108   0.0000000), wk =   0.0625000
        k(    5) = (   0.0000000   0.2500108   0.2499946), wk =   0.0625000
        k(    6) = (   0.0000000   0.2500108  -0.4999892), wk =   0.0625000
        k(    7) = (   0.0000000  -0.5000216   0.0000000), wk =   0.0312500
        k(    8) = (   0.0000000  -0.5000216   0.2499946), wk =   0.0625000
        k(    9) = (   0.0000000  -0.5000216  -0.4999892), wk =   0.0312500
        k(   10) = (   0.2500000   0.0023216   0.0000000), wk =   0.0625000
        k(   11) = (   0.2500000   0.0023216   0.2499946), wk =   0.0625000
        k(   12) = (   0.2500000   0.0023216  -0.4999892), wk =   0.0625000
        k(   13) = (   0.2500000   0.2523324   0.0000000), wk =   0.0625000
        k(   14) = (   0.2500000   0.2523324   0.2499946), wk =   0.0625000
        k(   15) = (   0.2500000   0.2523324  -0.4999892), wk =   0.0625000
        k(   16) = (   0.2500000  -0.4977000   0.0000000), wk =   0.0625000
        k(   17) = (   0.2500000  -0.4977000   0.2499946), wk =   0.0625000
        k(   18) = (   0.2500000  -0.4977000  -0.4999892), wk =   0.0625000
        k(   19) = (   0.2500000  -0.2476892   0.0000000), wk =   0.0625000
        k(   20) = (   0.2500000  -0.2476892   0.2499946), wk =   0.0625000
        k(   21) = (   0.2500000  -0.2476892  -0.4999892), wk =   0.0625000
        k(   22) = (  -0.5000000  -0.0046432   0.0000000), wk =   0.0312500
        k(   23) = (  -0.5000000  -0.0046432   0.2499946), wk =   0.0625000
        k(   24) = (  -0.5000000  -0.0046432  -0.4999892), wk =   0.0312500
        k(   25) = (  -0.5000000   0.2453676   0.0000000), wk =   0.0625000
        k(   26) = (  -0.5000000   0.2453676   0.2499946), wk =   0.0625000
        k(   27) = (  -0.5000000   0.2453676  -0.4999892), wk =   0.0625000
        k(   28) = (  -0.5000000  -0.5046648   0.0000000), wk =   0.0312500
        k(   29) = (  -0.5000000  -0.5046648   0.2499946), wk =   0.0625000
        k(   30) = (  -0.5000000  -0.5046648  -0.4999892), wk =   0.0312500
        k(   31) = (   0.0000000  -0.2500108   0.2499946), wk =   0.0625000
        k(   32) = (  -0.2500000  -0.0023216   0.2499946), wk =   0.0625000
        k(   33) = (  -0.2500000  -0.2523324   0.2499946), wk =   0.0625000
        k(   34) = (  -0.2500000   0.4977000   0.2499946), wk =   0.0625000
        k(   35) = (  -0.2500000   0.2476892   0.2499946), wk =   0.0625000
        k(   36) = (   0.5000000  -0.2453676   0.2499946), wk =   0.0625000

     Dense  grid:    41219 G-vectors     FFT dimensions: (  45,  45,  45)

     Estimated max dynamical RAM per process >      17.21MB

     Estimated total allocated dynamical RAM >     137.72MB

     Check: negative/imaginary core charge=   -0.000007    0.000000

     Initial potential from superposition of free atoms

     starting charge   63.99678, renormalised to   64.00000
     Starting wfc are   36 randomized atomic wfcs

     total cpu time spent up to now is        0.6 secs

     per-process dynamical memory:    52.0 Mb

     Self-consistent Calculation

     iteration #  1     ecut=    70.00 Ry     beta=0.70
     Davidson diagonalization with overlap
     ethr =  1.00E-02,  avg # of iterations =  2.0

     total cpu time spent up to now is        1.8 secs

     total energy              =    -607.72050740 Ry
     Harris-Foulkes estimate   =    -608.84361349 Ry
     estimated scf accuracy    <       1.56064144 Ry

     iteration #  2     ecut=    70.00 Ry     beta=0.70
     Davidson diagonalization with overlap
     ethr =  2.44E-03,  avg # of iterations =  2.9

     total cpu time spent up to now is        3.1 secs

     total energy              =    -608.10572791 Ry
     Harris-Foulkes estimate   =    -608.80263443 Ry
     estimated scf accuracy    <       1.44663864 Ry

     iteration #  3     ecut=    70.00 Ry     beta=0.70
     Davidson diagonalization with overlap
     ethr =  2.26E-03,  avg # of iterations =  2.0

     total cpu time spent up to now is        4.3 secs

     total energy              =    -608.39095800 Ry
     Harris-Foulkes estimate   =    -608.39162385 Ry
     estimated scf accuracy    <       0.00676149 Ry

     iteration #  4     ecut=    70.00 Ry     beta=0.70
     Davidson diagonalization with overlap
     ethr =  1.06E-05,  avg # of iterations =  2.0

     total cpu time spent up to now is        5.5 secs

     total energy              =    -608.39243782 Ry
     Harris-Foulkes estimate   =    -608.39248166 Ry
     estimated scf accuracy    <       0.00010975 Ry

     iteration #  5     ecut=    70.00 Ry     beta=0.70
     Davidson diagonalization with overlap
     ethr =  1.71E-07,  avg # of iterations =  1.6

     total cpu time spent up to now is        6.5 secs

     total energy              =    -608.39244519 Ry
     Harris-Foulkes estimate   =    -608.39244369 Ry
     estimated scf accuracy    <       0.00001029 Ry

     iteration #  6     ecut=    70.00 Ry     beta=0.70
     Davidson diagonalization with overlap
     ethr =  1.61E-08,  avg # of iterations =  2.0

     total cpu time spent up to now is        7.9 secs

     total energy              =    -608.39244676 Ry
     Harris-Foulkes estimate   =    -608.39244716 Ry
     estimated scf accuracy    <       0.00000103 Ry

     iteration #  7     ecut=    70.00 Ry     beta=0.70
     Davidson diagonalization with overlap
     ethr =  1.60E-09,  avg # of iterations =  2.0

     total cpu time spent up to now is        9.0 secs

     total energy              =    -608.39244674 Ry
     Harris-Foulkes estimate   =    -608.39244685 Ry
     estimated scf accuracy    <       0.00000026 Ry

     iteration #  8     ecut=    70.00 Ry     beta=0.70
     Davidson diagonalization with overlap
     ethr =  4.12E-10,  avg # of iterations =  2.0

     total cpu time spent up to now is       10.2 secs

     total energy              =    -608.39244675 Ry
     Harris-Foulkes estimate   =    -608.39244677 Ry
     estimated scf accuracy    <       0.00000004 Ry

     iteration #  9     ecut=    70.00 Ry     beta=0.70
     Davidson diagonalization with overlap
     ethr =  6.56E-11,  avg # of iterations =  2.0

     total cpu time spent up to now is       11.5 secs

     End of self-consistent calculation

          k = 0.0000 0.0000 0.0000 (  5149 PWs)   bands (ev):

   -64.8346 -64.8251 -64.8251 -64.8243 -31.6310 -31.6310 -31.6309 -31.5948
   -31.5935 -31.5934 -31.5928 -31.5927 -31.5913 -31.5668 -31.5652 -31.5637
    -9.3642  -7.9134  -7.9127  -7.9126   3.7586   3.7592   3.7594   6.3269
     6.3804   6.3805   6.3808   6.3812   6.4352   7.6394   7.6723   7.7070

          k = 0.0000 0.0000 0.2500 (  5153 PWs)   bands (ev):

   -64.8332 -64.8263 -64.8251 -64.8245 -31.6253 -31.6252 -31.6204 -31.5978
   -31.5976 -31.5941 -31.5940 -31.5908 -31.5866 -31.5782 -31.5734 -31.5689
    -9.1557  -8.1282  -7.8842  -7.8841   4.0467   4.0493   4.0985   5.8584
     5.8585   6.1711   6.1717   6.4922   6.5961   6.6593   7.4137   7.4895

          k = 0.0000 0.0000-0.5000 (  5130 PWs)   bands (ev):

   -64.8300 -64.8295 -64.8251 -64.8245 -31.6145 -31.6141 -31.6071 -31.6068
   -31.6019 -31.6017 -31.5912 -31.5910 -31.5828 -31.5825 -31.5782 -31.5779
    -8.6456  -8.6454  -7.8554  -7.8553   4.8411   4.8411   4.8536   4.8536
     5.1239   5.1242   5.9741   5.9745   6.9238   6.9240   7.0151   7.0152

          k = 0.0000 0.2500 0.0000 (  5167 PWs)   bands (ev):

   -64.8332 -64.8263 -64.8251 -64.8245 -31.6251 -31.6247 -31.6215 -31.5996
   -31.5984 -31.5934 -31.5928 -31.5891 -31.5887 -31.5797 -31.5716 -31.5706
    -9.1557  -8.1277  -7.8849  -7.8842   4.0488   4.0491   4.0959   5.8498
     5.8587   6.1711   6.1808   6.5433   6.5437   6.6591   7.4505   7.4519

          k = 0.0000 0.2500 0.2500 (  5153 PWs)   bands (ev):

   -64.8320 -64.8263 -64.8260 -64.8249 -31.6213 -31.6211 -31.6200 -31.6070
   -31.5945 -31.5940 -31.5928 -31.5874 -31.5865 -31.5861 -31.5754 -31.5685
    -8.9655  -8.0634  -8.0629  -7.8893   4.1615   4.1624   4.3295   5.0717
     5.8474   6.0529   6.0560   6.4858   6.4897   6.5846   7.1736   7.5072

          k = 0.0000 0.2500-0.5000 (  5148 PWs)   bands (ev):

   -64.8293 -64.8288 -64.8258 -64.8252 -31.6182 -31.6180 -31.6101 -31.6101
   -31.6064 -31.6062 -31.5853 -31.5850 -31.5837 -31.5837 -31.5751 -31.5749
    -8.5091  -8.5090  -7.9460  -7.9459   4.4191   4.4192   4.7512   4.7515
     5.0969   5.0970   6.5481   6.5484   6.5757   6.5758   7.0969   7.0969

          k = 0.0000-0.5000 0.0000 (  5128 PWs)   bands (ev):

   -64.8300 -64.8295 -64.8251 -64.8245 -31.6113 -31.6103 -31.6100 -31.6097
   -31.6025 -31.6018 -31.5920 -31.5916 -31.5805 -31.5802 -31.5799 -31.5796
    -8.6455  -8.6450  -7.8561  -7.8554   4.8456   4.8481   4.8484   4.8485
     5.1235   5.1241   5.9737   5.9773   6.9686   6.9690   6.9694   6.9696

          k = 0.0000-0.5000 0.2500 (  5154 PWs)   bands (ev):

   -64.8292 -64.8288 -64.8258 -64.8252 -31.6178 -31.6173 -31.6107 -31.6103
   -31.6069 -31.6066 -31.5854 -31.5851 -31.5838 -31.5835 -31.5753 -31.5750
    -8.5091  -8.5086  -7.9466  -7.9459   4.4184   4.4188   4.7517   4.7523
     5.0970   5.0973   6.5484   6.5502   6.5762   6.5764   7.0945   7.0954

          k = 0.0000-0.5000-0.5000 (  5180 PWs)   bands (ev):

   -64.8276 -64.8275 -64.8275 -64.8265 -31.6194 -31.6192 -31.6190 -31.6189
   -31.5968 -31.5966 -31.5966 -31.5963 -31.5760 -31.5758 -31.5757 -31.5756
    -8.2050  -8.2049  -8.2044  -8.2043   4.2937   4.2938   4.2940   4.2941
     5.7683   5.7685   5.7686   5.7688   7.0638   7.0640   7.0649   7.0651

          k = 0.2500 0.0023 0.0000 (  5167 PWs)   bands (ev):

   -64.8332 -64.8264 -64.8251 -64.8245 -31.6251 -31.6247 -31.6215 -31.5996
   -31.5983 -31.5933 -31.5930 -31.5891 -31.5887 -31.5797 -31.5716 -31.5706
    -9.1557  -8.1278  -7.8846  -7.8843   4.0488   4.0491   4.0959   5.8524
     5.8589   6.1710   6.1771   6.5435   6.5440   6.6584   7.4505   7.4525

          k = 0.2500 0.0023 0.2500 (  5153 PWs)   bands (ev):

   -64.8320 -64.8263 -64.8259 -64.8249 -31.6214 -31.6210 -31.6201 -31.6070
   -31.5949 -31.5936 -31.5929 -31.5873 -31.5866 -31.5860 -31.5754 -31.5685
    -8.9655  -8.0705  -8.0558  -7.8893   4.1494   4.1745   4.3294   5.0717
     5.8474   6.0366   6.0731   6.4788   6.4957   6.5843   7.1742   7.5068

          k = 0.2500 0.0023-0.5000 (  5148 PWs)   bands (ev):

   -64.8293 -64.8288 -64.8258 -64.8252 -31.6181 -31.6180 -31.6101 -31.6101
   -31.6065 -31.6062 -31.5853 -31.5849 -31.5837 -31.5837 -31.5750 -31.5749
    -8.5092  -8.5091  -7.9459  -7.9458   4.4181   4.4182   4.7522   4.7524
     5.0967   5.0969   6.5484   6.5486   6.5760   6.5762   7.0964   7.0965

          k = 0.2500 0.2523 0.0000 (  5159 PWs)   bands (ev):

   -64.8319 -64.8264 -64.8260 -64.8248 -31.6196 -31.6189 -31.6188 -31.6106
   -31.5949 -31.5944 -31.5943 -31.5883 -31.5881 -31.5856 -31.5757 -31.5668
    -8.9607  -8.0690  -8.0688  -7.8839   4.1644   4.1645   4.3341   5.1002
     5.8641   6.0485   6.0488   6.4954   6.4958   6.5366   7.1825   7.4733

          k = 0.2500 0.2523 0.2500 (  5156 PWs)   bands (ev):

   -64.8309 -64.8264 -64.8262 -64.8255 -31.6262 -31.6232 -31.6230 -31.6075
   -31.5966 -31.5961 -31.5949 -31.5836 -31.5835 -31.5818 -31.5722 -31.5694
    -8.7909  -8.0378  -8.0356  -8.0226   3.9935   3.9966   4.0214   5.1101
     5.8379   5.8522   5.8749   6.6601   6.7109   6.7111   7.3206   7.3604

          k = 0.2500 0.2523-0.5000 (  5152 PWs)   bands (ev):

   -64.8287 -64.8282 -64.8264 -64.8257 -31.6260 -31.6259 -31.6228 -31.6227
   -31.5967 -31.5964 -31.5797 -31.5797 -31.5791 -31.5791 -31.5761 -31.5757
    -8.3937  -8.3936  -8.0019  -8.0018   3.8121   3.8122   4.2204   4.2206
     5.8434   5.8434   6.7453   6.7456   6.8750   6.8751   6.9755   6.9756

          k = 0.2500-0.4977 0.0000 (  5153 PWs)   bands (ev):

   -64.8293 -64.8288 -64.8258 -64.8252 -31.6209 -31.6144 -31.6135 -31.6071
   -31.6070 -31.6067 -31.5861 -31.5851 -31.5848 -31.5814 -31.5774 -31.5732
    -8.5163  -8.5014  -7.9544  -7.9380   4.4083   4.4288   4.7475   4.7561
     5.0884   5.1052   6.5171   6.5647   6.5821   6.5882   7.0708   7.1196

          k = 0.2500-0.4977 0.2500 (  5137 PWs)   bands (ev):

   -64.8288 -64.8283 -64.8263 -64.8257 -31.6303 -31.6263 -31.6238 -31.6185
   -31.5934 -31.5929 -31.5820 -31.5801 -31.5792 -31.5785 -31.5768 -31.5751
    -8.4058  -8.3910  -8.0044  -7.9885   3.8057   3.8381   4.1864   4.2107
     5.8229   5.8379   6.7185   6.7654   6.8523   6.8845   7.0109   7.0256

          k = 0.2500-0.4977-0.5000 (  5144 PWs)   bands (ev):

   -64.8276 -64.8275 -64.8274 -64.8265 -31.6340 -31.6338 -31.6297 -31.6296
   -31.5847 -31.5844 -31.5821 -31.5820 -31.5755 -31.5753 -31.5747 -31.5746
    -8.1747  -8.1746  -8.1596  -8.1595   3.6236   3.6237   3.6581   3.6582
     6.5002   6.5003   6.5495   6.5497   7.0581   7.0583   7.0729   7.0731

          k = 0.2500-0.2477 0.0000 (  5151 PWs)   bands (ev):

   -64.8320 -64.8263 -64.8258 -64.8249 -31.6235 -31.6233 -31.6197 -31.6048
   -31.5942 -31.5940 -31.5898 -31.5887 -31.5847 -31.5844 -31.5756 -31.5713
    -8.9702  -8.0573  -8.0571  -7.8952   4.1599   4.1600   4.3241   5.0427
     5.8317   6.0637   6.0641   6.4755   6.4761   6.6337   7.1645   7.5397

          k = 0.2500-0.2477 0.2500 (  5146 PWs)   bands (ev):

   -64.8310 -64.8263 -64.8262 -64.8255 -31.6279 -31.6276 -31.6243 -31.6045
   -31.5920 -31.5915 -31.5909 -31.5858 -31.5838 -31.5837 -31.5738 -31.5703
    -8.8004  -8.0375  -8.0241  -8.0221   3.9804   4.0054   4.0083   5.0697
     5.8182   5.8407   5.8549   6.7014   6.7016   6.7533   7.3514   7.3923

          k = 0.2500-0.2477-0.5000 (  5128 PWs)   bands (ev):

   -64.8288 -64.8284 -64.8262 -64.8256 -31.6306 -31.6304 -31.6199 -31.6198
   -31.5897 -31.5894 -31.5817 -31.5817 -31.5800 -31.5796 -31.5763 -31.5762
    -8.4036  -8.4035  -7.9906  -7.9905   3.8310   3.8311   4.1771   4.1773
     5.8184   5.8184   6.7362   6.7365   6.8641   6.8643   7.0588   7.0589

          k =-0.5000-0.0046 0.0000 (  5128 PWs)   bands (ev):

   -64.8299 -64.8295 -64.8251 -64.8246 -31.6109 -31.6108 -31.6099 -31.6098
   -31.6021 -31.6020 -31.5919 -31.5918 -31.5804 -31.5803 -31.5798 -31.5797
    -8.6453  -8.6453  -7.8557  -7.8556   4.8479   4.8479   4.8483   4.8483
     5.1235   5.1237   5.9738   5.9740   6.9690   6.9690   6.9697   6.9697

          k =-0.5000-0.0046 0.2500 (  5154 PWs)   bands (ev):

   -64.8292 -64.8288 -64.8258 -64.8252 -31.6176 -31.6175 -31.6105 -31.6104
   -31.6069 -31.6068 -31.5853 -31.5852 -31.5837 -31.5837 -31.5751 -31.5750
    -8.5090  -8.5090  -7.9460  -7.9460   4.4179   4.4180   4.7522   4.7524
     5.0973   5.0973   6.5483   6.5485   6.5771   6.5771   7.0948   7.0948

          k =-0.5000-0.0046-0.5000 (  5180 PWs)   bands (ev):

   -64.8277 -64.8275 -64.8274 -64.8265 -31.6194 -31.6193 -31.6189 -31.6189
   -31.5977 -31.5973 -31.5959 -31.5955 -31.5763 -31.5762 -31.5754 -31.5753
    -8.2146  -8.2145  -8.1947  -8.1946   4.2752   4.2754   4.3119   4.3121
     5.7452   5.7453   5.7928   5.7928   7.0539   7.0541   7.0742   7.0744

          k =-0.5000 0.2454 0.0000 (  5153 PWs)   bands (ev):

   -64.8292 -64.8288 -64.8258 -64.8252 -31.6209 -31.6144 -31.6135 -31.6070
   -31.6070 -31.6067 -31.5861 -31.5851 -31.5849 -31.5814 -31.5774 -31.5732
    -8.5163  -8.5015  -7.9543  -7.9380   4.4085   4.4289   4.7475   4.7560
     5.0884   5.1052   6.5165   6.5647   6.5814   6.5881   7.0712   7.1199

          k =-0.5000 0.2454 0.2500 (  5137 PWs)   bands (ev):

   -64.8287 -64.8283 -64.8263 -64.8257 -31.6303 -31.6263 -31.6238 -31.6185
   -31.5934 -31.5929 -31.5820 -31.5800 -31.5792 -31.5786 -31.5767 -31.5751
    -8.4059  -8.3911  -8.0042  -7.9884   3.8054   3.8378   4.1866   4.2109
     5.8231   5.8380   6.7178   6.7647   6.8527   6.8848   7.0109   7.0257

          k =-0.5000 0.2454-0.5000 (  5144 PWs)   bands (ev):

   -64.8277 -64.8275 -64.8274 -64.8265 -31.6340 -31.6338 -31.6297 -31.6296
   -31.5848 -31.5845 -31.5821 -31.5818 -31.5756 -31.5755 -31.5746 -31.5745
    -8.1775  -8.1774  -8.1568  -8.1567   3.6190   3.6191   3.6626   3.6627
     6.4950   6.4951   6.5554   6.5555   7.0549   7.0551   7.0755   7.0757

          k =-0.5000-0.5047 0.0000 (  5188 PWs)   bands (ev):

   -64.8277 -64.8275 -64.8274 -64.8265 -31.6230 -31.6226 -31.6160 -31.6157
   -31.5970 -31.5970 -31.5969 -31.5966 -31.5777 -31.5773 -31.5742 -31.5739
    -8.2158  -8.2157  -8.1936  -8.1935   4.2872   4.2872   4.3000   4.3000
     5.7542   5.7546   5.7816   5.7820   7.0274   7.0274   7.1026   7.1026

          k =-0.5000-0.5047 0.2500 (  5140 PWs)   bands (ev):

   -64.8277 -64.8275 -64.8274 -64.8265 -31.6340 -31.6338 -31.6296 -31.6294
   -31.5839 -31.5839 -31.5819 -31.5819 -31.5777 -31.5774 -31.5731 -31.5728
    -8.1781  -8.1780  -8.1562  -8.1561   3.6267   3.6268   3.6547   3.6548
     6.5207   6.5210   6.5287   6.5290   7.0286   7.0286   7.1032   7.1032

          k =-0.5000-0.5047-0.5000 (  5136 PWs)   bands (ev):

   -64.8277 -64.8275 -64.8274 -64.8265 -31.6407 -31.6405 -31.6389 -31.6387
   -31.5770 -31.5767 -31.5758 -31.5757 -31.5743 -31.5743 -31.5734 -31.5731
    -8.1399  -8.1398  -8.1182  -8.1181   3.2007   3.2008   3.2353   3.2354
     7.0293   7.0293   7.0644   7.0646   7.0668   7.0670   7.1041   7.1041

          k = 0.0000-0.2500 0.2500 (  5153 PWs)   bands (ev):

   -64.8320 -64.8263 -64.8260 -64.8249 -31.6213 -31.6211 -31.6200 -31.6070
   -31.5945 -31.5940 -31.5928 -31.5874 -31.5865 -31.5861 -31.5754 -31.5685
    -8.9655  -8.0634  -8.0629  -7.8893   4.1615   4.1624   4.3295   5.0717
     5.8474   6.0529   6.0560   6.4858   6.4897   6.5846   7.1736   7.5072

          k =-0.2500-0.0023 0.2500 (  5153 PWs)   bands (ev):

   -64.8320 -64.8263 -64.8259 -64.8249 -31.6214 -31.6210 -31.6201 -31.6070
   -31.5949 -31.5936 -31.5929 -31.5873 -31.5866 -31.5860 -31.5754 -31.5685
    -8.9655  -8.0705  -8.0558  -7.8893   4.1494   4.1745   4.3294   5.0717
     5.8474   6.0366   6.0731   6.4788   6.4957   6.5843   7.1742   7.5068

          k =-0.2500-0.2523 0.2500 (  5156 PWs)   bands (ev):

   -64.8309 -64.8264 -64.8262 -64.8255 -31.6262 -31.6232 -31.6230 -31.6075
   -31.5966 -31.5961 -31.5949 -31.5836 -31.5835 -31.5818 -31.5722 -31.5694
    -8.7909  -8.0378  -8.0356  -8.0226   3.9935   3.9966   4.0214   5.1101
     5.8379   5.8522   5.8749   6.6601   6.7109   6.7111   7.3206   7.3604

          k =-0.2500 0.4977 0.2500 (  5137 PWs)   bands (ev):

   -64.8288 -64.8283 -64.8263 -64.8257 -31.6303 -31.6263 -31.6238 -31.6185
   -31.5934 -31.5929 -31.5820 -31.5801 -31.5792 -31.5785 -31.5768 -31.5751
    -8.4058  -8.3910  -8.0044  -7.9885   3.8057   3.8381   4.1864   4.2107
     5.8229   5.8379   6.7185   6.7654   6.8523   6.8845   7.0109   7.0256

          k =-0.2500 0.2477 0.2500 (  5146 PWs)   bands (ev):

   -64.8310 -64.8263 -64.8262 -64.8255 -31.6279 -31.6276 -31.6243 -31.6045
   -31.5920 -31.5915 -31.5909 -31.5858 -31.5838 -31.5837 -31.5738 -31.5703
    -8.8004  -8.0375  -8.0241  -8.0221   3.9804   4.0054   4.0083   5.0697
     5.8182   5.8407   5.8549   6.7014   6.7016   6.7533   7.3514   7.3923

          k = 0.5000-0.2454 0.2500 (  5137 PWs)   bands (ev):

   -64.8287 -64.8283 -64.8263 -64.8257 -31.6303 -31.6263 -31.6238 -31.6185
   -31.5934 -31.5929 -31.5820 -31.5800 -31.5792 -31.5786 -31.5767 -31.5751
    -8.4059  -8.3911  -8.0042  -7.9884   3.8054   3.8378   4.1866   4.2109
     5.8231   5.8380   6.7178   6.7647   6.8527   6.8848   7.0109   7.0257

     highest occupied level (ev):     7.7070

!    total energy              =    -608.39244676 Ry
     Harris-Foulkes estimate   =    -608.39244676 Ry
     estimated scf accuracy    <          1.1E-09 Ry

     The total energy is the sum of the following terms:

     one-electron contribution =    -303.54770007 Ry
     hartree contribution      =     168.06355666 Ry
     xc contribution           =     -97.84628144 Ry
     ewald contribution        =    -375.06202190 Ry

     convergence has been achieved in   9 iterations

     Forces acting on atoms (cartesian axes, Ry/au):

     atom    1 type  1   force =     0.00219416    0.00010686   -0.00001130
     atom    2 type  1   force =    -0.00233566   -0.00011152    0.00001142
     atom    3 type  1   force =     0.00219350    0.00010691    0.00001108
     atom    4 type  1   force =    -0.00198157   -0.00010041   -0.00001099
     atom    5 type  2   force =     0.00273238    0.00005331   -0.00001290
     atom    6 type  2   force =    -0.00286114   -0.00005572   -0.00001301
     atom    7 type  2   force =     0.00273162    0.00005347    0.00001264
     atom    8 type  2   force =    -0.00267328   -0.00005291    0.00001306

     Total force =     0.007023     Total SCF correction =     0.000009


     Computing stress (Cartesian axis) and pressure

          total   stress  (Ry/bohr**3)                   (kbar)     P=  -68.11
  -0.00046398   0.00008927   0.00000000        -68.25     13.13      0.00
   0.00008927  -0.00046137  -0.00000000         13.13    -67.87     -0.00
   0.00000000  -0.00000000  -0.00046364          0.00     -0.00    -68.20


     BFGS Geometry Optimization

     number of scf cycles    =   1
     number of bfgs steps    =   0

     energy   new            =    -608.3924467583 Ry

     new trust radius        =       0.0028617160 bohr
     new conv_thr            =       0.0000000100 Ry


ATOMIC_POSITIONS (alat)
Mg       0.000272744   0.000013283  -0.000001405
Mg      -0.000290334   0.499986138   0.500001420
Mg       0.500272663   0.000013290   0.500001377
Mg       0.499753681   0.499987519  -0.000001366
O        0.500339648   0.000006627  -0.000001603
O       -0.000355654   0.499993074  -0.000001617
O        0.000339553   0.000006647   0.500001571
O        0.499667699   0.499993423   0.500001623



     Writing output data file diamond..70.4.save
     NEW-OLD atomic charge density approx. for the potential

     Check: negative/imaginary core charge=   -0.000007    0.000000

     total cpu time spent up to now is       12.2 secs

     per-process dynamical memory:    52.8 Mb

     Self-consistent Calculation

     iteration #  1     ecut=    70.00 Ry     beta=0.70
     Davidson diagonalization with overlap
     ethr =  1.00E-06,  avg # of iterations =  3.0

     Threshold (ethr) on eigenvalues was too large:
     Diagonalizing with lowered threshold

     Davidson diagonalization with overlap
     ethr =  4.91E-09,  avg # of iterations =  2.1

     total cpu time spent up to now is       15.0 secs

     total energy              =    -608.39249208 Ry
     Harris-Foulkes estimate   =    -608.39249390 Ry
     estimated scf accuracy    <       0.00000321 Ry

     iteration #  2     ecut=    70.00 Ry     beta=0.70
     Davidson diagonalization with overlap
     ethr =  5.02E-09,  avg # of iterations =  2.0

     total cpu time spent up to now is       16.2 secs

     total energy              =    -608.39249263 Ry
     Harris-Foulkes estimate   =    -608.39249265 Ry
     estimated scf accuracy    <       0.00000008 Ry

     iteration #  3     ecut=    70.00 Ry     beta=0.70
     Davidson diagonalization with overlap
     ethr =  1.25E-10,  avg # of iterations =  2.0

     total cpu time spent up to now is       17.4 secs

     End of self-consistent calculation

          k = 0.0000 0.0000 0.0000 (  5149 PWs)   bands (ev):

   -64.8347 -64.8253 -64.8252 -64.8245 -31.6311 -31.6311 -31.6310 -31.5950
   -31.5936 -31.5935 -31.5929 -31.5928 -31.5914 -31.5669 -31.5653 -31.5638
    -9.3641  -7.9134  -7.9127  -7.9126   3.7586   3.7592   3.7593   6.3269
     6.3804   6.3805   6.3808   6.3811   6.4351   7.6394   7.6724   7.7069

          k = 0.0000 0.0000 0.2500 (  5153 PWs)   bands (ev):

   -64.8333 -64.8265 -64.8253 -64.8246 -31.6254 -31.6253 -31.6205 -31.5978
   -31.5977 -31.5942 -31.5941 -31.5909 -31.5867 -31.5783 -31.5735 -31.5690
    -9.1557  -8.1282  -7.8843  -7.8842   4.0474   4.0492   4.0977   5.8584
     5.8585   6.1712   6.1716   6.4922   6.5961   6.6593   7.4137   7.4894

          k = 0.0000 0.0000-0.5000 (  5130 PWs)   bands (ev):

   -64.8301 -64.8296 -64.8252 -64.8246 -31.6145 -31.6142 -31.6072 -31.6069
   -31.6020 -31.6019 -31.5913 -31.5911 -31.5829 -31.5826 -31.5783 -31.5780
    -8.6455  -8.6454  -7.8555  -7.8554   4.8412   4.8413   4.8537   4.8538
     5.1237   5.1239   5.9742   5.9744   6.9238   6.9239   7.0151   7.0152

          k = 0.0000 0.2500 0.0000 (  5167 PWs)   bands (ev):

   -64.8333 -64.8265 -64.8252 -64.8246 -31.6252 -31.6249 -31.6216 -31.5997
   -31.5985 -31.5935 -31.5929 -31.5892 -31.5888 -31.5798 -31.5717 -31.5707
    -9.1557  -8.1277  -7.8849  -7.8842   4.0488   4.0491   4.0959   5.8505
     5.8588   6.1711   6.1799   6.5434   6.5436   6.6590   7.4505   7.4520

          k = 0.0000 0.2500 0.2500 (  5153 PWs)   bands (ev):

   -64.8321 -64.8264 -64.8261 -64.8250 -31.6214 -31.6212 -31.6201 -31.6071
   -31.5946 -31.5941 -31.5929 -31.5875 -31.5866 -31.5862 -31.5755 -31.5686
    -8.9655  -8.0634  -8.0629  -7.8893   4.1616   4.1623   4.3295   5.0718
     5.8474   6.0530   6.0561   6.4858   6.4896   6.5845   7.1736   7.5071

          k = 0.0000 0.2500-0.5000 (  5148 PWs)   bands (ev):

   -64.8294 -64.8289 -64.8260 -64.8253 -31.6183 -31.6181 -31.6102 -31.6102
   -31.6065 -31.6063 -31.5854 -31.5851 -31.5838 -31.5838 -31.5752 -31.5750
    -8.5091  -8.5090  -7.9460  -7.9460   4.4191   4.4192   4.7513   4.7515
     5.0968   5.0970   6.5483   6.5485   6.5755   6.5757   7.0967   7.0968

          k = 0.0000-0.5000 0.0000 (  5128 PWs)   bands (ev):

   -64.8301 -64.8296 -64.8252 -64.8247 -31.6113 -31.6105 -31.6101 -31.6098
   -31.6025 -31.6019 -31.5921 -31.5918 -31.5806 -31.5804 -31.5800 -31.5797
    -8.6454  -8.6450  -7.8561  -7.8554   4.8460   4.8482   4.8484   4.8486
     5.1234   5.1241   5.9736   5.9767   6.9686   6.9691   6.9694   6.9696

          k = 0.0000-0.5000 0.2500 (  5154 PWs)   bands (ev):

   -64.8294 -64.8289 -64.8259 -64.8254 -31.6179 -31.6175 -31.6107 -31.6104
   -31.6070 -31.6067 -31.5855 -31.5852 -31.5839 -31.5837 -31.5754 -31.5751
    -8.5091  -8.5087  -7.9465  -7.9459   4.4183   4.4188   4.7516   4.7522
     5.0970   5.0975   6.5484   6.5499   6.5763   6.5764   7.0945   7.0953

          k = 0.0000-0.5000-0.5000 (  5180 PWs)   bands (ev):

   -64.8277 -64.8277 -64.8276 -64.8266 -31.6195 -31.6193 -31.6191 -31.6191
   -31.5969 -31.5967 -31.5967 -31.5964 -31.5761 -31.5759 -31.5758 -31.5757
    -8.2049  -8.2049  -8.2044  -8.2043   4.2936   4.2937   4.2939   4.2941
     5.7683   5.7684   5.7687   5.7690   7.0639   7.0640   7.0647   7.0649

          k = 0.2500 0.0023 0.0000 (  5167 PWs)   bands (ev):

   -64.8333 -64.8265 -64.8252 -64.8246 -31.6252 -31.6249 -31.6216 -31.5997
   -31.5985 -31.5934 -31.5931 -31.5892 -31.5888 -31.5798 -31.5717 -31.5707
    -9.1557  -8.1278  -7.8847  -7.8843   4.0488   4.0491   4.0959   5.8524
     5.8589   6.1711   6.1773   6.5435   6.5439   6.6584   7.4505   7.4524

          k = 0.2500 0.0023 0.2500 (  5153 PWs)   bands (ev):

   -64.8321 -64.8265 -64.8261 -64.8250 -31.6215 -31.6211 -31.6202 -31.6071
   -31.5949 -31.5937 -31.5930 -31.5875 -31.5866 -31.5861 -31.5755 -31.5686
    -8.9655  -8.0694  -8.0569  -7.8893   4.1514   4.1726   4.3294   5.0717
     5.8474   6.0393   6.0703   6.4800   6.4946   6.5842   7.1741   7.5069

          k = 0.2500 0.0023-0.5000 (  5148 PWs)   bands (ev):

   -64.8294 -64.8289 -64.8259 -64.8253 -31.6182 -31.6181 -31.6102 -31.6102
   -31.6066 -31.6063 -31.5854 -31.5850 -31.5838 -31.5838 -31.5751 -31.5750
    -8.5092  -8.5091  -7.9459  -7.9459   4.4183   4.4185   4.7519   4.7521
     5.0967   5.0969   6.5484   6.5487   6.5759   6.5760   7.0964   7.0966

          k = 0.2500 0.2523 0.0000 (  5159 PWs)   bands (ev):

   -64.8320 -64.8265 -64.8261 -64.8250 -31.6197 -31.6190 -31.6189 -31.6107
   -31.5950 -31.5945 -31.5944 -31.5884 -31.5882 -31.5858 -31.5759 -31.5669
    -8.9607  -8.0689  -8.0688  -7.8840   4.1644   4.1645   4.3341   5.1004
     5.8641   6.0485   6.0488   6.4954   6.4957   6.5365   7.1826   7.4732

          k = 0.2500 0.2523 0.2500 (  5156 PWs)   bands (ev):

   -64.8310 -64.8265 -64.8264 -64.8257 -31.6263 -31.6233 -31.6231 -31.6076
   -31.5966 -31.5962 -31.5951 -31.5837 -31.5836 -31.5819 -31.5723 -31.5695
    -8.7909  -8.0373  -8.0356  -8.0231   3.9943   3.9966   4.0207   5.1100
     5.8405   5.8522   5.8723   6.6600   6.7109   6.7111   7.3205   7.3604

          k = 0.2500 0.2523-0.5000 (  5152 PWs)   bands (ev):

   -64.8288 -64.8284 -64.8265 -64.8259 -31.6261 -31.6260 -31.6229 -31.6228
   -31.5968 -31.5965 -31.5799 -31.5798 -31.5792 -31.5792 -31.5762 -31.5759
    -8.3937  -8.3936  -8.0019  -8.0019   3.8122   3.8123   4.2203   4.2205
     5.8434   5.8435   6.7453   6.7456   6.8749   6.8750   6.9754   6.9755

          k = 0.2500-0.4977 0.0000 (  5153 PWs)   bands (ev):

   -64.8294 -64.8289 -64.8260 -64.8253 -31.6210 -31.6145 -31.6136 -31.6072
   -31.6071 -31.6068 -31.5862 -31.5852 -31.5849 -31.5815 -31.5775 -31.5733
    -8.5163  -8.5014  -7.9544  -7.9380   4.4084   4.4288   4.7475   4.7561
     5.0884   5.1052   6.5169   6.5647   6.5819   6.5882   7.0708   7.1196

          k = 0.2500-0.4977 0.2500 (  5137 PWs)   bands (ev):

   -64.8289 -64.8284 -64.8264 -64.8258 -31.6304 -31.6264 -31.6239 -31.6186
   -31.5935 -31.5930 -31.5821 -31.5801 -31.5793 -31.5787 -31.5769 -31.5752
    -8.4058  -8.3910  -8.0044  -7.9885   3.8057   3.8381   4.1864   4.2107
     5.8230   5.8380   6.7183   6.7652   6.8523   6.8845   7.0109   7.0256

          k = 0.2500-0.4977-0.5000 (  5144 PWs)   bands (ev):

   -64.8278 -64.8276 -64.8276 -64.8266 -31.6341 -31.6339 -31.6298 -31.6297
   -31.5848 -31.5845 -31.5822 -31.5821 -31.5756 -31.5754 -31.5748 -31.5747
    -8.1747  -8.1746  -8.1596  -8.1595   3.6236   3.6237   3.6580   3.6582
     6.5002   6.5003   6.5496   6.5497   7.0580   7.0582   7.0728   7.0730

          k = 0.2500-0.2477 0.0000 (  5151 PWs)   bands (ev):

   -64.8322 -64.8264 -64.8260 -64.8251 -31.6236 -31.6234 -31.6198 -31.6049
   -31.5943 -31.5942 -31.5899 -31.5888 -31.5848 -31.5845 -31.5757 -31.5714
    -8.9702  -8.0572  -8.0571  -7.8952   4.1599   4.1600   4.3241   5.0428
     5.8317   6.0637   6.0640   6.4755   6.4759   6.6337   7.1646   7.5396

          k = 0.2500-0.2477 0.2500 (  5146 PWs)   bands (ev):

   -64.8312 -64.8265 -64.8264 -64.8256 -31.6279 -31.6277 -31.6244 -31.6046
   -31.5920 -31.5916 -31.5911 -31.5860 -31.5839 -31.5838 -31.5739 -31.5704
    -8.8004  -8.0370  -8.0241  -8.0226   3.9812   4.0054   4.0075   5.0697
     5.8208   5.8408   5.8523   6.7014   6.7015   6.7533   7.3514   7.3922

          k = 0.2500-0.2477-0.5000 (  5128 PWs)   bands (ev):

   -64.8290 -64.8285 -64.8264 -64.8257 -31.6307 -31.6305 -31.6200 -31.6199
   -31.5898 -31.5895 -31.5818 -31.5818 -31.5801 -31.5797 -31.5764 -31.5763
    -8.4035  -8.4035  -7.9906  -7.9905   3.8311   3.8312   4.1770   4.1772
     5.8185   5.8185   6.7362   6.7365   6.8640   6.8642   7.0587   7.0589

          k =-0.5000-0.0046 0.0000 (  5128 PWs)   bands (ev):

   -64.8301 -64.8297 -64.8252 -64.8247 -31.6110 -31.6109 -31.6100 -31.6099
   -31.6022 -31.6021 -31.5920 -31.5919 -31.5806 -31.5804 -31.5799 -31.5798
    -8.6454  -8.6451  -7.8558  -7.8556   4.8477   4.8480   4.8482   4.8484
     5.1234   5.1237   5.9738   5.9742   6.9689   6.9691   6.9694   6.9696

          k =-0.5000-0.0046 0.2500 (  5154 PWs)   bands (ev):

   -64.8294 -64.8290 -64.8259 -64.8254 -31.6177 -31.6176 -31.6106 -31.6105
   -31.6070 -31.6069 -31.5854 -31.5853 -31.5838 -31.5838 -31.5752 -31.5752
    -8.5091  -8.5088  -7.9462  -7.9460   4.4181   4.4182   4.7520   4.7523
     5.0972   5.0975   6.5484   6.5486   6.5768   6.5770   7.0948   7.0948

          k =-0.5000-0.0046-0.5000 (  5180 PWs)   bands (ev):

   -64.8278 -64.8276 -64.8275 -64.8266 -31.6195 -31.6194 -31.6190 -31.6190
   -31.5977 -31.5973 -31.5961 -31.5957 -31.5763 -31.5762 -31.5755 -31.5755
    -8.2131  -8.2130  -8.1962  -8.1961   4.2781   4.2782   4.3091   4.3093
     5.7487   5.7489   5.7890   5.7893   7.0554   7.0556   7.0726   7.0729

          k =-0.5000 0.2454 0.0000 (  5153 PWs)   bands (ev):

   -64.8294 -64.8289 -64.8259 -64.8253 -31.6210 -31.6145 -31.6136 -31.6071
   -31.6071 -31.6068 -31.5862 -31.5852 -31.5850 -31.5815 -31.5775 -31.5733
    -8.5163  -8.5015  -7.9543  -7.9380   4.4085   4.4289   4.7475   4.7560
     5.0884   5.1052   6.5165   6.5647   6.5814   6.5881   7.0710   7.1198

          k =-0.5000 0.2454 0.2500 (  5137 PWs)   bands (ev):

   -64.8289 -64.8285 -64.8264 -64.8258 -31.6304 -31.6264 -31.6239 -31.6186
   -31.5935 -31.5930 -31.5822 -31.5801 -31.5793 -31.5787 -31.5769 -31.5752
    -8.4059  -8.3910  -8.0043  -7.9884   3.8055   3.8379   4.1865   4.2108
     5.8231   5.8380   6.7178   6.7647   6.8526   6.8847   7.0109   7.0256

          k =-0.5000 0.2454-0.5000 (  5144 PWs)   bands (ev):

   -64.8278 -64.8276 -64.8275 -64.8266 -31.6341 -31.6339 -31.6298 -31.6297
   -31.5849 -31.5846 -31.5822 -31.5820 -31.5757 -31.5756 -31.5747 -31.5747
    -8.1768  -8.1768  -8.1575  -8.1574   3.6201   3.6203   3.6614   3.6616
     6.4964   6.4965   6.5539   6.5540   7.0556   7.0558   7.0747   7.0750

          k =-0.5000-0.5047 0.0000 (  5188 PWs)   bands (ev):

   -64.8278 -64.8276 -64.8275 -64.8266 -31.6231 -31.6227 -31.6161 -31.6158
   -31.5972 -31.5971 -31.5970 -31.5967 -31.5778 -31.5774 -31.5743 -31.5740
    -8.2158  -8.2157  -8.1936  -8.1935   4.2871   4.2873   4.2999   4.3001
     5.7543   5.7546   5.7816   5.7819   7.0273   7.0274   7.1024   7.1026

          k =-0.5000-0.5047 0.2500 (  5140 PWs)   bands (ev):

   -64.8278 -64.8276 -64.8275 -64.8266 -31.6341 -31.6339 -31.6297 -31.6295
   -31.5841 -31.5840 -31.5820 -31.5820 -31.5778 -31.5775 -31.5732 -31.5729
    -8.1781  -8.1780  -8.1562  -8.1561   3.6267   3.6268   3.6547   3.6549
     6.5208   6.5210   6.5288   6.5290   7.0284   7.0285   7.1031   7.1032

          k =-0.5000-0.5047-0.5000 (  5136 PWs)   bands (ev):

   -64.8278 -64.8276 -64.8275 -64.8266 -31.6408 -31.6406 -31.6390 -31.6388
   -31.5771 -31.5768 -31.5759 -31.5758 -31.5744 -31.5744 -31.5735 -31.5732
    -8.1399  -8.1398  -8.1181  -8.1181   3.2006   3.2008   3.2352   3.2354
     7.0291   7.0292   7.0644   7.0646   7.0668   7.0670   7.1040   7.1041

          k = 0.0000-0.2500 0.2500 (  5153 PWs)   bands (ev):

   -64.8321 -64.8264 -64.8261 -64.8250 -31.6214 -31.6212 -31.6201 -31.6071
   -31.5946 -31.5941 -31.5929 -31.5875 -31.5866 -31.5862 -31.5755 -31.5686
    -8.9655  -8.0634  -8.0629  -7.8893   4.1616   4.1623   4.3295   5.0718
     5.8474   6.0530   6.0561   6.4858   6.4896   6.5845   7.1736   7.5071

          k =-0.2500-0.0023 0.2500 (  5153 PWs)   bands (ev):

   -64.8321 -64.8265 -64.8261 -64.8250 -31.6215 -31.6211 -31.6202 -31.6071
   -31.5949 -31.5937 -31.5930 -31.5875 -31.5866 -31.5861 -31.5755 -31.5686
    -8.9655  -8.0694  -8.0569  -7.8893   4.1514   4.1726   4.3294   5.0717
     5.8474   6.0393   6.0703   6.4800   6.4946   6.5842   7.1741   7.5069

          k =-0.2500-0.2523 0.2500 (  5156 PWs)   bands (ev):

   -64.8310 -64.8265 -64.8264 -64.8257 -31.6263 -31.6233 -31.6231 -31.6076
   -31.5966 -31.5962 -31.5951 -31.5837 -31.5836 -31.5819 -31.5723 -31.5695
    -8.7909  -8.0373  -8.0356  -8.0231   3.9943   3.9966   4.0207   5.1100
     5.8405   5.8522   5.8723   6.6600   6.7109   6.7111   7.3205   7.3604

          k =-0.2500 0.4977 0.2500 (  5137 PWs)   bands (ev):

   -64.8289 -64.8284 -64.8264 -64.8258 -31.6304 -31.6264 -31.6239 -31.6186
   -31.5935 -31.5930 -31.5821 -31.5801 -31.5793 -31.5787 -31.5769 -31.5752
    -8.4058  -8.3910  -8.0044  -7.9885   3.8057   3.8381   4.1864   4.2107
     5.8230   5.8380   6.7183   6.7652   6.8523   6.8845   7.0109   7.0256

          k =-0.2500 0.2477 0.2500 (  5146 PWs)   bands (ev):

   -64.8312 -64.8265 -64.8264 -64.8256 -31.6279 -31.6277 -31.6244 -31.6046
   -31.5920 -31.5916 -31.5911 -31.5860 -31.5839 -31.5838 -31.5739 -31.5704
    -8.8004  -8.0370  -8.0241  -8.0226   3.9812   4.0054   4.0075   5.0697
     5.8208   5.8408   5.8523   6.7014   6.7015   6.7533   7.3514   7.3922

          k = 0.5000-0.2454 0.2500 (  5137 PWs)   bands (ev):

   -64.8289 -64.8285 -64.8264 -64.8258 -31.6304 -31.6264 -31.6239 -31.6186
   -31.5935 -31.5930 -31.5822 -31.5801 -31.5793 -31.5787 -31.5769 -31.5752
    -8.4059  -8.3910  -8.0043  -7.9884   3.8055   3.8379   4.1865   4.2108
     5.8231   5.8380   6.7178   6.7647   6.8526   6.8847   7.0109   7.0256

     highest occupied level (ev):     7.7069

!    total energy              =    -608.39249264 Ry
     Harris-Foulkes estimate   =    -608.39249264 Ry
     estimated scf accuracy    <          7.0E-09 Ry

     The total energy is the sum of the following terms:

     one-electron contribution =    -303.54859748 Ry
     hartree contribution      =     168.06406853 Ry
     xc contribution           =     -97.84631237 Ry
     ewald contribution        =    -375.06165132 Ry

     convergence has been achieved in   3 iterations

     Forces acting on atoms (cartesian axes, Ry/au):

     atom    1 type  1   force =     0.00195310    0.00005687   -0.00000688
     atom    2 type  1   force =    -0.00208519   -0.00006146    0.00000655
     atom    3 type  1   force =     0.00199680    0.00005737    0.00000655
     atom    4 type  1   force =    -0.00183971   -0.00005458   -0.00000720
     atom    5 type  2   force =     0.00232776    0.00003381   -0.00000971
     atom    6 type  2   force =    -0.00240527   -0.00003513   -0.00000965
     atom    7 type  2   force =     0.00233183    0.00003740    0.00001052
     atom    8 type  2   force =    -0.00227931   -0.00003429    0.00000983

     Total force =     0.006115     Total SCF correction =     0.000132


     Computing stress (Cartesian axis) and pressure

          total   stress  (Ry/bohr**3)                   (kbar)     P=  -68.07
  -0.00046364   0.00008926   0.00000000        -68.20     13.13      0.00
   0.00008926  -0.00046129   0.00000000         13.13    -67.86      0.00
   0.00000000   0.00000000  -0.00046323          0.00      0.00    -68.14


     number of scf cycles    =   2
     number of bfgs steps    =   1

     energy   old            =    -608.3924467583 Ry
     energy   new            =    -608.3924926397 Ry

     CASE: energy  _new < energy  _old


     WARNING: bfgs curvature condition failed, Theta= 0.919
     new trust radius        =       0.0031478876 bohr
     new conv_thr            =       0.0000000005 Ry


ATOMIC_POSITIONS (alat)
Mg       0.000588440   0.000023142  -0.000002572
Mg      -0.000627275   0.499975545   0.500002542
Mg       0.500594651   0.000023221   0.500002494
Mg       0.499457633   0.499978091  -0.000002575
O        0.500717722   0.000012330  -0.000003203
O       -0.000746903   0.499987143  -0.000003211
O        0.000718202   0.000012870   0.500003284
O        0.499297528   0.499987657   0.500003242



     Writing output data file diamond..70.4.save
     NEW-OLD atomic charge density approx. for the potential

     Check: negative/imaginary core charge=   -0.000007    0.000000

     total cpu time spent up to now is       18.0 secs

     per-process dynamical memory:    52.8 Mb

     Self-consistent Calculation

     iteration #  1     ecut=    70.00 Ry     beta=0.70
     Davidson diagonalization with overlap
     ethr =  1.00E-06,  avg # of iterations =  3.0

     Threshold (ethr) on eigenvalues was too large:
     Diagonalizing with lowered threshold

     Davidson diagonalization with overlap
     ethr =  5.90E-09,  avg # of iterations =  2.3

     total cpu time spent up to now is       20.9 secs

     total energy              =    -608.39253578 Ry
     Harris-Foulkes estimate   =    -608.39253796 Ry
     estimated scf accuracy    <       0.00000387 Ry

     iteration #  2     ecut=    70.00 Ry     beta=0.70
     Davidson diagonalization with overlap
     ethr =  6.04E-09,  avg # of iterations =  2.0

     total cpu time spent up to now is       22.0 secs

     total energy              =    -608.39253643 Ry
     Harris-Foulkes estimate   =    -608.39253647 Ry
     estimated scf accuracy    <       0.00000011 Ry

     iteration #  3     ecut=    70.00 Ry     beta=0.70
     Davidson diagonalization with overlap
     ethr =  1.76E-10,  avg # of iterations =  2.5

     total cpu time spent up to now is       23.3 secs

     total energy              =    -608.39253645 Ry
     Harris-Foulkes estimate   =    -608.39253646 Ry
     estimated scf accuracy    <       0.00000003 Ry

     iteration #  4     ecut=    70.00 Ry     beta=0.70
     Davidson diagonalization with overlap
     ethr =  4.55E-11,  avg # of iterations =  3.0

     total cpu time spent up to now is       24.6 secs

     total energy              =    -608.39253645 Ry
     Harris-Foulkes estimate   =    -608.39253646 Ry
     estimated scf accuracy    <       0.00000002 Ry

     iteration #  5     ecut=    70.00 Ry     beta=0.70
     Davidson diagonalization with overlap
     ethr =  2.93E-11,  avg # of iterations =  2.3

     total cpu time spent up to now is       25.8 secs

     End of self-consistent calculation

          k = 0.0000 0.0000 0.0000 (  5149 PWs)   bands (ev):

   -64.8347 -64.8252 -64.8252 -64.8244 -31.6311 -31.6310 -31.6309 -31.5949
   -31.5936 -31.5934 -31.5928 -31.5927 -31.5913 -31.5668 -31.5652 -31.5637
    -9.3642  -7.9134  -7.9128  -7.9127   3.7585   3.7592   3.7592   6.3269
     6.3804   6.3805   6.3807   6.3811   6.4351   7.6393   7.6724   7.7068

          k = 0.0000 0.0000 0.2500 (  5153 PWs)   bands (ev):

   -64.8332 -64.8264 -64.8252 -64.8246 -31.6253 -31.6252 -31.6205 -31.5978
   -31.5977 -31.5942 -31.5941 -31.5908 -31.5866 -31.5782 -31.5734 -31.5689
    -9.1558  -8.1282  -7.8844  -7.8843   4.0480   4.0492   4.0970   5.8584
     5.8585   6.1712   6.1716   6.4921   6.5960   6.6592   7.4136   7.4893

          k = 0.0000 0.0000-0.5000 (  5130 PWs)   bands (ev):

   -64.8301 -64.8296 -64.8252 -64.8246 -31.6145 -31.6142 -31.6071 -31.6068
   -31.6019 -31.6018 -31.5912 -31.5911 -31.5829 -31.5825 -31.5783 -31.5780
    -8.6456  -8.6455  -7.8556  -7.8555   4.8413   4.8413   4.8539   4.8539
     5.1234   5.1236   5.9741   5.9744   6.9237   6.9238   7.0150   7.0151

          k = 0.0000 0.2500 0.0000 (  5167 PWs)   bands (ev):

   -64.8332 -64.8264 -64.8252 -64.8246 -31.6251 -31.6248 -31.6215 -31.5996
   -31.5984 -31.5934 -31.5929 -31.5892 -31.5888 -31.5798 -31.5717 -31.5707
    -9.1557  -8.1278  -7.8849  -7.8843   4.0488   4.0491   4.0958   5.8511
     5.8587   6.1710   6.1791   6.5433   6.5435   6.6588   7.4505   7.4519

          k = 0.0000 0.2500 0.2500 (  5153 PWs)   bands (ev):

   -64.8320 -64.8264 -64.8260 -64.8249 -31.6213 -31.6212 -31.6201 -31.6070
   -31.5945 -31.5940 -31.5929 -31.5874 -31.5865 -31.5862 -31.5754 -31.5685
    -8.9656  -8.0634  -8.0630  -7.8894   4.1616   4.1623   4.3294   5.0718
     5.8473   6.0530   6.0560   6.4857   6.4894   6.5843   7.1736   7.5070

          k = 0.0000 0.2500-0.5000 (  5148 PWs)   bands (ev):

   -64.8293 -64.8288 -64.8259 -64.8253 -31.6182 -31.6180 -31.6101 -31.6101
   -31.6064 -31.6062 -31.5853 -31.5850 -31.5838 -31.5837 -31.5751 -31.5749
    -8.5092  -8.5091  -7.9461  -7.9460   4.4190   4.4191   4.7512   4.7515
     5.0968   5.0969   6.5483   6.5485   6.5755   6.5755   7.0966   7.0966

          k = 0.0000-0.5000 0.0000 (  5128 PWs)   bands (ev):

   -64.8300 -64.8296 -64.8252 -64.8246 -31.6112 -31.6105 -31.6100 -31.6098
   -31.6024 -31.6019 -31.5920 -31.5917 -31.5806 -31.5803 -31.5800 -31.5796
    -8.6453  -8.6452  -7.8561  -7.8556   4.8463   4.8481   4.8483   4.8486
     5.1233   5.1239   5.9736   5.9760   6.9686   6.9691   6.9692   6.9695

          k = 0.0000-0.5000 0.2500 (  5154 PWs)   bands (ev):

   -64.8293 -64.8289 -64.8259 -64.8253 -31.6178 -31.6174 -31.6106 -31.6104
   -31.6069 -31.6067 -31.5854 -31.5852 -31.5838 -31.5836 -31.5753 -31.5750
    -8.5090  -8.5089  -7.9465  -7.9461   4.4183   4.4188   4.7516   4.7521
     5.0969   5.0975   6.5483   6.5495   6.5763   6.5764   7.0944   7.0951

          k = 0.0000-0.5000-0.5000 (  5180 PWs)   bands (ev):

   -64.8276 -64.8276 -64.8275 -64.8266 -31.6194 -31.6192 -31.6191 -31.6190
   -31.5969 -31.5966 -31.5966 -31.5964 -31.5760 -31.5758 -31.5757 -31.5757
    -8.2049  -8.2048  -8.2046  -8.2045   4.2936   4.2937   4.2938   4.2940
     5.7683   5.7684   5.7688   5.7689   7.0638   7.0640   7.0645   7.0646

          k = 0.2500 0.0023 0.0000 (  5167 PWs)   bands (ev):

   -64.8332 -64.8264 -64.8251 -64.8246 -31.6251 -31.6248 -31.6215 -31.5996
   -31.5984 -31.5933 -31.5931 -31.5892 -31.5887 -31.5798 -31.5717 -31.5707
    -9.1557  -8.1278  -7.8847  -7.8844   4.0488   4.0491   4.0958   5.8524
     5.8588   6.1710   6.1773   6.5434   6.5437   6.6584   7.4505   7.4522

          k = 0.2500 0.0023 0.2500 (  5153 PWs)   bands (ev):

   -64.8320 -64.8264 -64.8260 -64.8249 -31.6214 -31.6211 -31.6201 -31.6070
   -31.5948 -31.5937 -31.5929 -31.5874 -31.5866 -31.5861 -31.5754 -31.5685
    -8.9656  -8.0682  -8.0582  -7.8894   4.1535   4.1704   4.3294   5.0718
     5.8473   6.0422   6.0672   6.4813   6.4933   6.5842   7.1739   7.5068

          k = 0.2500 0.0023-0.5000 (  5148 PWs)   bands (ev):

   -64.8293 -64.8289 -64.8259 -64.8253 -31.6182 -31.6180 -31.6101 -31.6101
   -31.6065 -31.6062 -31.5853 -31.5850 -31.5837 -31.5837 -31.5751 -31.5749
    -8.5092  -8.5091  -7.9461  -7.9460   4.4185   4.4187   4.7517   4.7519
     5.0967   5.0968   6.5484   6.5486   6.5757   6.5757   7.0963   7.0965

          k = 0.2500 0.2523 0.0000 (  5159 PWs)   bands (ev):

   -64.8319 -64.8265 -64.8260 -64.8249 -31.6196 -31.6189 -31.6188 -31.6106
   -31.5949 -31.5945 -31.5943 -31.5883 -31.5882 -31.5857 -31.5758 -31.5668
    -8.9608  -8.0690  -8.0689  -7.8841   4.1643   4.1645   4.3341   5.1004
     5.8640   6.0484   6.0488   6.4953   6.4955   6.5363   7.1825   7.4731

          k = 0.2500 0.2523 0.2500 (  5156 PWs)   bands (ev):

   -64.8309 -64.8265 -64.8263 -64.8256 -31.6262 -31.6232 -31.6230 -31.6075
   -31.5965 -31.5961 -31.5951 -31.5836 -31.5836 -31.5818 -31.5722 -31.5694
    -8.7909  -8.0368  -8.0357  -8.0237   3.9950   3.9965   4.0198   5.1100
     5.8433   5.8522   5.8694   6.6599   6.7108   6.7110   7.3204   7.3603

          k = 0.2500 0.2523-0.5000 (  5152 PWs)   bands (ev):

   -64.8287 -64.8283 -64.8265 -64.8258 -31.6260 -31.6259 -31.6229 -31.6228
   -31.5967 -31.5964 -31.5798 -31.5797 -31.5792 -31.5791 -31.5761 -31.5758
    -8.3937  -8.3936  -8.0021  -8.0020   3.8123   3.8124   4.2201   4.2203
     5.8434   5.8434   6.7453   6.7455   6.8747   6.8749   6.9753   6.9754

          k = 0.2500-0.4977 0.0000 (  5153 PWs)   bands (ev):

   -64.8293 -64.8289 -64.8259 -64.8253 -31.6209 -31.6144 -31.6136 -31.6071
   -31.6070 -31.6067 -31.5861 -31.5852 -31.5849 -31.5814 -31.5775 -31.5732
    -8.5164  -8.5015  -7.9544  -7.9381   4.4084   4.4289   4.7474   4.7560
     5.0883   5.1051   6.5167   6.5647   6.5816   6.5881   7.0707   7.1195

          k = 0.2500-0.4977 0.2500 (  5137 PWs)   bands (ev):

   -64.8288 -64.8284 -64.8264 -64.8257 -31.6303 -31.6263 -31.6238 -31.6185
   -31.5934 -31.5929 -31.5821 -31.5801 -31.5792 -31.5786 -31.5768 -31.5752
    -8.4059  -8.3910  -8.0044  -7.9886   3.8057   3.8381   4.1863   4.2106
     5.8230   5.8380   6.7181   6.7650   6.8522   6.8844   7.0108   7.0254

          k = 0.2500-0.4977-0.5000 (  5144 PWs)   bands (ev):

   -64.8277 -64.8275 -64.8275 -64.8266 -31.6340 -31.6338 -31.6297 -31.6296
   -31.5847 -31.5844 -31.5822 -31.5820 -31.5755 -31.5754 -31.5747 -31.5747
    -8.1748  -8.1747  -8.1597  -8.1596   3.6235   3.6237   3.6580   3.6581
     6.5002   6.5003   6.5496   6.5497   7.0579   7.0581   7.0727   7.0728

          k = 0.2500-0.2477 0.0000 (  5151 PWs)   bands (ev):

   -64.8321 -64.8263 -64.8259 -64.8250 -31.6235 -31.6233 -31.6198 -31.6048
   -31.5942 -31.5941 -31.5898 -31.5888 -31.5847 -31.5845 -31.5757 -31.5713
    -8.9703  -8.0573  -8.0572  -7.8953   4.1598   4.1600   4.3240   5.0429
     5.8316   6.0636   6.0640   6.4754   6.4757   6.6335   7.1646   7.5395

          k = 0.2500-0.2477 0.2500 (  5146 PWs)   bands (ev):

   -64.8311 -64.8264 -64.8263 -64.8255 -31.6279 -31.6277 -31.6243 -31.6046
   -31.5919 -31.5915 -31.5911 -31.5859 -31.5838 -31.5837 -31.5738 -31.5704
    -8.8005  -8.0366  -8.0242  -8.0232   3.9819   4.0053   4.0067   5.0696
     5.8235   5.8407   5.8494   6.7013   6.7015   6.7531   7.3513   7.3921

          k = 0.2500-0.2477-0.5000 (  5128 PWs)   bands (ev):

   -64.8289 -64.8284 -64.8263 -64.8257 -31.6306 -31.6304 -31.6199 -31.6199
   -31.5897 -31.5894 -31.5817 -31.5817 -31.5800 -31.5797 -31.5764 -31.5763
    -8.4036  -8.4035  -7.9907  -7.9906   3.8312   3.8312   4.1769   4.1770
     5.8185   5.8185   6.7362   6.7364   6.8639   6.8640   7.0587   7.0587

          k =-0.5000-0.0046 0.0000 (  5128 PWs)   bands (ev):

   -64.8300 -64.8296 -64.8251 -64.8246 -31.6109 -31.6108 -31.6100 -31.6098
   -31.6021 -31.6021 -31.5919 -31.5919 -31.5805 -31.5803 -31.5799 -31.5798
    -8.6455  -8.6452  -7.8558  -7.8558   4.8476   4.8480   4.8481   4.8485
     5.1234   5.1237   5.9739   5.9742   6.9688   6.9691   6.9692   6.9695

          k =-0.5000-0.0046 0.2500 (  5154 PWs)   bands (ev):

   -64.8293 -64.8289 -64.8258 -64.8253 -31.6176 -31.6175 -31.6105 -31.6105
   -31.6069 -31.6068 -31.5853 -31.5852 -31.5838 -31.5837 -31.5752 -31.5751
    -8.5091  -8.5089  -7.9462  -7.9462   4.4181   4.4184   4.7518   4.7521
     5.0971   5.0975   6.5483   6.5486   6.5765   6.5769   7.0947   7.0948

          k =-0.5000-0.0046-0.5000 (  5180 PWs)   bands (ev):

   -64.8277 -64.8276 -64.8275 -64.8266 -31.6194 -31.6193 -31.6190 -31.6190
   -31.5975 -31.5972 -31.5961 -31.5958 -31.5762 -31.5761 -31.5755 -31.5754
    -8.2116  -8.2113  -8.1980  -8.1979   4.2811   4.2813   4.3060   4.3062
     5.7524   5.7529   5.7849   5.7852   7.0571   7.0571   7.0709   7.0712

          k =-0.5000 0.2454 0.0000 (  5153 PWs)   bands (ev):

   -64.8293 -64.8289 -64.8259 -64.8253 -31.6209 -31.6144 -31.6135 -31.6071
   -31.6070 -31.6067 -31.5861 -31.5851 -31.5849 -31.5814 -31.5775 -31.5732
    -8.5164  -8.5015  -7.9544  -7.9381   4.4085   4.4289   4.7474   4.7560
     5.0884   5.1052   6.5164   6.5647   6.5813   6.5881   7.0708   7.1196

          k =-0.5000 0.2454 0.2500 (  5137 PWs)   bands (ev):

   -64.8288 -64.8284 -64.8264 -64.8257 -31.6303 -31.6263 -31.6238 -31.6185
   -31.5934 -31.5930 -31.5821 -31.5800 -31.5793 -31.5786 -31.5768 -31.5752
    -8.4059  -8.3911  -8.0044  -7.9886   3.8056   3.8380   4.1864   4.2107
     5.8231   5.8380   6.7178   6.7647   6.8524   6.8846   7.0108   7.0255

          k =-0.5000 0.2454-0.5000 (  5144 PWs)   bands (ev):

   -64.8277 -64.8275 -64.8275 -64.8265 -31.6340 -31.6339 -31.6297 -31.6296
   -31.5848 -31.5845 -31.5821 -31.5819 -31.5756 -31.5755 -31.5747 -31.5746
    -8.1762  -8.1761  -8.1582  -8.1582   3.6213   3.6213   3.6602   3.6604
     6.4977   6.4977   6.5524   6.5525   7.0563   7.0564   7.0740   7.0742

          k =-0.5000-0.5047 0.0000 (  5188 PWs)   bands (ev):

   -64.8278 -64.8276 -64.8274 -64.8265 -31.6230 -31.6227 -31.6160 -31.6157
   -31.5971 -31.5970 -31.5969 -31.5967 -31.5777 -31.5774 -31.5743 -31.5740
    -8.2159  -8.2157  -8.1937  -8.1935   4.2870   4.2873   4.2998   4.3001
     5.7541   5.7546   5.7815   5.7820   7.0271   7.0272   7.1023   7.1024

          k =-0.5000-0.5047 0.2500 (  5140 PWs)   bands (ev):

   -64.8277 -64.8276 -64.8274 -64.8265 -31.6340 -31.6338 -31.6296 -31.6295
   -31.5840 -31.5840 -31.5820 -31.5820 -31.5778 -31.5775 -31.5731 -31.5728
    -8.1782  -8.1781  -8.1563  -8.1561   3.6266   3.6268   3.6546   3.6548
     6.5207   6.5211   6.5287   6.5290   7.0283   7.0283   7.1029   7.1030

          k =-0.5000-0.5047-0.5000 (  5136 PWs)   bands (ev):

   -64.8277 -64.8275 -64.8274 -64.8265 -31.6407 -31.6405 -31.6389 -31.6388
   -31.5770 -31.5767 -31.5758 -31.5758 -31.5743 -31.5743 -31.5734 -31.5731
    -8.1400  -8.1399  -8.1182  -8.1182   3.2006   3.2007   3.2352   3.2353
     7.0290   7.0291   7.0644   7.0646   7.0668   7.0670   7.1039   7.1039

          k = 0.0000-0.2500 0.2500 (  5153 PWs)   bands (ev):

   -64.8320 -64.8264 -64.8260 -64.8249 -31.6213 -31.6212 -31.6201 -31.6070
   -31.5945 -31.5940 -31.5929 -31.5874 -31.5865 -31.5862 -31.5754 -31.5685
    -8.9656  -8.0634  -8.0630  -7.8894   4.1616   4.1623   4.3294   5.0718
     5.8473   6.0530   6.0560   6.4857   6.4894   6.5843   7.1736   7.5070

          k =-0.2500-0.0023 0.2500 (  5153 PWs)   bands (ev):

   -64.8320 -64.8264 -64.8260 -64.8249 -31.6214 -31.6211 -31.6201 -31.6070
   -31.5948 -31.5937 -31.5929 -31.5874 -31.5866 -31.5861 -31.5754 -31.5685
    -8.9656  -8.0682  -8.0582  -7.8894   4.1535   4.1704   4.3294   5.0718
     5.8473   6.0422   6.0672   6.4813   6.4933   6.5842   7.1739   7.5068

          k =-0.2500-0.2523 0.2500 (  5156 PWs)   bands (ev):

   -64.8309 -64.8265 -64.8263 -64.8256 -31.6262 -31.6232 -31.6230 -31.6075
   -31.5965 -31.5961 -31.5951 -31.5836 -31.5836 -31.5818 -31.5722 -31.5694
    -8.7909  -8.0368  -8.0357  -8.0237   3.9950   3.9965   4.0198   5.1100
     5.8433   5.8522   5.8694   6.6599   6.7108   6.7110   7.3204   7.3603

          k =-0.2500 0.4977 0.2500 (  5137 PWs)   bands (ev):

   -64.8288 -64.8284 -64.8264 -64.8257 -31.6303 -31.6263 -31.6238 -31.6185
   -31.5934 -31.5929 -31.5821 -31.5801 -31.5792 -31.5786 -31.5768 -31.5752
    -8.4059  -8.3910  -8.0044  -7.9886   3.8057   3.8381   4.1863   4.2106
     5.8230   5.8380   6.7181   6.7650   6.8522   6.8844   7.0108   7.0254

          k =-0.2500 0.2477 0.2500 (  5146 PWs)   bands (ev):

   -64.8311 -64.8264 -64.8263 -64.8255 -31.6279 -31.6277 -31.6243 -31.6046
   -31.5919 -31.5915 -31.5911 -31.5859 -31.5838 -31.5837 -31.5738 -31.5704
    -8.8005  -8.0366  -8.0242  -8.0232   3.9819   4.0053   4.0067   5.0696
     5.8235   5.8407   5.8494   6.7013   6.7015   6.7531   7.3513   7.3921

          k = 0.5000-0.2454 0.2500 (  5137 PWs)   bands (ev):

   -64.8288 -64.8284 -64.8264 -64.8257 -31.6303 -31.6263 -31.6238 -31.6185
   -31.5934 -31.5930 -31.5821 -31.5800 -31.5793 -31.5786 -31.5768 -31.5752
    -8.4059  -8.3911  -8.0044  -7.9886   3.8056   3.8380   4.1864   4.2107
     5.8231   5.8380   6.7178   6.7647   6.8524   6.8846   7.0108   7.0255

     highest occupied level (ev):     7.7068

!    total energy              =    -608.39253646 Ry
     Harris-Foulkes estimate   =    -608.39253646 Ry
     estimated scf accuracy    <          6.2E-11 Ry

     The total energy is the sum of the following terms:

     one-electron contribution =    -303.54939233 Ry
     hartree contribution      =     168.06450942 Ry
     xc contribution           =     -97.84635387 Ry
     ewald contribution        =    -375.06129967 Ry

     convergence has been achieved in   5 iterations

     Forces acting on atoms (cartesian axes, Ry/au):

     atom    1 type  1   force =     0.00159943    0.00002887   -0.00000591
     atom    2 type  1   force =    -0.00173650   -0.00003307    0.00000616
     atom    3 type  1   force =     0.00171210    0.00003087    0.00000612
     atom    4 type  1   force =    -0.00156861   -0.00002815   -0.00000628
     atom    5 type  2   force =     0.00186223    0.00001434   -0.00000512
     atom    6 type  2   force =    -0.00187938   -0.00001351   -0.00000509
     atom    7 type  2   force =     0.00181985    0.00001313    0.00000503
     atom    8 type  2   force =    -0.00180913   -0.00001249    0.00000510

     Total force =     0.004955     Total SCF correction =     0.000025


     Computing stress (Cartesian axis) and pressure

          total   stress  (Ry/bohr**3)                   (kbar)     P=  -68.06
  -0.00046355   0.00008926   0.00000000        -68.19     13.13      0.00
   0.00008926  -0.00046142   0.00000000         13.13    -67.88      0.00
   0.00000000   0.00000000  -0.00046306          0.00      0.00    -68.12


     number of scf cycles    =   3
     number of bfgs steps    =   2

     energy   old            =    -608.3924926397 Ry
     energy   new            =    -608.3925364567 Ry

     CASE: energy  _new < energy  _old

     new trust radius        =       0.0047218314 bohr
     new conv_thr            =       0.0000000004 Ry


ATOMIC_POSITIONS (alat)
Mg       0.001079084   0.000034331  -0.000004455
Mg      -0.001157739   0.499963114   0.500004475
Mg       0.501113147   0.000034898   0.500004411
Mg       0.498982984   0.499967303  -0.000004547
O        0.501295043   0.000018061  -0.000005025
O       -0.001333818   0.499981509  -0.000005026
O        0.001285641   0.000018429   0.500005101
O        0.498735659   0.499982357   0.500005066



     Writing output data file diamond..70.4.save
     NEW-OLD atomic charge density approx. for the potential

     Check: negative/imaginary core charge=   -0.000007    0.000000

     total cpu time spent up to now is       26.5 secs

     per-process dynamical memory:    52.8 Mb

     Self-consistent Calculation

     iteration #  1     ecut=    70.00 Ry     beta=0.70
     Davidson diagonalization with overlap
     ethr =  1.00E-06,  avg # of iterations =  3.0

     Threshold (ethr) on eigenvalues was too large:
     Diagonalizing with lowered threshold

     Davidson diagonalization with overlap
     ethr =  1.36E-08,  avg # of iterations =  2.1

     total cpu time spent up to now is       29.3 secs

     total energy              =    -608.39258548 Ry
     Harris-Foulkes estimate   =    -608.39259037 Ry
     estimated scf accuracy    <       0.00000874 Ry

     iteration #  2     ecut=    70.00 Ry     beta=0.70
     Davidson diagonalization with overlap
     ethr =  1.37E-08,  avg # of iterations =  2.0

     total cpu time spent up to now is       30.5 secs

     total energy              =    -608.39258696 Ry
     Harris-Foulkes estimate   =    -608.39258702 Ry
     estimated scf accuracy    <       0.00000022 Ry

     iteration #  3     ecut=    70.00 Ry     beta=0.70
     Davidson diagonalization with overlap
     ethr =  3.39E-10,  avg # of iterations =  2.0

     total cpu time spent up to now is       31.6 secs

     total energy              =    -608.39258699 Ry
     Harris-Foulkes estimate   =    -608.39258699 Ry
     estimated scf accuracy    <       0.00000001 Ry

     iteration #  4     ecut=    70.00 Ry     beta=0.70
     Davidson diagonalization with overlap
     ethr =  2.16E-11,  avg # of iterations =  2.0

     total cpu time spent up to now is       32.8 secs

     total energy              =    -608.39258699 Ry
     Harris-Foulkes estimate   =    -608.39258699 Ry
     estimated scf accuracy    <          9.4E-10 Ry

     iteration #  5     ecut=    70.00 Ry     beta=0.70
     Davidson diagonalization with overlap
     ethr =  1.46E-12,  avg # of iterations =  3.0

     total cpu time spent up to now is       34.1 secs

     End of self-consistent calculation

          k = 0.0000 0.0000 0.0000 (  5149 PWs)   bands (ev):

   -64.8346 -64.8251 -64.8251 -64.8243 -31.6310 -31.6309 -31.6309 -31.5948
   -31.5935 -31.5934 -31.5927 -31.5927 -31.5913 -31.5667 -31.5652 -31.5636
    -9.3642  -7.9134  -7.9129  -7.9129   3.7585   3.7591   3.7591   6.3268
     6.3804   6.3804   6.3806   6.3810   6.4350   7.6392   7.6725   7.7068

          k = 0.0000 0.0000 0.2500 (  5153 PWs)   bands (ev):

   -64.8332 -64.8263 -64.8251 -64.8245 -31.6252 -31.6251 -31.6204 -31.5977
   -31.5976 -31.5941 -31.5940 -31.5908 -31.5866 -31.5781 -31.5733 -31.5689
    -9.1558  -8.1282  -7.8845  -7.8844   4.0487   4.0491   4.0962   5.8585
     5.8585   6.1712   6.1715   6.4920   6.5959   6.6592   7.4135   7.4892

          k = 0.0000 0.0000-0.5000 (  5130 PWs)   bands (ev):

   -64.8300 -64.8295 -64.8251 -64.8245 -31.6144 -31.6141 -31.6070 -31.6068
   -31.6019 -31.6018 -31.5911 -31.5910 -31.5828 -31.5825 -31.5782 -31.5779
    -8.6456  -8.6455  -7.8557  -7.8556   4.8414   4.8414   4.8539   4.8540
     5.1231   5.1233   5.9741   5.9744   6.9236   6.9237   7.0149   7.0149

          k = 0.0000 0.2500 0.0000 (  5167 PWs)   bands (ev):

   -64.8332 -64.8263 -64.8251 -64.8245 -31.6251 -31.6247 -31.6214 -31.5995
   -31.5983 -31.5933 -31.5929 -31.5891 -31.5887 -31.5797 -31.5716 -31.5706
    -9.1558  -8.1279  -7.8849  -7.8845   4.0487   4.0490   4.0957   5.8518
     5.8587   6.1710   6.1782   6.5434   6.5434   6.6586   7.4505   7.4519

          k = 0.0000 0.2500 0.2500 (  5153 PWs)   bands (ev):

   -64.8320 -64.8263 -64.8260 -64.8249 -31.6213 -31.6211 -31.6200 -31.6070
   -31.5945 -31.5939 -31.5928 -31.5873 -31.5864 -31.5861 -31.5754 -31.5685
    -8.9656  -8.0635  -8.0631  -7.8895   4.1616   4.1622   4.3293   5.0718
     5.8473   6.0530   6.0560   6.4856   6.4891   6.5842   7.1735   7.5069

          k = 0.0000 0.2500-0.5000 (  5148 PWs)   bands (ev):

   -64.8293 -64.8288 -64.8258 -64.8252 -31.6181 -31.6179 -31.6101 -31.6100
   -31.6064 -31.6061 -31.5852 -31.5850 -31.5837 -31.5837 -31.5750 -31.5748
    -8.5092  -8.5091  -7.9462  -7.9461   4.4190   4.4191   4.7512   4.7514
     5.0968   5.0968   6.5484   6.5486   6.5753   6.5754   7.0964   7.0964

          k = 0.0000-0.5000 0.0000 (  5128 PWs)   bands (ev):

   -64.8300 -64.8295 -64.8251 -64.8245 -31.6110 -31.6105 -31.6099 -31.6097
   -31.6022 -31.6019 -31.5919 -31.5917 -31.5805 -31.5802 -31.5799 -31.5796
    -8.6454  -8.6453  -7.8561  -7.8557   4.8467   4.8480   4.8484   4.8485
     5.1233   5.1238   5.9736   5.9752   6.9686   6.9690   6.9691   6.9693

          k = 0.0000-0.5000 0.2500 (  5154 PWs)   bands (ev):

   -64.8292 -64.8288 -64.8258 -64.8252 -31.6177 -31.6174 -31.6105 -31.6103
   -31.6068 -31.6066 -31.5853 -31.5851 -31.5837 -31.5836 -31.5752 -31.5750
    -8.5091  -8.5089  -7.9465  -7.9462   4.4183   4.4187   4.7515   4.7520
     5.0969   5.0976   6.5483   6.5490   6.5762   6.5765   7.0944   7.0949

          k = 0.0000-0.5000-0.5000 (  5180 PWs)   bands (ev):

   -64.8275 -64.8275 -64.8275 -64.8265 -31.6193 -31.6191 -31.6190 -31.6190
   -31.5968 -31.5966 -31.5966 -31.5963 -31.5759 -31.5757 -31.5757 -31.5756
    -8.2049  -8.2048  -8.2047  -8.2047   4.2935   4.2936   4.2937   4.2939
     5.7683   5.7683   5.7689   5.7690   7.0638   7.0640   7.0642   7.0644

          k = 0.2500 0.0023 0.0000 (  5167 PWs)   bands (ev):

   -64.8332 -64.8263 -64.8251 -64.8245 -31.6251 -31.6247 -31.6214 -31.5995
   -31.5983 -31.5932 -31.5930 -31.5891 -31.5887 -31.5797 -31.5716 -31.5706
    -9.1558  -8.1279  -7.8848  -7.8845   4.0487   4.0490   4.0957   5.8523
     5.8587   6.1710   6.1774   6.5434   6.5435   6.6584   7.4505   7.4520

          k = 0.2500 0.0023 0.2500 (  5153 PWs)   bands (ev):

   -64.8320 -64.8263 -64.8259 -64.8249 -31.6213 -31.6210 -31.6200 -31.6069
   -31.5946 -31.5937 -31.5929 -31.5873 -31.5865 -31.5861 -31.5754 -31.5685
    -8.9656  -8.0665  -8.0601  -7.8895   4.1566   4.1671   4.3293   5.0718
     5.8472   6.0466   6.0625   6.4831   6.4914   6.5841   7.1737   7.5068

          k = 0.2500 0.0023-0.5000 (  5148 PWs)   bands (ev):

   -64.8293 -64.8288 -64.8258 -64.8252 -31.6181 -31.6179 -31.6101 -31.6101
   -31.6064 -31.6061 -31.5852 -31.5849 -31.5837 -31.5837 -31.5750 -31.5749
    -8.5092  -8.5091  -7.9462  -7.9461   4.4188   4.4189   4.7514   4.7516
     5.0968   5.0968   6.5484   6.5486   6.5754   6.5755   7.0963   7.0964

          k = 0.2500 0.2523 0.0000 (  5159 PWs)   bands (ev):

   -64.8319 -64.8264 -64.8260 -64.8248 -31.6196 -31.6189 -31.6187 -31.6106
   -31.5948 -31.5944 -31.5943 -31.5882 -31.5881 -31.5856 -31.5757 -31.5667
    -8.9608  -8.0691  -8.0689  -7.8842   4.1642   4.1645   4.3340   5.1005
     5.8639   6.0483   6.0487   6.4953   6.4954   6.5361   7.1825   7.4729

          k = 0.2500 0.2523 0.2500 (  5156 PWs)   bands (ev):

   -64.8309 -64.8264 -64.8263 -64.8255 -31.6261 -31.6231 -31.6230 -31.6074
   -31.5963 -31.5960 -31.5952 -31.5835 -31.5835 -31.5818 -31.5722 -31.5694
    -8.7910  -8.0363  -8.0358  -8.0244   3.9958   3.9965   4.0189   5.1099
     5.8474   5.8522   5.8652   6.6598   6.7107   6.7109   7.3203   7.3603

          k = 0.2500 0.2523-0.5000 (  5152 PWs)   bands (ev):

   -64.8287 -64.8282 -64.8264 -64.8258 -31.6260 -31.6258 -31.6228 -31.6227
   -31.5966 -31.5963 -31.5797 -31.5797 -31.5791 -31.5791 -31.5760 -31.5757
    -8.3937  -8.3937  -8.0022  -8.0021   3.8123   3.8124   4.2200   4.2201
     5.8435   5.8435   6.7452   6.7455   6.8746   6.8747   6.9752   6.9752

          k = 0.2500-0.4977 0.0000 (  5153 PWs)   bands (ev):

   -64.8293 -64.8288 -64.8258 -64.8252 -31.6208 -31.6143 -31.6135 -31.6070
   -31.6070 -31.6066 -31.5860 -31.5851 -31.5848 -31.5814 -31.5774 -31.5731
    -8.5164  -8.5016  -7.9545  -7.9382   4.4084   4.4289   4.7473   4.7559
     5.0883   5.1051   6.5165   6.5646   6.5814   6.5881   7.0706   7.1194

          k = 0.2500-0.4977 0.2500 (  5137 PWs)   bands (ev):

   -64.8288 -64.8283 -64.8263 -64.8257 -31.6303 -31.6262 -31.6237 -31.6184
   -31.5933 -31.5929 -31.5820 -31.5800 -31.5792 -31.5786 -31.5768 -31.5751
    -8.4059  -8.3911  -8.0045  -7.9887   3.8056   3.8381   4.1862   4.2105
     5.8231   5.8380   6.7178   6.7648   6.8522   6.8844   7.0106   7.0253

          k = 0.2500-0.4977-0.5000 (  5144 PWs)   bands (ev):

   -64.8276 -64.8275 -64.8274 -64.8265 -31.6339 -31.6338 -31.6297 -31.6295
   -31.5846 -31.5844 -31.5821 -31.5820 -31.5755 -31.5753 -31.5747 -31.5746
    -8.1748  -8.1748  -8.1597  -8.1597   3.6235   3.6236   3.6579   3.6580
     6.5002   6.5002   6.5496   6.5497   7.0578   7.0579   7.0725   7.0727

          k = 0.2500-0.2477 0.0000 (  5151 PWs)   bands (ev):

   -64.8320 -64.8262 -64.8259 -64.8250 -31.6234 -31.6232 -31.6197 -31.6047
   -31.5941 -31.5940 -31.5898 -31.5887 -31.5846 -31.5844 -31.5756 -31.5713
    -8.9703  -8.0574  -8.0573  -7.8954   4.1597   4.1600   4.3240   5.0429
     5.8315   6.0635   6.0640   6.4754   6.4755   6.6334   7.1645   7.5394

          k = 0.2500-0.2477 0.2500 (  5146 PWs)   bands (ev):

   -64.8310 -64.8263 -64.8262 -64.8255 -31.6278 -31.6276 -31.6243 -31.6045
   -31.5917 -31.5914 -31.5911 -31.5858 -31.5838 -31.5837 -31.5737 -31.5703
    -8.8005  -8.0360  -8.0243  -8.0239   3.9827   4.0053   4.0059   5.0695
     5.8276   5.8407   5.8453   6.7012   6.7014   6.7530   7.3512   7.3919

          k = 0.2500-0.2477-0.5000 (  5128 PWs)   bands (ev):

   -64.8288 -64.8284 -64.8262 -64.8256 -31.6305 -31.6303 -31.6199 -31.6198
   -31.5896 -31.5893 -31.5816 -31.5816 -31.5799 -31.5796 -31.5763 -31.5762
    -8.4036  -8.4036  -7.9908  -7.9907   3.8312   3.8313   4.1767   4.1768
     5.8185   5.8185   6.7361   6.7364   6.8637   6.8639   7.0585   7.0586

          k =-0.5000-0.0046 0.0000 (  5128 PWs)   bands (ev):

   -64.8299 -64.8295 -64.8251 -64.8246 -31.6108 -31.6107 -31.6099 -31.6097
   -31.6021 -31.6020 -31.5918 -31.5918 -31.5804 -31.5803 -31.5798 -31.5797
    -8.6456  -8.6451  -7.8560  -7.8558   4.8473   4.8477   4.8482   4.8486
     5.1233   5.1237   5.9739   5.9742   6.9687   6.9689   6.9692   6.9694

          k =-0.5000-0.0046 0.2500 (  5154 PWs)   bands (ev):

   -64.8292 -64.8288 -64.8258 -64.8252 -31.6176 -31.6175 -31.6104 -31.6104
   -31.6068 -31.6067 -31.5853 -31.5851 -31.5837 -31.5837 -31.5751 -31.5750
    -8.5093  -8.5088  -7.9464  -7.9463   4.4182   4.4186   4.7516   4.7519
     5.0969   5.0977   6.5483   6.5486   6.5762   6.5768   7.0945   7.0947

          k =-0.5000-0.0046-0.5000 (  5180 PWs)   bands (ev):

   -64.8276 -64.8275 -64.8274 -64.8265 -31.6193 -31.6192 -31.6189 -31.6189
   -31.5972 -31.5969 -31.5963 -31.5959 -31.5761 -31.5760 -31.5755 -31.5755
    -8.2092  -8.2088  -8.2006  -8.2004   4.2858   4.2859   4.3013   4.3015
     5.7581   5.7589   5.7786   5.7793   7.0596   7.0596   7.0682   7.0686

          k =-0.5000 0.2454 0.0000 (  5153 PWs)   bands (ev):

   -64.8292 -64.8288 -64.8258 -64.8252 -31.6208 -31.6143 -31.6135 -31.6070
   -31.6069 -31.6067 -31.5860 -31.5851 -31.5848 -31.5814 -31.5774 -31.5731
    -8.5164  -8.5016  -7.9545  -7.9382   4.4085   4.4289   4.7473   4.7559
     5.0883   5.1051   6.5163   6.5646   6.5813   6.5880   7.0707   7.1194

          k =-0.5000 0.2454 0.2500 (  5137 PWs)   bands (ev):

   -64.8287 -64.8283 -64.8263 -64.8257 -31.6303 -31.6262 -31.6237 -31.6184
   -31.5933 -31.5929 -31.5820 -31.5800 -31.5792 -31.5786 -31.5767 -31.5751
    -8.4059  -8.3911  -8.0045  -7.9887   3.8056   3.8380   4.1862   4.2106
     5.8231   5.8380   6.7177   6.7646   6.8523   6.8845   7.0107   7.0253

          k =-0.5000 0.2454-0.5000 (  5144 PWs)   bands (ev):

   -64.8276 -64.8275 -64.8274 -64.8265 -31.6339 -31.6338 -31.6297 -31.6295
   -31.5846 -31.5844 -31.5821 -31.5819 -31.5755 -31.5754 -31.5746 -31.5746
    -8.1755  -8.1753  -8.1591  -8.1591   3.6226   3.6226   3.6588   3.6590
     6.4991   6.4992   6.5507   6.5508   7.0571   7.0572   7.0730   7.0733

          k =-0.5000-0.5047 0.0000 (  5188 PWs)   bands (ev):

   -64.8277 -64.8275 -64.8274 -64.8265 -31.6229 -31.6226 -31.6159 -31.6156
   -31.5970 -31.5969 -31.5969 -31.5966 -31.5776 -31.5773 -31.5742 -31.5739
    -8.2159  -8.2158  -8.1937  -8.1936   4.2869   4.2873   4.2997   4.3001
     5.7540   5.7546   5.7814   5.7820   7.0269   7.0271   7.1021   7.1023

          k =-0.5000-0.5047 0.2500 (  5140 PWs)   bands (ev):

   -64.8277 -64.8275 -64.8274 -64.8265 -31.6340 -31.6338 -31.6295 -31.6294
   -31.5839 -31.5839 -31.5819 -31.5819 -31.5777 -31.5774 -31.5730 -31.5728
    -8.1783  -8.1781  -8.1563  -8.1562   3.6265   3.6268   3.6546   3.6548
     6.5206   6.5211   6.5286   6.5291   7.0281   7.0282   7.1028   7.1029

          k =-0.5000-0.5047-0.5000 (  5136 PWs)   bands (ev):

   -64.8277 -64.8275 -64.8274 -64.8265 -31.6406 -31.6404 -31.6388 -31.6387
   -31.5769 -31.5767 -31.5757 -31.5757 -31.5743 -31.5742 -31.5734 -31.5731
    -8.1400  -8.1400  -8.1183  -8.1182   3.2005   3.2006   3.2352   3.2353
     7.0289   7.0289   7.0644   7.0646   7.0667   7.0670   7.1037   7.1038

          k = 0.0000-0.2500 0.2500 (  5153 PWs)   bands (ev):

   -64.8320 -64.8263 -64.8260 -64.8249 -31.6213 -31.6211 -31.6200 -31.6070
   -31.5945 -31.5939 -31.5928 -31.5873 -31.5864 -31.5861 -31.5754 -31.5685
    -8.9656  -8.0635  -8.0631  -7.8895   4.1616   4.1622   4.3293   5.0718
     5.8473   6.0530   6.0560   6.4856   6.4891   6.5842   7.1735   7.5069

          k =-0.2500-0.0023 0.2500 (  5153 PWs)   bands (ev):

   -64.8320 -64.8263 -64.8259 -64.8249 -31.6213 -31.6210 -31.6200 -31.6069
   -31.5946 -31.5937 -31.5929 -31.5873 -31.5865 -31.5861 -31.5754 -31.5685
    -8.9656  -8.0665  -8.0601  -7.8895   4.1566   4.1671   4.3293   5.0718
     5.8472   6.0466   6.0625   6.4831   6.4914   6.5841   7.1737   7.5068

          k =-0.2500-0.2523 0.2500 (  5156 PWs)   bands (ev):

   -64.8309 -64.8264 -64.8263 -64.8255 -31.6261 -31.6231 -31.6230 -31.6074
   -31.5963 -31.5960 -31.5952 -31.5835 -31.5835 -31.5818 -31.5722 -31.5694
    -8.7910  -8.0363  -8.0358  -8.0244   3.9958   3.9965   4.0189   5.1099
     5.8474   5.8522   5.8652   6.6598   6.7107   6.7109   7.3203   7.3603

          k =-0.2500 0.4977 0.2500 (  5137 PWs)   bands (ev):

   -64.8288 -64.8283 -64.8263 -64.8257 -31.6303 -31.6262 -31.6237 -31.6184
   -31.5933 -31.5929 -31.5820 -31.5800 -31.5792 -31.5786 -31.5768 -31.5751
    -8.4059  -8.3911  -8.0045  -7.9887   3.8056   3.8381   4.1862   4.2105
     5.8231   5.8380   6.7178   6.7648   6.8522   6.8844   7.0106   7.0253

          k =-0.2500 0.2477 0.2500 (  5146 PWs)   bands (ev):

   -64.8310 -64.8263 -64.8262 -64.8255 -31.6278 -31.6276 -31.6243 -31.6045
   -31.5917 -31.5914 -31.5911 -31.5858 -31.5838 -31.5837 -31.5737 -31.5703
    -8.8005  -8.0360  -8.0243  -8.0239   3.9827   4.0053   4.0059   5.0695
     5.8276   5.8407   5.8453   6.7012   6.7014   6.7530   7.3512   7.3919

          k = 0.5000-0.2454 0.2500 (  5137 PWs)   bands (ev):

   -64.8287 -64.8283 -64.8263 -64.8257 -31.6303 -31.6262 -31.6237 -31.6184
   -31.5933 -31.5929 -31.5820 -31.5800 -31.5792 -31.5786 -31.5767 -31.5751
    -8.4059  -8.3911  -8.0045  -7.9887   3.8056   3.8380   4.1862   4.2106
     5.8231   5.8380   6.7177   6.7646   6.8523   6.8845   7.0107   7.0253

     highest occupied level (ev):     7.7068

!    total energy              =    -608.39258699 Ry
     Harris-Foulkes estimate   =    -608.39258699 Ry
     estimated scf accuracy    <          2.3E-10 Ry

     The total energy is the sum of the following terms:

     one-electron contribution =    -303.55028745 Ry
     hartree contribution      =     168.06498502 Ry
     xc contribution           =     -97.84638706 Ry
     ewald contribution        =    -375.06089750 Ry

     convergence has been achieved in   5 iterations

     Forces acting on atoms (cartesian axes, Ry/au):

     atom    1 type  1   force =     0.00109904   -0.00001757   -0.00000108
     atom    2 type  1   force =    -0.00120561    0.00001528    0.00000144
     atom    3 type  1   force =     0.00125823   -0.00001594    0.00000146
     atom    4 type  1   force =    -0.00118754    0.00001544   -0.00000164
     atom    5 type  2   force =     0.00117200   -0.00000531   -0.00000072
     atom    6 type  2   force =    -0.00112613    0.00000752   -0.00000064
     atom    7 type  2   force =     0.00111843   -0.00000619    0.00000056
     atom    8 type  2   force =    -0.00112842    0.00000677    0.00000064

     Total force =     0.003290     Total SCF correction =     0.000031


     Computing stress (Cartesian axis) and pressure

          total   stress  (Ry/bohr**3)                   (kbar)     P=  -68.06
  -0.00046350   0.00008926  -0.00000000        -68.18     13.13     -0.00
   0.00008926  -0.00046164   0.00000000         13.13    -67.91      0.00
  -0.00000000   0.00000000  -0.00046292         -0.00      0.00    -68.10


     number of scf cycles    =   4
     number of bfgs steps    =   3

     energy   old            =    -608.3925364567 Ry
     energy   new            =    -608.3925869933 Ry

     CASE: energy  _new < energy  _old

     new trust radius        =       0.0070827472 bohr
     new conv_thr            =       0.0000000005 Ry


ATOMIC_POSITIONS (alat)
Mg       0.001853766   0.000041178  -0.000006566
Mg      -0.001998887   0.499954477   0.500006722
Mg       0.501955520   0.000042588   0.500006643
Mg       0.498201778   0.499960330  -0.000006887
O        0.502175447   0.000022720  -0.000007091
O       -0.002212663   0.499977476  -0.000007065
O        0.002143319   0.000022796   0.500007130
O        0.497881721   0.499978434   0.500007115



     Writing output data file diamond..70.4.save
     NEW-OLD atomic charge density approx. for the potential

     Check: negative/imaginary core charge=   -0.000007    0.000000

     total cpu time spent up to now is       34.7 secs

     per-process dynamical memory:    52.8 Mb

     Self-consistent Calculation

     iteration #  1     ecut=    70.00 Ry     beta=0.70
     Davidson diagonalization with overlap
     ethr =  1.00E-06,  avg # of iterations =  3.1

     Threshold (ethr) on eigenvalues was too large:
     Diagonalizing with lowered threshold

     Davidson diagonalization with overlap
     ethr =  3.10E-08,  avg # of iterations =  1.5

     total cpu time spent up to now is       37.6 secs

     total energy              =    -608.39262170 Ry
     Harris-Foulkes estimate   =    -608.39263259 Ry
     estimated scf accuracy    <       0.00001964 Ry

     iteration #  2     ecut=    70.00 Ry     beta=0.70
     Davidson diagonalization with overlap
     ethr =  3.07E-08,  avg # of iterations =  2.0

[...]
Mg       0.002124733   0.000007262  -0.000004613
Mg      -0.002310974   0.499991790   0.500005027
Mg       0.502378386   0.000006612   0.500004964
Mg       0.497762225   0.499993181  -0.000005216
O        0.502346659   0.000008688  -0.000005038
O       -0.002324649   0.499991985  -0.000005013
O        0.002293323   0.000009128   0.500004995
O        0.497730296   0.499991354   0.500004895



     Writing output data file diamond..70.4.save
     NEW-OLD atomic charge density approx. for the potential

     Check: negative/imaginary core charge=   -0.000007    0.000000

     total cpu time spent up to now is       67.4 secs

     per-process dynamical memory:    52.8 Mb

     Self-consistent Calculation

     iteration #  1     ecut=    70.00 Ry     beta=0.70
     Davidson diagonalization with overlap
     ethr =  1.00E-06,  avg # of iterations =  2.0

     Threshold (ethr) on eigenvalues was too large:
     Diagonalizing with lowered threshold

     Davidson diagonalization with overlap
     ethr =  5.18E-11,  avg # of iterations =  3.1

     total cpu time spent up to now is       70.3 secs

     total energy              =    -608.39262789 Ry
     Harris-Foulkes estimate   =    -608.39262793 Ry
     estimated scf accuracy    <       0.00000007 Ry

     iteration #  2     ecut=    70.00 Ry     beta=0.70
     Davidson diagonalization with overlap
     ethr =  1.12E-10,  avg # of iterations =  2.0

     total cpu time spent up to now is       71.4 secs

     total energy              =    -608.39262790 Ry
     Harris-Foulkes estimate   =    -608.39262790 Ry
     estimated scf accuracy    <          1.8E-09 Ry

     iteration #  3     ecut=    70.00 Ry     beta=0.70
     Davidson diagonalization with overlap
     ethr =  2.79E-12,  avg # of iterations =  2.0

     total cpu time spent up to now is       72.6 secs

     total energy              =    -608.39262790 Ry
     Harris-Foulkes estimate   =    -608.39262790 Ry
     estimated scf accuracy    <          1.0E-10 Ry

     iteration #  4     ecut=    70.00 Ry     beta=0.70
     Davidson diagonalization with overlap
     ethr =  1.56E-13,  avg # of iterations =  2.9

     total cpu time spent up to now is       73.9 secs

     End of self-consistent calculation

          k = 0.0000 0.0000 0.0000 (  5149 PWs)   bands (ev):

   -64.8345 -64.8251 -64.8250 -64.8243 -31.6309 -31.6309 -31.6308 -31.5948
   -31.5934 -31.5934 -31.5926 -31.5926 -31.5912 -31.5667 -31.5651 -31.5636
    -9.3643  -7.9134  -7.9130  -7.9129   3.7584   3.7591   3.7591   6.3268
     6.3804   6.3804   6.3806   6.3809   6.4350   7.6392   7.6725   7.7067

          k = 0.0000 0.0000 0.2500 (  5153 PWs)   bands (ev):

   -64.8331 -64.8263 -64.8250 -64.8245 -31.6252 -31.6251 -31.6203 -31.5976
   -31.5975 -31.5940 -31.5940 -31.5907 -31.5865 -31.5781 -31.5733 -31.5688
    -9.1559  -8.1283  -7.8846  -7.8845   4.0491   4.0491   4.0957   5.8585
     5.8585   6.1711   6.1715   6.4919   6.5958   6.6591   7.4134   7.4892

          k = 0.0000 0.0000-0.5000 (  5130 PWs)   bands (ev):

   -64.8299 -64.8295 -64.8250 -64.8245 -31.6143 -31.6140 -31.6070 -31.6067
   -31.6018 -31.6017 -31.5910 -31.5910 -31.5827 -31.5824 -31.5781 -31.5779
    -8.6456  -8.6455  -7.8558  -7.8557   4.8415   4.8415   4.8540   4.8540
     5.1229   5.1232   5.9740   5.9744   6.9235   6.9236   7.0148   7.0149

          k = 0.0000 0.2500 0.0000 (  5167 PWs)   bands (ev):

   -64.8331 -64.8263 -64.8250 -64.8245 -31.6250 -31.6247 -31.6214 -31.5994
   -31.5983 -31.5931 -31.5929 -31.5890 -31.5886 -31.5797 -31.5715 -31.5705
    -9.1558  -8.1279  -7.8849  -7.8846   4.0487   4.0490   4.0957   5.8523
     5.8586   6.1710   6.1775   6.5433   6.5434   6.6584   7.4505   7.4519

          k = 0.0000 0.2500 0.2500 (  5153 PWs)   bands (ev):

   -64.8319 -64.8262 -64.8259 -64.8249 -31.6212 -31.6210 -31.6199 -31.6069
   -31.5944 -31.5938 -31.5928 -31.5873 -31.5864 -31.5860 -31.5753 -31.5684
    -8.9656  -8.0635  -8.0632  -7.8896   4.1615   4.1621   4.3293   5.0718
     5.8472   6.0530   6.0560   6.4855   6.4890   6.5841   7.1735   7.5068

          k = 0.0000 0.2500-0.5000 (  5148 PWs)   bands (ev):

   -64.8292 -64.8288 -64.8257 -64.8252 -31.6180 -31.6178 -31.6100 -31.6100
   -31.6063 -31.6061 -31.5852 -31.5849 -31.5836 -31.5836 -31.5750 -31.5748
    -8.5092  -8.5092  -7.9463  -7.9462   4.4190   4.4190   4.7512   4.7514
     5.0967   5.0968   6.5484   6.5486   6.5753   6.5753   7.0962   7.0963

          k = 0.0000-0.5000 0.0000 (  5128 PWs)   bands (ev):

   -64.8299 -64.8295 -64.8250 -64.8245 -31.6108 -31.6105 -31.6099 -31.6096
   -31.6020 -31.6020 -31.5918 -31.5917 -31.5804 -31.5802 -31.5798 -31.5796
    -8.6454  -8.6453  -7.8560  -7.8559   4.8477   4.8478   4.8481   4.8482
     5.1233   5.1236   5.9740   5.9743   6.9689   6.9689   6.9690   6.9691

          k = 0.0000-0.5000 0.2500 (  5154 PWs)   bands (ev):

   -64.8292 -64.8288 -64.8257 -64.8252 -31.6175 -31.6174 -31.6104 -31.6103
   -31.6068 -31.6065 -31.5853 -31.5850 -31.5836 -31.5836 -31.5751 -31.5750
    -8.5091  -8.5090  -7.9464  -7.9464   4.4184   4.4185   4.7515   4.7517
     5.0972   5.0973   6.5483   6.5486   6.5763   6.5763   7.0946   7.0946

          k = 0.0000-0.5000-0.5000 (  5180 PWs)   bands (ev):

   -64.8275 -64.8274 -64.8274 -64.8265 -31.6192 -31.6190 -31.6189 -31.6189
   -31.5967 -31.5965 -31.5965 -31.5962 -31.5759 -31.5757 -31.5756 -31.5756
    -8.2049  -8.2048  -8.2048  -8.2048   4.2935   4.2936   4.2936   4.2937
     5.7685   5.7685   5.7688   5.7688   7.0638   7.0640   7.0640   7.0641

          k = 0.2500 0.0023 0.0000 (  5167 PWs)   bands (ev):

   -64.8331 -64.8263 -64.8250 -64.8245 -31.6250 -31.6247 -31.6213 -31.5995
   -31.5983 -31.5931 -31.5929 -31.5890 -31.5886 -31.5797 -31.5715 -31.5705
    -9.1558  -8.1279  -7.8849  -7.8846   4.0487   4.0490   4.0957   5.8523
     5.8586   6.1710   6.1775   6.5433   6.5434   6.6584   7.4505   7.4519

          k = 0.2500 0.0023 0.2500 (  5153 PWs)   bands (ev):

   -64.8319 -64.8263 -64.8259 -64.8249 -31.6212 -31.6210 -31.6199 -31.6069
   -31.5944 -31.5938 -31.5928 -31.5873 -31.5864 -31.5860 -31.5753 -31.5684
    -8.9656  -8.0635  -8.0632  -7.8896   4.1615   4.1621   4.3293   5.0718
     5.8472   6.0530   6.0560   6.4855   6.4890   6.5841   7.1735   7.5068

          k = 0.2500 0.0023-0.5000 (  5148 PWs)   bands (ev):

   -64.8292 -64.8288 -64.8257 -64.8252 -31.6180 -31.6178 -31.6100 -31.6100
   -31.6063 -31.6061 -31.5852 -31.5849 -31.5836 -31.5836 -31.5750 -31.5748
    -8.5092  -8.5092  -7.9463  -7.9462   4.4190   4.4190   4.7512   4.7514
     5.0967   5.0968   6.5484   6.5486   6.5753   6.5753   7.0962   7.0963

          k = 0.2500 0.2523 0.0000 (  5159 PWs)   bands (ev):

   -64.8318 -64.8263 -64.8259 -64.8248 -31.6195 -31.6188 -31.6186 -31.6105
   -31.5947 -31.5943 -31.5942 -31.5882 -31.5880 -31.5856 -31.5757 -31.5667
    -8.9609  -8.0691  -8.0690  -7.8842   4.1642   4.1643   4.3340   5.1005
     5.8639   6.0483   6.0486   6.4952   6.4953   6.5360   7.1825   7.4728

          k = 0.2500 0.2523 0.2500 (  5156 PWs)   bands (ev):

   -64.8308 -64.8263 -64.8262 -64.8255 -31.6261 -31.6230 -31.6229 -31.6073
   -31.5961 -31.5959 -31.5953 -31.5834 -31.5834 -31.5817 -31.5721 -31.5693
    -8.7910  -8.0359  -8.0358  -8.0250   3.9964   3.9965   4.0183   5.1098
     5.8520   5.8522   5.8604   6.6597   6.7106   6.7108   7.3202   7.3602

          k = 0.2500 0.2523-0.5000 (  5152 PWs)   bands (ev):

   -64.8286 -64.8282 -64.8263 -64.8257 -31.6259 -31.6257 -31.6227 -31.6226
   -31.5965 -31.5963 -31.5797 -31.5796 -31.5791 -31.5790 -31.5760 -31.5757
    -8.3938  -8.3937  -8.0023  -8.0022   3.8124   3.8124   4.2199   4.2200
     5.8434   5.8435   6.7452   6.7454   6.8745   6.8746   6.9751   6.9751

          k = 0.2500-0.4977 0.0000 (  5153 PWs)   bands (ev):

   -64.8292 -64.8287 -64.8258 -64.8252 -31.6207 -31.6143 -31.6134 -31.6070
   -31.6069 -31.6066 -31.5860 -31.5850 -31.5847 -31.5813 -31.5773 -31.5731
    -8.5165  -8.5016  -7.9546  -7.9382   4.4084   4.4289   4.7473   4.7558
     5.0883   5.1051   6.5163   6.5646   6.5812   6.5880   7.0705   7.1193

          k = 0.2500-0.4977 0.2500 (  5137 PWs)   bands (ev):

   -64.8287 -64.8282 -64.8263 -64.8257 -31.6302 -31.6261 -31.6237 -31.6184
   -31.5933 -31.5928 -31.5819 -31.5799 -31.5791 -31.5785 -31.5767 -31.5751
    -8.4060  -8.3912  -8.0046  -7.9887   3.8056   3.8380   4.1862   4.2105
     5.8231   5.8380   6.7177   6.7646   6.8521   6.8844   7.0106   7.0252

          k = 0.2500-0.4977-0.5000 (  5144 PWs)   bands (ev):

   -64.8276 -64.8274 -64.8273 -64.8265 -31.6339 -31.6337 -31.6296 -31.6295
   -31.5845 -31.5843 -31.5820 -31.5819 -31.5754 -31.5752 -31.5746 -31.5745
    -8.1749  -8.1748  -8.1598  -8.1597   3.6235   3.6235   3.6579   3.6580
     6.5002   6.5002   6.5496   6.5496   7.0576   7.0578   7.0724   7.0726

          k = 0.2500-0.2477 0.0000 (  5151 PWs)   bands (ev):

   -64.8320 -64.8262 -64.8258 -64.8249 -31.6233 -31.6231 -31.6197 -31.6047
   -31.5940 -31.5940 -31.5897 -31.5887 -31.5846 -31.5844 -31.5755 -31.5712
    -8.9703  -8.0574  -8.0573  -7.8955   4.1597   4.1598   4.3240   5.0430
     5.8315   6.0635   6.0639   6.4753   6.4754   6.6333   7.1645   7.5393

          k = 0.2500-0.2477 0.2500 (  5146 PWs)   bands (ev):

   -64.8310 -64.8263 -64.8262 -64.8255 -31.6277 -31.6275 -31.6242 -31.6044
   -31.5914 -31.5914 -31.5912 -31.5858 -31.5837 -31.5836 -31.5737 -31.5703
    -8.8006  -8.0357  -8.0244  -8.0243   3.9832   4.0052   4.0053   5.0694
     5.8321   5.8406   5.8407   6.7011   6.7013   6.7529   7.3512   7.3918

          k = 0.2500-0.2477-0.5000 (  5128 PWs)   bands (ev):

   -64.8287 -64.8283 -64.8262 -64.8256 -31.6304 -31.6303 -31.6198 -31.6197
   -31.5895 -31.5892 -31.5816 -31.5815 -31.5798 -31.5796 -31.5763 -31.5762
    -8.4037  -8.4036  -7.9909  -7.9908   3.8313   3.8313   4.1766   4.1767
     5.8185   5.8185   6.7361   6.7363   6.8636   6.8638   7.0584   7.0585

          k =-0.5000-0.0046 0.0000 (  5128 PWs)   bands (ev):

   -64.8299 -64.8295 -64.8250 -64.8245 -31.6107 -31.6106 -31.6099 -31.6097
   -31.6020 -31.6019 -31.5918 -31.5917 -31.5804 -31.5802 -31.5798 -31.5796
    -8.6458  -8.6450  -7.8560  -7.8559   4.8470   4.8474   4.8484   4.8489
     5.1232   5.1237   5.9740   5.9742   6.9685   6.9686   6.9693   6.9694

          k =-0.5000-0.0046 0.2500 (  5154 PWs)   bands (ev):

   -64.8292 -64.8288 -64.8257 -64.8252 -31.6175 -31.6174 -31.6104 -31.6103
   -31.6067 -31.6066 -31.5852 -31.5851 -31.5836 -31.5836 -31.5751 -31.5750
    -8.5094  -8.5087  -7.9465  -7.9463   4.4181   4.4188   4.7514   4.7519
     5.0966   5.0980   6.5482   6.5487   6.5758   6.5768   7.0944   7.0947

          k =-0.5000-0.0046-0.5000 (  5180 PWs)   bands (ev):

   -64.8275 -64.8274 -64.8274 -64.8265 -31.6192 -31.6191 -31.6189 -31.6189
   -31.5967 -31.5966 -31.5965 -31.5963 -31.5759 -31.5757 -31.5756 -31.5755
    -8.2051  -8.2050  -8.2046  -8.2046   4.2935   4.2936   4.2936   4.2938
     5.7679   5.7681   5.7692   5.7693   7.0638   7.0638   7.0640   7.0643

          k =-0.5000 0.2454 0.0000 (  5153 PWs)   bands (ev):

   -64.8292 -64.8288 -64.8257 -64.8252 -31.6207 -31.6143 -31.6134 -31.6070
   -31.6069 -31.6066 -31.5860 -31.5850 -31.5848 -31.5813 -31.5773 -31.5731
    -8.5165  -8.5016  -7.9546  -7.9382   4.4084   4.4289   4.7473   4.7559
     5.0882   5.1051   6.5163   6.5646   6.5812   6.5880   7.0705   7.1193

          k =-0.5000 0.2454 0.2500 (  5137 PWs)   bands (ev):

   -64.8287 -64.8283 -64.8262 -64.8257 -31.6302 -31.6261 -31.6237 -31.6184
   -31.5933 -31.5928 -31.5819 -31.5799 -31.5791 -31.5785 -31.5767 -31.5751
    -8.4060  -8.3911  -8.0046  -7.9887   3.8056   3.8380   4.1862   4.2105
     5.8231   5.8380   6.7177   6.7646   6.8521   6.8844   7.0106   7.0252

          k =-0.5000 0.2454-0.5000 (  5144 PWs)   bands (ev):

   -64.8276 -64.8274 -64.8273 -64.8265 -31.6339 -31.6337 -31.6296 -31.6295
   -31.5845 -31.5843 -31.5821 -31.5819 -31.5754 -31.5752 -31.5746 -31.5745
    -8.1749  -8.1748  -8.1598  -8.1597   3.6235   3.6235   3.6579   3.6580
     6.5002   6.5002   6.5496   6.5496   7.0576   7.0578   7.0724   7.0726

          k =-0.5000-0.5047 0.0000 (  5188 PWs)   bands (ev):

   -64.8276 -64.8275 -64.8273 -64.8265 -31.6228 -31.6225 -31.6158 -31.6156
   -31.5970 -31.5969 -31.5968 -31.5966 -31.5775 -31.5773 -31.5741 -31.5739
    -8.2160  -8.2159  -8.1938  -8.1936   4.2870   4.2871   4.2998   4.2999
     5.7541   5.7544   5.7815   5.7818   7.0269   7.0269   7.1021   7.1021

          k =-0.5000-0.5047 0.2500 (  5140 PWs)   bands (ev):

   -64.8276 -64.8275 -64.8273 -64.8265 -31.6339 -31.6337 -31.6295 -31.6293
   -31.5839 -31.5838 -31.5818 -31.5818 -31.5776 -31.5774 -31.5730 -31.5727
    -8.1783  -8.1782  -8.1564  -8.1563   3.6265   3.6266   3.6546   3.6547
     6.5207   6.5210   6.5287   6.5290   7.0280   7.0280   7.1027   7.1027

          k =-0.5000-0.5047-0.5000 (  5136 PWs)   bands (ev):

   -64.8276 -64.8274 -64.8273 -64.8265 -31.6405 -31.6403 -31.6387 -31.6386
   -31.5769 -31.5766 -31.5757 -31.5756 -31.5742 -31.5742 -31.5733 -31.5730
    -8.1401  -8.1400  -8.1184  -8.1183   3.2005   3.2006   3.2351   3.2352
     7.0288   7.0288   7.0643   7.0646   7.0667   7.0669   7.1036   7.1037

          k = 0.0000-0.2500 0.2500 (  5153 PWs)   bands (ev):

   -64.8319 -64.8262 -64.8259 -64.8249 -31.6212 -31.6210 -31.6199 -31.6069
   -31.5944 -31.5938 -31.5928 -31.5873 -31.5864 -31.5860 -31.5753 -31.5684
    -8.9656  -8.0635  -8.0632  -7.8896   4.1615   4.1621   4.3293   5.0718
     5.8472   6.0530   6.0560   6.4855   6.4890   6.5841   7.1735   7.5068

          k =-0.2500-0.0023 0.2500 (  5153 PWs)   bands (ev):

   -64.8319 -64.8263 -64.8259 -64.8249 -31.6212 -31.6210 -31.6199 -31.6069
   -31.5944 -31.5938 -31.5928 -31.5873 -31.5864 -31.5860 -31.5753 -31.5684
    -8.9656  -8.0635  -8.0632  -7.8896   4.1615   4.1621   4.3293   5.0718
     5.8472   6.0530   6.0560   6.4855   6.4890   6.5841   7.1735   7.5068

          k =-0.2500-0.2523 0.2500 (  5156 PWs)   bands (ev):

   -64.8308 -64.8263 -64.8262 -64.8255 -31.6261 -31.6230 -31.6229 -31.6073
   -31.5961 -31.5959 -31.5953 -31.5834 -31.5834 -31.5817 -31.5721 -31.5693
    -8.7910  -8.0359  -8.0358  -8.0250   3.9964   3.9965   4.0183   5.1098
     5.8520   5.8522   5.8604   6.6597   6.7106   6.7108   7.3202   7.3602

          k =-0.2500 0.4977 0.2500 (  5137 PWs)   bands (ev):

   -64.8287 -64.8282 -64.8263 -64.8257 -31.6302 -31.6261 -31.6237 -31.6184
   -31.5933 -31.5928 -31.5819 -31.5799 -31.5791 -31.5785 -31.5767 -31.5751
    -8.4060  -8.3912  -8.0046  -7.9887   3.8056   3.8380   4.1862   4.2105
     5.8231   5.8380   6.7177   6.7646   6.8521   6.8844   7.0106   7.0252

          k =-0.2500 0.2477 0.2500 (  5146 PWs)   bands (ev):

   -64.8310 -64.8263 -64.8262 -64.8255 -31.6277 -31.6275 -31.6242 -31.6044
   -31.5914 -31.5914 -31.5912 -31.5858 -31.5837 -31.5836 -31.5737 -31.5703
    -8.8006  -8.0357  -8.0244  -8.0243   3.9832   4.0052   4.0053   5.0694
     5.8321   5.8406   5.8407   6.7011   6.7013   6.7529   7.3512   7.3918

          k = 0.5000-0.2454 0.2500 (  5137 PWs)   bands (ev):

   -64.8287 -64.8283 -64.8262 -64.8257 -31.6302 -31.6261 -31.6237 -31.6184
   -31.5933 -31.5928 -31.5819 -31.5799 -31.5791 -31.5785 -31.5767 -31.5751
    -8.4060  -8.3911  -8.0046  -7.9887   3.8056   3.8380   4.1862   4.2105
     5.8231   5.8380   6.7177   6.7646   6.8521   6.8844   7.0106   7.0252

     highest occupied level (ev):     7.7067

!    total energy              =    -608.39262790 Ry
     Harris-Foulkes estimate   =    -608.39262790 Ry
     estimated scf accuracy    <          3.5E-11 Ry

     The total energy is the sum of the following terms:

     one-electron contribution =    -303.55086023 Ry
     hartree contribution      =     168.06530310 Ry
     xc contribution           =     -97.84641116 Ry
     ewald contribution        =    -375.06065961 Ry

     convergence has been achieved in   4 iterations

     Forces acting on atoms (cartesian axes, Ry/au):

     atom    1 type  1   force =    -0.00002606    0.00000961   -0.00000049
     atom    2 type  1   force =     0.00002148   -0.00000613    0.00000037
     atom    3 type  1   force =     0.00000978    0.00000738    0.00000037
     atom    4 type  1   force =    -0.00001269   -0.00000802   -0.00000040
     atom    5 type  2   force =    -0.00000999    0.00000388   -0.00000091
     atom    6 type  2   force =    -0.00001572   -0.00000574   -0.00000093
     atom    7 type  2   force =     0.00001342    0.00000550    0.00000103
     atom    8 type  2   force =     0.00001979   -0.00000649    0.00000097

     Total force =     0.000052     Total SCF correction =     0.000017
     SCF correction compared to forces is large: reduce conv_thr to get better values


     Computing stress (Cartesian axis) and pressure

          total   stress  (Ry/bohr**3)                   (kbar)     P=  -68.07
  -0.00046347   0.00008926   0.00000000        -68.18     13.13      0.00
   0.00008926  -0.00046182  -0.00000000         13.13    -67.94     -0.00
   0.00000000  -0.00000000  -0.00046280          0.00     -0.00    -68.08


     bfgs converged in   9 scf cycles and   8 bfgs steps
     (criteria: energy <  1.0E-05 Ry, force <  1.0E-04 Ry/Bohr)

     End of BFGS Geometry Optimization

     Final energy   =    -608.3926278994 Ry
Begin final coordinates

ATOMIC_POSITIONS (alat)
Mg       0.002124733   0.000007262  -0.000004613
Mg      -0.002310974   0.499991790   0.500005027
Mg       0.502378386   0.000006612   0.500004964
Mg       0.497762225   0.499993181  -0.000005216
O        0.502346659   0.000008688  -0.000005038
O       -0.002324649   0.499991985  -0.000005013
O        0.002293323   0.000009128   0.500004995
O        0.497730296   0.499991354   0.500004895
End final coordinates



     Writing output data file diamond..70.4.save
 
     init_run     :      0.50s CPU      0.52s WALL (       1 calls)
     electrons    :     66.15s CPU     68.42s WALL (       9 calls)
     update_pot   :      0.71s CPU      0.73s WALL (       8 calls)
     forces       :      1.13s CPU      1.15s WALL (       9 calls)
     stress       :      2.80s CPU      2.83s WALL (       9 calls)

     Called by init_run:
     wfcinit      :      0.42s CPU      0.43s WALL (       1 calls)
     potinit      :      0.04s CPU      0.04s WALL (       1 calls)

     Called by electrons:
     c_bands      :     58.28s CPU     60.35s WALL (      53 calls)
     sum_band     :      7.61s CPU      7.78s WALL (      53 calls)
     v_of_rho     :      0.22s CPU      0.22s WALL (      54 calls)
     mix_rho      :      0.02s CPU      0.03s WALL (      53 calls)

     Called by c_bands:
     init_us_2    :      0.80s CPU      0.87s WALL (    4500 calls)
     cegterg      :     54.75s CPU     56.61s WALL (    1908 calls)

     Called by sum_band:

     Called by *egterg:
     h_psi        :     40.96s CPU     41.96s WALL (    6539 calls)
     g_psi        :      0.14s CPU      0.16s WALL (    4595 calls)
     cdiaghg      :      8.11s CPU      8.13s WALL (    5927 calls)

     Called by h_psi:
     h_psi:pot    :     40.73s CPU     41.65s WALL (    6539 calls)
     h_psi:calbec :      1.72s CPU      1.72s WALL (    6539 calls)
     vloc_psi     :     37.64s CPU     38.53s WALL (    6539 calls)
     add_vuspsi   :      1.36s CPU      1.38s WALL (    6539 calls)

     General routines
     calbec       :      2.28s CPU      2.28s WALL (    8159 calls)
     fft          :      0.22s CPU      0.22s WALL (     834 calls)
     fftw         :     42.96s CPU     42.71s WALL (  386408 calls)
     davcio       :      0.00s CPU      0.00s WALL (      36 calls)
 
     Parallel routines
     fft_scatter  :      8.71s CPU      9.05s WALL (  387242 calls)
 
     PWSCF        :  1m11.81s CPU     1m14.41s WALL

 
   This run was terminated on:  19: 5: 0  22Apr2018            

=------------------------------------------------------------------------------=
   JOB DONE.
=------------------------------------------------------------------------------=
