
     Program PWSCF v.6.1 (svn rev. 13369) starts on 22Apr2018 at 19: 0:36 

     This program is part of the open-source Quantum ESPRESSO suite
     for quantum simulation of materials; please cite
         "P. Giannozzi et al., J. Phys.:Condens. Matter 21 395502 (2009);
          URL http://www.quantum-espresso.org", 
     in publications or presentations arising from this work. More details at
     http://www.quantum-espresso.org/quote

     Parallel version (MPI), running on     8 processors
     R & G space division:  proc/nbgrp/npool/nimage =       8
     Waiting for input...
     Reading input from standard input
Warning: card       &CELL ignored
Warning: card          CELL_DYNAMICS = 'BFGS' ignored
Warning: card          PRESS = 0.0D0 ignored
Warning: card          PRESS_CONV_THR = 0.01D0 ignored
Warning: card       / ignored

     Current dimensions of program PWSCF are:
     Max number of different atomic species (ntypx) = 10
     Max number of k-points (npk) =  40000
     Max angular momentum in pseudopotentials (lmaxx) =  3

     Subspace diagonalization in iterative solution of the eigenvalue problem:
     a serial algorithm will be used

     Found symmetry operation: I + ( -0.5000  0.0000  0.5000)
     This is a supercell, fractional translations are disabled
 
     Parallelization info
     --------------------
     sticks:   dense  smooth     PW     G-vecs:    dense   smooth      PW
     Min         180     180     52                 5150     5150     816
     Max         181     181     53                 5153     5153     819
     Sum        1445    1445    421                41207    41207    6543
 


     bravais-lattice index     =           12
     lattice parameter (alat)  =       8.0448  a.u.
     unit-cell volume          =     520.6369 (a.u.)^3
     number of atoms/cell      =            8
     number of atomic types    =            2
     number of electrons       =        64.00
     number of Kohn-Sham states=           32
     kinetic-energy cutoff     =      70.0000  Ry
     charge density cutoff     =     280.0000  Ry
     convergence threshold     =      1.0E-08
     mixing beta               =       0.7000
     number of iterations used =            8  plain     mixing
     Exchange-correlation      = PBE ( 1  4  3  4 0 0)
     nstep                     =           50


     celldm(1)=   8.044750  celldm(2)=   1.000000  celldm(3)=   1.000006
     celldm(4)=  -0.005000  celldm(5)=   0.000000  celldm(6)=   0.000000

     crystal axes: (cart. coord. in units of alat)
               a(1) = (   1.000000   0.000000   0.000000 )  
               a(2) = (  -0.005000   0.999987   0.000000 )  
               a(3) = (   0.000000   0.000000   1.000006 )  

     reciprocal axes: (cart. coord. in units 2 pi/alat)
               b(1) = (  1.000000  0.005000  0.000000 )  
               b(2) = (  0.000000  1.000013  0.000000 )  
               b(3) = (  0.000000  0.000000  0.999994 )  


     PseudoPot. # 1 for Mg read from file:
     ../pseudo/Mg.pbe.UPF
     MD5 check sum: 4c04d8c6e0476e83eaecaf72fa8acc4d
     Pseudo is Norm-conserving, Zval = 10.0
     Generated using ONCVPSP code by D. R. Hamann
     Using radial grid of 1510 points,  4 beta functions with: 
                l(1) =   0
                l(2) =   0
                l(3) =   1
                l(4) =   1

     PseudoPot. # 2 for O  read from file:
     ../pseudo/O.pbe.UPF
     MD5 check sum: 3e3f909f7470e8921608ab6b1f57bbae
     Pseudo is Norm-conserving + core correction, Zval =  6.0
     Generated using ONCVPSP code by D. R. Hamann
     Using radial grid of  936 points,  5 beta functions with: 
                l(1) =   0
                l(2) =   0
                l(3) =   1
                l(4) =   1
                l(5) =   2

     atomic species   valence    mass     pseudopotential
        Mg            10.00    24.30500     Mg( 1.00)
        O              6.00    15.99940     O ( 1.00)

      2 Sym. Ops. (no inversion) found



   Cartesian axes

     site n.     atom                  positions (alat units)
         1           Mg  tau(   1) = (   0.0000000   0.0000000   0.0000000  )
         2           Mg  tau(   2) = (   0.0000000   0.5000000   0.5000000  )
         3           Mg  tau(   3) = (   0.5000000   0.0000000   0.5000000  )
         4           Mg  tau(   4) = (   0.5000000   0.5000000   0.0000000  )
         5           O   tau(   5) = (   0.5000000   0.0000000   0.0000000  )
         6           O   tau(   6) = (   0.0000000   0.5000000   0.0000000  )
         7           O   tau(   7) = (   0.0000000   0.0000000   0.5000000  )
         8           O   tau(   8) = (   0.5000000   0.5000000   0.5000000  )

     number of k points=    30
                       cart. coord. in units 2pi/alat
        k(    1) = (   0.0000000   0.0000000   0.0000000), wk =   0.0312500
        k(    2) = (   0.0000000   0.0000000   0.2499984), wk =   0.0625000
        k(    3) = (   0.0000000   0.0000000  -0.4999969), wk =   0.0312500
        k(    4) = (   0.0000000   0.2500031   0.0000000), wk =   0.0625000
        k(    5) = (   0.0000000   0.2500031   0.2499984), wk =   0.1250000
        k(    6) = (   0.0000000   0.2500031  -0.4999969), wk =   0.0625000
        k(    7) = (   0.0000000  -0.5000063   0.0000000), wk =   0.0312500
        k(    8) = (   0.0000000  -0.5000063   0.2499984), wk =   0.0625000
        k(    9) = (   0.0000000  -0.5000063  -0.4999969), wk =   0.0312500
        k(   10) = (   0.2500000   0.0012500   0.0000000), wk =   0.0625000
        k(   11) = (   0.2500000   0.0012500   0.2499984), wk =   0.1250000
        k(   12) = (   0.2500000   0.0012500  -0.4999969), wk =   0.0625000
        k(   13) = (   0.2500000   0.2512531   0.0000000), wk =   0.0625000
        k(   14) = (   0.2500000   0.2512531   0.2499984), wk =   0.1250000
        k(   15) = (   0.2500000   0.2512531  -0.4999969), wk =   0.0625000
        k(   16) = (   0.2500000  -0.4987562   0.0000000), wk =   0.0625000
        k(   17) = (   0.2500000  -0.4987562   0.2499984), wk =   0.1250000
        k(   18) = (   0.2500000  -0.4987562  -0.4999969), wk =   0.0625000
        k(   19) = (   0.2500000  -0.2487531   0.0000000), wk =   0.0625000
        k(   20) = (   0.2500000  -0.2487531   0.2499984), wk =   0.1250000
        k(   21) = (   0.2500000  -0.2487531  -0.4999969), wk =   0.0625000
        k(   22) = (  -0.5000000  -0.0025000   0.0000000), wk =   0.0312500
        k(   23) = (  -0.5000000  -0.0025000   0.2499984), wk =   0.0625000
        k(   24) = (  -0.5000000  -0.0025000  -0.4999969), wk =   0.0312500
        k(   25) = (  -0.5000000   0.2475031   0.0000000), wk =   0.0625000
        k(   26) = (  -0.5000000   0.2475031   0.2499984), wk =   0.1250000
        k(   27) = (  -0.5000000   0.2475031  -0.4999969), wk =   0.0625000
        k(   28) = (  -0.5000000  -0.5025063   0.0000000), wk =   0.0312500
        k(   29) = (  -0.5000000  -0.5025063   0.2499984), wk =   0.0625000
        k(   30) = (  -0.5000000  -0.5025063  -0.4999969), wk =   0.0312500

     Dense  grid:    41207 G-vectors     FFT dimensions: (  45,  45,  45)

     Estimated max dynamical RAM per process >      15.33MB

     Estimated total allocated dynamical RAM >     122.65MB

     Check: negative/imaginary core charge=   -0.000007    0.000000

     Initial potential from superposition of free atoms

     starting charge   63.99678, renormalised to   64.00000
     Starting wfc are   36 randomized atomic wfcs

     total cpu time spent up to now is        0.6 secs

     per-process dynamical memory:    51.6 Mb

     Self-consistent Calculation

     iteration #  1     ecut=    70.00 Ry     beta=0.70
     Davidson diagonalization with overlap
     ethr =  1.00E-02,  avg # of iterations =  2.0

     total cpu time spent up to now is        1.6 secs

     total energy              =    -607.72022344 Ry
     Harris-Foulkes estimate   =    -608.84379260 Ry
     estimated scf accuracy    <       1.56126158 Ry

     iteration #  2     ecut=    70.00 Ry     beta=0.70
     Davidson diagonalization with overlap
     ethr =  2.44E-03,  avg # of iterations =  2.9

     total cpu time spent up to now is        2.7 secs

     total energy              =    -608.10584067 Ry
     Harris-Foulkes estimate   =    -608.80330354 Ry
     estimated scf accuracy    <       1.44792901 Ry

     iteration #  3     ecut=    70.00 Ry     beta=0.70
     Davidson diagonalization with overlap
     ethr =  2.26E-03,  avg # of iterations =  2.0

     total cpu time spent up to now is        3.7 secs

     total energy              =    -608.39127079 Ry
     Harris-Foulkes estimate   =    -608.39193461 Ry
     estimated scf accuracy    <       0.00675785 Ry

     iteration #  4     ecut=    70.00 Ry     beta=0.70
     Davidson diagonalization with overlap
     ethr =  1.06E-05,  avg # of iterations =  2.0

     total cpu time spent up to now is        4.7 secs

     total energy              =    -608.39274907 Ry
     Harris-Foulkes estimate   =    -608.39279309 Ry
     estimated scf accuracy    <       0.00011021 Ry

     iteration #  5     ecut=    70.00 Ry     beta=0.70
     Davidson diagonalization with overlap
     ethr =  1.72E-07,  avg # of iterations =  1.5

     total cpu time spent up to now is        5.5 secs

     total energy              =    -608.39275643 Ry
     Harris-Foulkes estimate   =    -608.39275493 Ry
     estimated scf accuracy    <       0.00001035 Ry

     iteration #  6     ecut=    70.00 Ry     beta=0.70
     Davidson diagonalization with overlap
     ethr =  1.62E-08,  avg # of iterations =  2.0

     total cpu time spent up to now is        6.6 secs

     total energy              =    -608.39275802 Ry
     Harris-Foulkes estimate   =    -608.39275845 Ry
     estimated scf accuracy    <       0.00000110 Ry

     iteration #  7     ecut=    70.00 Ry     beta=0.70
     Davidson diagonalization with overlap
     ethr =  1.72E-09,  avg # of iterations =  2.0

     total cpu time spent up to now is        7.6 secs

     total energy              =    -608.39275801 Ry
     Harris-Foulkes estimate   =    -608.39275813 Ry
     estimated scf accuracy    <       0.00000029 Ry

     iteration #  8     ecut=    70.00 Ry     beta=0.70
     Davidson diagonalization with overlap
     ethr =  4.46E-10,  avg # of iterations =  2.0

     total cpu time spent up to now is        8.6 secs

     total energy              =    -608.39275802 Ry
     Harris-Foulkes estimate   =    -608.39275804 Ry
     estimated scf accuracy    <       0.00000004 Ry

     iteration #  9     ecut=    70.00 Ry     beta=0.70
     Davidson diagonalization with overlap
     ethr =  6.46E-11,  avg # of iterations =  2.0

     total cpu time spent up to now is        9.8 secs

     End of self-consistent calculation

          k = 0.0000 0.0000 0.0000 (  5153 PWs)   bands (ev):

   -64.8344 -64.8249 -64.8249 -64.8241 -31.6310 -31.6310 -31.6308 -31.5944
   -31.5933 -31.5932 -31.5932 -31.5931 -31.5921 -31.5652 -31.5642 -31.5637
    -9.3645  -7.9137  -7.9135  -7.9134   3.7582   3.7583   3.7583   6.3512
     6.3801   6.3801   6.3802   6.3805   6.4094   7.6543   7.6724   7.6908

          k = 0.0000 0.0000 0.2500 (  5157 PWs)   bands (ev):

   -64.8330 -64.8261 -64.8249 -64.8243 -31.6245 -31.6245 -31.6202 -31.5979
   -31.5979 -31.5939 -31.5938 -31.5896 -31.5874 -31.5781 -31.5727 -31.5699
    -9.1561  -8.1285  -7.8850  -7.8849   4.0480   4.0488   4.0964   5.8581
     5.8582   6.1706   6.1710   6.5153   6.5714   6.6590   7.4303   7.4708

          k = 0.0000 0.0000-0.5000 (  5118 PWs)   bands (ev):

   -64.8298 -64.8293 -64.8249 -64.8243 -31.6119 -31.6116 -31.6076 -31.6074
   -31.6018 -31.6018 -31.5907 -31.5906 -31.5818 -31.5815 -31.5791 -31.5789
    -8.6460  -8.6457  -7.8562  -7.8561   4.8443   4.8444   4.8511   4.8511
     5.1230   5.1233   5.9736   5.9739   6.9440   6.9442   6.9931   6.9932

          k = 0.0000 0.2500 0.0000 (  5165 PWs)   bands (ev):

   -64.8329 -64.8261 -64.8249 -64.8243 -31.6247 -31.6243 -31.6205 -31.5987
   -31.5983 -31.5938 -31.5933 -31.5889 -31.5888 -31.5787 -31.5714 -31.5711
    -9.1561  -8.1283  -7.8852  -7.8850   4.0485   4.0486   4.0956   5.8554
     5.8582   6.1707   6.1736   6.5430   6.5431   6.6589   7.4503   7.4506

          k = 0.0000 0.2500 0.2500 (  5159 PWs)   bands (ev):

   -64.8317 -64.8261 -64.8257 -64.8247 -31.6211 -31.6208 -31.6197 -31.6070
   -31.5940 -31.5939 -31.5929 -31.5877 -31.5864 -31.5862 -31.5755 -31.5683
    -8.9659  -8.0638  -8.0636  -7.8900   4.1613   4.1617   4.3289   5.0714
     5.8471   6.0548   6.0557   6.4851   6.4862   6.5837   7.1733   7.5060

          k = 0.0000 0.2500-0.5000 (  5150 PWs)   bands (ev):

   -64.8290 -64.8286 -64.8256 -64.8250 -31.6175 -31.6173 -31.6100 -31.6099
   -31.6064 -31.6061 -31.5850 -31.5848 -31.5836 -31.5835 -31.5752 -31.5751
    -8.5096  -8.5093  -7.9467  -7.9466   4.4185   4.4187   4.7511   4.7513
     5.0963   5.0966   6.5479   6.5481   6.5756   6.5758   7.0948   7.0949

          k = 0.0000-0.5000 0.0000 (  5110 PWs)   bands (ev):

   -64.8297 -64.8293 -64.8249 -64.8243 -31.6098 -31.6094 -31.6093 -31.6091
   -31.6018 -31.6016 -31.5907 -31.5905 -31.5804 -31.5802 -31.5801 -31.5799
    -8.6458  -8.6457  -7.8564  -7.8562   4.8472   4.8480   4.8480   4.8481
     5.1230   5.1233   5.9736   5.9747   6.9684   6.9685   6.9686   6.9686

          k = 0.0000-0.5000 0.2500 (  5152 PWs)   bands (ev):

   -64.8290 -64.8286 -64.8256 -64.8250 -31.6174 -31.6171 -31.6101 -31.6100
   -31.6066 -31.6063 -31.5849 -31.5847 -31.5837 -31.5836 -31.5753 -31.5751
    -8.5095  -8.5093  -7.9468  -7.9466   4.4184   4.4185   4.7513   4.7516
     5.0964   5.0965   6.5480   6.5485   6.5759   6.5760   7.0942   7.0944

          k = 0.0000-0.5000-0.5000 (  5192 PWs)   bands (ev):

   -64.8273 -64.8273 -64.8273 -64.8263 -31.6192 -31.6190 -31.6189 -31.6189
   -31.5968 -31.5966 -31.5966 -31.5963 -31.5761 -31.5759 -31.5758 -31.5758
    -8.2053  -8.2052  -8.2051  -8.2050   4.2933   4.2934   4.2935   4.2936
     5.7676   5.7676   5.7680   5.7680   7.0634   7.0636   7.0638   7.0640

          k = 0.2500 0.0013 0.0000 (  5165 PWs)   bands (ev):

   -64.8330 -64.8261 -64.8249 -64.8243 -31.6247 -31.6243 -31.6205 -31.5987
   -31.5983 -31.5938 -31.5933 -31.5889 -31.5888 -31.5787 -31.5714 -31.5711
    -9.1561  -8.1284  -7.8851  -7.8850   4.0485   4.0486   4.0956   5.8562
     5.8583   6.1707   6.1726   6.5429   6.5433   6.6587   7.4503   7.4508

          k = 0.2500 0.0013 0.2500 (  5159 PWs)   bands (ev):

   -64.8317 -64.8261 -64.8257 -64.8247 -31.6211 -31.6207 -31.6197 -31.6070
   -31.5943 -31.5936 -31.5929 -31.5877 -31.5865 -31.5862 -31.5755 -31.5683
    -8.9659  -8.0676  -8.0597  -7.8900   4.1548   4.1683   4.3288   5.0713
     5.8471   6.0455   6.0652   6.4810   6.4900   6.5836   7.1734   7.5059

          k = 0.2500 0.0013-0.5000 (  5150 PWs)   bands (ev):

   -64.8290 -64.8286 -64.8256 -64.8250 -31.6174 -31.6173 -31.6100 -31.6099
   -31.6064 -31.6061 -31.5850 -31.5848 -31.5836 -31.5835 -31.5752 -31.5751
    -8.5096  -8.5094  -7.9467  -7.9466   4.4182   4.4184   4.7514   4.7516
     5.0962   5.0966   6.5479   6.5482   6.5757   6.5760   7.0947   7.0948

          k = 0.2500 0.2513 0.0000 (  5161 PWs)   bands (ev):

   -64.8317 -64.8261 -64.8257 -64.8246 -31.6196 -31.6195 -31.6194 -31.6089
   -31.5946 -31.5941 -31.5941 -31.5872 -31.5871 -31.5865 -31.5753 -31.5675
    -8.9634  -8.0668  -8.0667  -7.8871   4.1628   4.1628   4.3315   5.0868
     5.8559   6.0515   6.0518   6.4904   6.4906   6.5578   7.1783   7.4878

          k = 0.2500 0.2513 0.2500 (  5160 PWs)   bands (ev):

   -64.8307 -64.8261 -64.8261 -64.8253 -31.6255 -31.6237 -31.6236 -31.6067
   -31.5952 -31.5949 -31.5944 -31.5839 -31.5839 -31.5828 -31.5716 -31.5702
    -8.7935  -8.0348  -8.0336  -8.0265   3.9965   3.9982   4.0116   5.1002
     5.8413   5.8490   5.8612   6.6806   6.7080   6.7082   7.3362   7.3579

          k = 0.2500 0.2513-0.5000 (  5148 PWs)   bands (ev):

   -64.8285 -64.8281 -64.8261 -64.8255 -31.6271 -31.6269 -31.6218 -31.6217
   -31.5948 -31.5945 -31.5802 -31.5802 -31.5785 -31.5784 -31.5764 -31.5762
    -8.3964  -8.3962  -8.0000  -7.9999   3.8163   3.8164   4.2098   4.2099
     5.8371   5.8371   6.7427   6.7429   6.8718   6.8720   6.9940   6.9941

          k = 0.2500-0.4988 0.0000 (  5148 PWs)   bands (ev):

   -64.8290 -64.8286 -64.8256 -64.8250 -31.6192 -31.6152 -31.6115 -31.6080
   -31.6068 -31.6065 -31.5849 -31.5846 -31.5846 -31.5824 -31.5761 -31.5740
    -8.5134  -8.5054  -7.9511  -7.9423   4.4131   4.4239   4.7491   4.7537
     5.0919   5.1009   6.5309   6.5659   6.5697   6.5823   7.0813   7.1077

          k = 0.2500-0.4988 0.2500 (  5134 PWs)   bands (ev):

   -64.8285 -64.8281 -64.8261 -64.8255 -31.6289 -31.6267 -31.6222 -31.6193
   -31.5929 -31.5926 -31.5812 -31.5800 -31.5787 -31.5779 -31.5771 -31.5760
    -8.4029  -8.3949  -8.0012  -7.9927   3.8129   3.8303   4.1916   4.2047
     5.8264   5.8344   6.7280   6.7534   6.8600   6.8774   7.0128   7.0205

          k = 0.2500-0.4988-0.5000 (  5144 PWs)   bands (ev):

   -64.8274 -64.8273 -64.8272 -64.8263 -31.6327 -31.6326 -31.6303 -31.6302
   -31.5837 -31.5834 -31.5824 -31.5822 -31.5754 -31.5752 -31.5749 -31.5748
    -8.1718  -8.1716  -8.1636  -8.1635   3.6312   3.6313   3.6497   3.6498
     6.5111   6.5113   6.5378   6.5379   7.0607   7.0608   7.0686   7.0688

          k = 0.2500-0.2488 0.0000 (  5161 PWs)   bands (ev):

   -64.8318 -64.8261 -64.8257 -64.8247 -31.6221 -31.6219 -31.6195 -31.6059
   -31.5940 -31.5940 -31.5911 -31.5890 -31.5857 -31.5855 -31.5754 -31.5698
    -8.9685  -8.0606  -8.0604  -7.8931   4.1604   4.1604   4.3260   5.0559
     5.8386   6.0597   6.0600   6.4795   6.4797   6.6098   7.1685   7.5236

          k = 0.2500-0.2488 0.2500 (  5150 PWs)   bands (ev):

   -64.8308 -64.8261 -64.8260 -64.8253 -31.6265 -31.6263 -31.6244 -31.6050
   -31.5926 -31.5922 -31.5919 -31.5849 -31.5839 -31.5838 -31.5723 -31.5707
    -8.7986  -8.0346  -8.0274  -8.0263   3.9895   4.0029   4.0045   5.0785
     5.8307   5.8429   5.8505   6.7030   6.7032   6.7310   7.3530   7.3749

          k = 0.2500-0.2488-0.5000 (  5128 PWs)   bands (ev):

   -64.8286 -64.8281 -64.8260 -64.8254 -31.6292 -31.6290 -31.6201 -31.6200
   -31.5911 -31.5908 -31.5810 -31.5810 -31.5788 -31.5785 -31.5766 -31.5765
    -8.4017  -8.4015  -7.9939  -7.9938   3.8265   3.8266   4.1865   4.1866
     5.8237   5.8237   6.7379   6.7381   6.8661   6.8663   7.0386   7.0388

          k =-0.5000-0.0025 0.0000 (  5110 PWs)   bands (ev):

   -64.8297 -64.8293 -64.8249 -64.8243 -31.6097 -31.6095 -31.6093 -31.6091
   -31.6017 -31.6017 -31.5906 -31.5906 -31.5804 -31.5802 -31.5801 -31.5799
    -8.6458  -8.6457  -7.8563  -7.8562   4.8478   4.8478   4.8481   4.8481
     5.1229   5.1232   5.9735   5.9739   6.9685   6.9685   6.9687   6.9687

          k =-0.5000-0.0025 0.2500 (  5152 PWs)   bands (ev):

   -64.8290 -64.8286 -64.8256 -64.8250 -31.6173 -31.6172 -31.6100 -31.6100
   -31.6066 -31.6064 -31.5849 -31.5847 -31.5837 -31.5836 -31.5752 -31.5751
    -8.5095  -8.5094  -7.9467  -7.9466   4.4182   4.4183   4.7514   4.7516
     5.0965   5.0965   6.5479   6.5481   6.5762   6.5762   7.0942   7.0943

          k =-0.5000-0.0025-0.5000 (  5192 PWs)   bands (ev):

   -64.8274 -64.8273 -64.8272 -64.8263 -31.6192 -31.6191 -31.6189 -31.6188
   -31.5972 -31.5969 -31.5962 -31.5959 -31.5763 -31.5762 -31.5757 -31.5756
    -8.2105  -8.2104  -8.1998  -8.1997   4.2834   4.2836   4.3032   4.3033
     5.7551   5.7551   5.7807   5.7808   7.0580   7.0582   7.0690   7.0692

          k =-0.5000 0.2475 0.0000 (  5148 PWs)   bands (ev):

   -64.8290 -64.8286 -64.8256 -64.8250 -31.6192 -31.6152 -31.6115 -31.6080
   -31.6067 -31.6065 -31.5849 -31.5847 -31.5846 -31.5824 -31.5761 -31.5740
    -8.5134  -8.5054  -7.9511  -7.9423   4.4131   4.4239   4.7491   4.7537
     5.0919   5.1009   6.5307   6.5658   6.5697   6.5823   7.0814   7.1078

          k =-0.5000 0.2475 0.2500 (  5134 PWs)   bands (ev):

   -64.8285 -64.8281 -64.8261 -64.8255 -31.6289 -31.6267 -31.6222 -31.6193
   -31.5929 -31.5926 -31.5812 -31.5800 -31.5787 -31.5779 -31.5770 -31.5760
    -8.4029  -8.3949  -8.0012  -7.9927   3.8128   3.8303   4.1917   4.2047
     5.8264   5.8344   6.7278   6.7532   6.8601   6.8775   7.0128   7.0205

          k =-0.5000 0.2475-0.5000 (  5144 PWs)   bands (ev):

   -64.8274 -64.8273 -64.8272 -64.8263 -31.6328 -31.6326 -31.6303 -31.6302
   -31.5837 -31.5835 -31.5824 -31.5822 -31.5754 -31.5753 -31.5748 -31.5748
    -8.1733  -8.1731  -8.1621  -8.1620   3.6287   3.6288   3.6521   3.6522
     6.5083   6.5084   6.5409   6.5410   7.0590   7.0592   7.0701   7.0703

          k =-0.5000-0.5025 0.0000 (  5196 PWs)   bands (ev):

   -64.8274 -64.8273 -64.8272 -64.8263 -31.6212 -31.6209 -31.6168 -31.6166
   -31.5972 -31.5971 -31.5971 -31.5968 -31.5766 -31.5763 -31.5753 -31.5751
    -8.2111  -8.2110  -8.1992  -8.1991   4.2900   4.2901   4.2968   4.2968
     5.7598   5.7601   5.7745   5.7749   7.0435   7.0436   7.0842   7.0842

          k =-0.5000-0.5025 0.2500 (  5136 PWs)   bands (ev):

   -64.8274 -64.8273 -64.8272 -64.8263 -31.6328 -31.6326 -31.6305 -31.6303
   -31.5832 -31.5832 -31.5818 -31.5818 -31.5763 -31.5761 -31.5739 -31.5736
    -8.1736  -8.1735  -8.1618  -8.1617   3.6328   3.6329   3.6479   3.6480
     6.5224   6.5226   6.5265   6.5268   7.0447   7.0448   7.0850   7.0850

          k =-0.5000-0.5025-0.5000 (  5136 PWs)   bands (ev):

   -64.8274 -64.8273 -64.8272 -64.8262 -31.6398 -31.6396 -31.6390 -31.6389
   -31.5755 -31.5753 -31.5750 -31.5748 -31.5747 -31.5746 -31.5744 -31.5741
    -8.1355  -8.1354  -8.1237  -8.1236   3.2081   3.2082   3.2271   3.2271
     7.0454   7.0454   7.0647   7.0650   7.0658   7.0660   7.0860   7.0860

     highest occupied level (ev):     7.6908

!    total energy              =    -608.39275803 Ry
     Harris-Foulkes estimate   =    -608.39275803 Ry
     estimated scf accuracy    <          1.1E-09 Ry

     The total energy is the sum of the following terms:

     one-electron contribution =    -303.55512080 Ry
     hartree contribution      =     168.06692943 Ry
     xc contribution           =     -97.84637899 Ry
     ewald contribution        =    -375.05818766 Ry

     convergence has been achieved in   9 iterations

     Forces acting on atoms (cartesian axes, Ry/au):

     atom    1 type  1   force =     0.00117960    0.00003114    0.00000000
     atom    2 type  1   force =    -0.00127388   -0.00003208    0.00000000
     atom    3 type  1   force =     0.00117857    0.00003098    0.00000000
     atom    4 type  1   force =    -0.00103772   -0.00002885    0.00000000
     atom    5 type  2   force =     0.00146961    0.00001546    0.00000000
     atom    6 type  2   force =    -0.00155448   -0.00001601    0.00000000
     atom    7 type  2   force =     0.00146781    0.00001468    0.00000000
     atom    8 type  2   force =    -0.00142949   -0.00001532    0.00000000

     Total force =     0.003776     Total SCF correction =     0.000001


     Computing stress (Cartesian axis) and pressure

          total   stress  (Ry/bohr**3)                   (kbar)     P=  -68.06
  -0.00046307   0.00004868   0.00000000        -68.12      7.16      0.00
   0.00004868  -0.00046231   0.00000000          7.16    -68.01      0.00
   0.00000000   0.00000000  -0.00046260          0.00      0.00    -68.05


     BFGS Geometry Optimization

     number of scf cycles    =   1
     number of bfgs steps    =   0

     energy   new            =    -608.3927580261 Ry

     new trust radius        =       0.0015545640 bohr
     new conv_thr            =       0.0000000100 Ry


ATOMIC_POSITIONS (alat)
Mg       0.000146630   0.000003871   0.000000000
Mg      -0.000158350   0.499996013   0.500000000
Mg       0.500146501   0.000003851   0.500000000
Mg       0.499871007   0.499996414   0.000000000
O        0.500182679   0.000001922   0.000000000
O       -0.000193229   0.499998010   0.000000000
O        0.000182455   0.000001825   0.500000000
O        0.499822307   0.499998096   0.500000000



     Writing output data file diamond..70.4.save
     NEW-OLD atomic charge density approx. for the potential

     Check: negative/imaginary core charge=   -0.000007    0.000000

     total cpu time spent up to now is       10.3 secs

     per-process dynamical memory:    52.3 Mb

     Self-consistent Calculation

     iteration #  1     ecut=    70.00 Ry     beta=0.70
     Davidson diagonalization with overlap
     ethr =  1.00E-06,  avg # of iterations =  3.0

     Threshold (ethr) on eigenvalues was too large:
     Diagonalizing with lowered threshold

     Davidson diagonalization with overlap
     ethr =  1.36E-09,  avg # of iterations =  2.8

     total cpu time spent up to now is       12.7 secs

     total energy              =    -608.39277113 Ry
     Harris-Foulkes estimate   =    -608.39277166 Ry
     estimated scf accuracy    <       0.00000094 Ry

     iteration #  2     ecut=    70.00 Ry     beta=0.70
     Davidson diagonalization with overlap
     ethr =  1.47E-09,  avg # of iterations =  2.0

     total cpu time spent up to now is       13.7 secs

     total energy              =    -608.39277129 Ry
     Harris-Foulkes estimate   =    -608.39277129 Ry
     estimated scf accuracy    <       0.00000002 Ry

     iteration #  3     ecut=    70.00 Ry     beta=0.70
     Davidson diagonalization with overlap
     ethr =  3.71E-11,  avg # of iterations =  2.0

     total cpu time spent up to now is       14.7 secs

     End of self-consistent calculation

          k = 0.0000 0.0000 0.0000 (  5153 PWs)   bands (ev):

   -64.8346 -64.8251 -64.8251 -64.8243 -31.6311 -31.6311 -31.6310 -31.5946
   -31.5935 -31.5934 -31.5933 -31.5933 -31.5923 -31.5653 -31.5644 -31.5639
    -9.3645  -7.9136  -7.9134  -7.9133   3.7582   3.7583   3.7584   6.3512
     6.3802   6.3802   6.3802   6.3805   6.4095   7.6543   7.6725   7.6908

          k = 0.0000 0.0000 0.2500 (  5157 PWs)   bands (ev):

   -64.8331 -64.8263 -64.8251 -64.8245 -31.6247 -31.6246 -31.6204 -31.5981
   -31.5981 -31.5941 -31.5940 -31.5897 -31.5876 -31.5782 -31.5729 -31.5701
    -9.1560  -8.1284  -7.8849  -7.8849   4.0483   4.0488   4.0962   5.8582
     5.8582   6.1707   6.1710   6.5154   6.5714   6.6590   7.4303   7.4708

          k = 0.0000 0.0000-0.5000 (  5118 PWs)   bands (ev):

   -64.8299 -64.8295 -64.8251 -64.8245 -31.6120 -31.6117 -31.6078 -31.6075
   -31.6020 -31.6019 -31.5908 -31.5907 -31.5819 -31.5817 -31.5793 -31.5790
    -8.6459  -8.6456  -7.8561  -7.8561   4.8444   4.8445   4.8512   4.8512
     5.1230   5.1232   5.9737   5.9740   6.9441   6.9442   6.9931   6.9933

          k = 0.0000 0.2500 0.0000 (  5165 PWs)   bands (ev):

   -64.8331 -64.8263 -64.8251 -64.8245 -31.6249 -31.6244 -31.6207 -31.5989
   -31.5984 -31.5939 -31.5935 -31.5891 -31.5889 -31.5788 -31.5715 -31.5713
    -9.1560  -8.1283  -7.8852  -7.8849   4.0485   4.0486   4.0956   5.8557
     5.8583   6.1708   6.1734   6.5430   6.5432   6.6589   7.4504   7.4507

          k = 0.0000 0.2500 0.2500 (  5159 PWs)   bands (ev):

   -64.8319 -64.8263 -64.8259 -64.8248 -31.6212 -31.6209 -31.6199 -31.6072
   -31.5942 -31.5940 -31.5930 -31.5878 -31.5866 -31.5864 -31.5756 -31.5684
    -8.9659  -8.0637  -8.0636  -7.8900   4.1613   4.1618   4.3289   5.0714
     5.8472   6.0549   6.0557   6.4851   6.4862   6.5837   7.1733   7.5060

          k = 0.0000 0.2500-0.5000 (  5150 PWs)   bands (ev):

   -64.8292 -64.8288 -64.8258 -64.8252 -31.6176 -31.6174 -31.6101 -31.6101
   -31.6065 -31.6063 -31.5852 -31.5849 -31.5837 -31.5837 -31.5754 -31.5752
    -8.5095  -8.5093  -7.9466  -7.9466   4.4185   4.4188   4.7512   4.7514
     5.0963   5.0966   6.5480   6.5482   6.5756   6.5759   7.0948   7.0949

          k = 0.0000-0.5000 0.0000 (  5110 PWs)   bands (ev):

   -64.8299 -64.8295 -64.8251 -64.8245 -31.6099 -31.6096 -31.6095 -31.6092
   -31.6020 -31.6018 -31.5908 -31.5906 -31.5806 -31.5804 -31.5803 -31.5800
    -8.6458  -8.6456  -7.8564  -7.8561   4.8473   4.8480   4.8481   4.8482
     5.1230   5.1234   5.9736   5.9746   6.9684   6.9685   6.9687   6.9687

          k = 0.0000-0.5000 0.2500 (  5152 PWs)   bands (ev):

   -64.8292 -64.8288 -64.8258 -64.8252 -31.6175 -31.6173 -31.6102 -31.6101
   -31.6067 -31.6065 -31.5851 -31.5848 -31.5838 -31.5838 -31.5754 -31.5752
    -8.5095  -8.5092  -7.9468  -7.9466   4.4184   4.4185   4.7513   4.7516
     5.0964   5.0966   6.5480   6.5485   6.5760   6.5761   7.0942   7.0945

          k = 0.0000-0.5000-0.5000 (  5192 PWs)   bands (ev):

   -64.8275 -64.8275 -64.8275 -64.8265 -31.6194 -31.6192 -31.6191 -31.6191
   -31.5969 -31.5967 -31.5967 -31.5964 -31.5763 -31.5761 -31.5760 -31.5760
    -8.2053  -8.2051  -8.2051  -8.2049   4.2933   4.2935   4.2935   4.2936
     5.7676   5.7677   5.7680   5.7681   7.0635   7.0637   7.0638   7.0640

          k = 0.2500 0.0013 0.0000 (  5165 PWs)   bands (ev):

   -64.8331 -64.8263 -64.8251 -64.8245 -31.6249 -31.6244 -31.6207 -31.5989
   -31.5984 -31.5939 -31.5935 -31.5891 -31.5889 -31.5788 -31.5715 -31.5713
    -9.1560  -8.1283  -7.8851  -7.8850   4.0485   4.0486   4.0956   5.8562
     5.8583   6.1707   6.1727   6.5430   6.5433   6.6587   7.4504   7.4508

          k = 0.2500 0.0013 0.2500 (  5159 PWs)   bands (ev):

   -64.8319 -64.8263 -64.8259 -64.8248 -31.6212 -31.6209 -31.6199 -31.6072
   -31.5944 -31.5938 -31.5930 -31.5878 -31.5866 -31.5863 -31.5756 -31.5684
    -8.9659  -8.0670  -8.0603  -7.8900   4.1558   4.1672   4.3289   5.0714
     5.8472   6.0470   6.0638   6.4817   6.4894   6.5837   7.1735   7.5060

          k = 0.2500 0.0013-0.5000 (  5150 PWs)   bands (ev):

   -64.8292 -64.8288 -64.8258 -64.8252 -31.6176 -31.6174 -31.6101 -31.6101
   -31.6065 -31.6063 -31.5852 -31.5849 -31.5837 -31.5837 -31.5754 -31.5752
    -8.5095  -8.5093  -7.9466  -7.9466   4.4183   4.4185   4.7514   4.7516
     5.0963   5.0966   6.5480   6.5483   6.5757   6.5759   7.0947   7.0948

          k = 0.2500 0.2513 0.0000 (  5161 PWs)   bands (ev):

   -64.8319 -64.8263 -64.8259 -64.8248 -31.6198 -31.6196 -31.6195 -31.6090
   -31.5948 -31.5943 -31.5942 -31.5874 -31.5872 -31.5867 -31.5755 -31.5677
    -8.9633  -8.0668  -8.0667  -7.8870   4.1628   4.1629   4.3315   5.0869
     5.8559   6.0515   6.0518   6.4904   6.4906   6.5578   7.1783   7.4878

          k = 0.2500 0.2513 0.2500 (  5160 PWs)   bands (ev):

   -64.8309 -64.8263 -64.8262 -64.8255 -31.6256 -31.6238 -31.6237 -31.6068
   -31.5953 -31.5951 -31.5945 -31.5840 -31.5840 -31.5829 -31.5718 -31.5704
    -8.7934  -8.0344  -8.0335  -8.0268   3.9970   3.9982   4.0112   5.1002
     5.8428   5.8490   5.8599   6.6806   6.7081   6.7082   7.3363   7.3579

          k = 0.2500 0.2513-0.5000 (  5148 PWs)   bands (ev):

   -64.8287 -64.8282 -64.8263 -64.8257 -31.6272 -31.6271 -31.6219 -31.6218
   -31.5949 -31.5947 -31.5804 -31.5803 -31.5787 -31.5786 -31.5766 -31.5763
    -8.3963  -8.3962  -7.9999  -7.9999   3.8163   3.8164   4.2098   4.2099
     5.8372   5.8372   6.7427   6.7430   6.8718   6.8720   6.9940   6.9941

          k = 0.2500-0.4988 0.0000 (  5148 PWs)   bands (ev):

   -64.8292 -64.8288 -64.8258 -64.8252 -31.6194 -31.6154 -31.6117 -31.6082
   -31.6069 -31.6066 -31.5850 -31.5848 -31.5848 -31.5826 -31.5762 -31.5742
    -8.5133  -8.5053  -7.9511  -7.9423   4.4131   4.4239   4.7491   4.7538
     5.0920   5.1009   6.5309   6.5659   6.5698   6.5823   7.0814   7.1077

          k = 0.2500-0.4988 0.2500 (  5134 PWs)   bands (ev):

   -64.8287 -64.8283 -64.8263 -64.8256 -31.6291 -31.6269 -31.6224 -31.6195
   -31.5930 -31.5928 -31.5814 -31.5802 -31.5789 -31.5781 -31.5772 -31.5762
    -8.4028  -8.3949  -8.0012  -7.9927   3.8129   3.8304   4.1916   4.2047
     5.8264   5.8345   6.7280   6.7534   6.8600   6.8775   7.0128   7.0206

          k = 0.2500-0.4988-0.5000 (  5144 PWs)   bands (ev):

   -64.8275 -64.8275 -64.8274 -64.8264 -31.6329 -31.6327 -31.6305 -31.6304
   -31.5838 -31.5836 -31.5826 -31.5824 -31.5755 -31.5753 -31.5750 -31.5750
    -8.1717  -8.1716  -8.1636  -8.1635   3.6312   3.6313   3.6497   3.6498
     6.5112   6.5113   6.5378   6.5380   7.0607   7.0609   7.0686   7.0688

          k = 0.2500-0.2488 0.0000 (  5161 PWs)   bands (ev):

   -64.8320 -64.8262 -64.8259 -64.8249 -31.6222 -31.6220 -31.6196 -31.6061
   -31.5942 -31.5941 -31.5912 -31.5892 -31.5858 -31.5856 -31.5755 -31.5700
    -8.9684  -8.0605  -8.0604  -7.8931   4.1604   4.1605   4.3260   5.0559
     5.8386   6.0597   6.0600   6.4796   6.4797   6.6099   7.1685   7.5236

          k = 0.2500-0.2488 0.2500 (  5150 PWs)   bands (ev):

   -64.8310 -64.8263 -64.8262 -64.8254 -31.6266 -31.6265 -31.6245 -31.6052
   -31.5927 -31.5923 -31.5920 -31.5850 -31.5840 -31.5839 -31.5725 -31.5708
    -8.7986  -8.0342  -8.0273  -8.0265   3.9899   4.0029   4.0041   5.0785
     5.8321   5.8429   5.8491   6.7031   6.7032   6.7310   7.3531   7.3749

          k = 0.2500-0.2488-0.5000 (  5128 PWs)   bands (ev):

   -64.8287 -64.8283 -64.8262 -64.8256 -31.6293 -31.6292 -31.6203 -31.6202
   -31.5912 -31.5910 -31.5811 -31.5811 -31.5789 -31.5786 -31.5768 -31.5767
    -8.4017  -8.4015  -7.9938  -7.9938   3.8266   3.8267   4.1865   4.1866
     5.8237   5.8238   6.7379   6.7381   6.8661   6.8663   7.0387   7.0388

          k =-0.5000-0.0025 0.0000 (  5110 PWs)   bands (ev):

   -64.8299 -64.8295 -64.8251 -64.8245 -31.6098 -31.6096 -31.6095 -31.6093
   -31.6019 -31.6018 -31.5908 -31.5907 -31.5806 -31.5804 -31.5803 -31.5801
    -8.6458  -8.6456  -7.8562  -7.8562   4.8478   4.8479   4.8480   4.8482
     5.1230   5.1232   5.9736   5.9739   6.9685   6.9686   6.9686   6.9687

          k =-0.5000-0.0025 0.2500 (  5152 PWs)   bands (ev):

   -64.8292 -64.8288 -64.8258 -64.8252 -31.6175 -31.6173 -31.6102 -31.6101
   -31.6067 -31.6065 -31.5850 -31.5849 -31.5838 -31.5838 -31.5754 -31.5752
    -8.5094  -8.5093  -7.9467  -7.9466   4.4183   4.4184   4.7514   4.7516
     5.0965   5.0966   6.5480   6.5482   6.5761   6.5763   7.0943   7.0944

          k =-0.5000-0.0025-0.5000 (  5192 PWs)   bands (ev):

   -64.8276 -64.8275 -64.8274 -64.8264 -31.6194 -31.6192 -31.6190 -31.6190
   -31.5973 -31.5970 -31.5964 -31.5961 -31.5764 -31.5763 -31.5758 -31.5758
    -8.2097  -8.2096  -8.2006  -8.2005   4.2850   4.2851   4.3017   4.3019
     5.7570   5.7571   5.7787   5.7789   7.0589   7.0591   7.0682   7.0684

          k =-0.5000 0.2475 0.0000 (  5148 PWs)   bands (ev):

   -64.8292 -64.8288 -64.8258 -64.8252 -31.6194 -31.6154 -31.6117 -31.6082
   -31.6069 -31.6067 -31.5850 -31.5848 -31.5848 -31.5826 -31.5762 -31.5742
    -8.5133  -8.5053  -7.9511  -7.9423   4.4131   4.4239   4.7491   4.7537
     5.0920   5.1009   6.5307   6.5658   6.5697   6.5823   7.0814   7.1078

          k =-0.5000 0.2475 0.2500 (  5134 PWs)   bands (ev):

   -64.8287 -64.8283 -64.8263 -64.8256 -31.6291 -31.6269 -31.6224 -31.6195
   -31.5930 -31.5928 -31.5814 -31.5802 -31.5789 -31.5781 -31.5772 -31.5762
    -8.4029  -8.3949  -8.0012  -7.9926   3.8128   3.8303   4.1917   4.2047
     5.8265   5.8345   6.7278   6.7532   6.8601   6.8776   7.0128   7.0206

          k =-0.5000 0.2475-0.5000 (  5144 PWs)   bands (ev):

   -64.8276 -64.8275 -64.8274 -64.8264 -31.6329 -31.6328 -31.6305 -31.6304
   -31.5839 -31.5836 -31.5825 -31.5823 -31.5755 -31.5754 -31.5750 -31.5749
    -8.1728  -8.1727  -8.1624  -8.1623   3.6293   3.6294   3.6515   3.6516
     6.5091   6.5092   6.5401   6.5402   7.0595   7.0596   7.0697   7.0699

          k =-0.5000-0.5025 0.0000 (  5196 PWs)   bands (ev):

   -64.8276 -64.8275 -64.8274 -64.8264 -31.6213 -31.6210 -31.6170 -31.6167
   -31.5974 -31.5973 -31.5972 -31.5970 -31.5767 -31.5765 -31.5755 -31.5752
    -8.2111  -8.2110  -8.1992  -8.1991   4.2900   4.2901   4.2968   4.2969
     5.7598   5.7601   5.7746   5.7749   7.0435   7.0436   7.0842   7.0843

          k =-0.5000-0.5025 0.2500 (  5136 PWs)   bands (ev):

   -64.8276 -64.8275 -64.8274 -64.8264 -31.6329 -31.6327 -31.6306 -31.6305
   -31.5834 -31.5834 -31.5820 -31.5820 -31.5765 -31.5762 -31.5741 -31.5738
    -8.1735  -8.1735  -8.1617  -8.1617   3.6328   3.6329   3.6480   3.6481
     6.5224   6.5227   6.5266   6.5268   7.0447   7.0448   7.0850   7.0850

          k =-0.5000-0.5025-0.5000 (  5136 PWs)   bands (ev):

   -64.8276 -64.8275 -64.8274 -64.8264 -31.6400 -31.6398 -31.6392 -31.6391
   -31.5757 -31.5754 -31.5752 -31.5750 -31.5749 -31.5748 -31.5745 -31.5742
    -8.1354  -8.1354  -8.1236  -8.1236   3.2082   3.2083   3.2271   3.2272
     7.0454   7.0454   7.0648   7.0650   7.0659   7.0661   7.0860   7.0860

     highest occupied level (ev):     7.6908

!    total energy              =    -608.39277129 Ry
     Harris-Foulkes estimate   =    -608.39277129 Ry
     estimated scf accuracy    <          2.3E-09 Ry

     The total energy is the sum of the following terms:

     one-electron contribution =    -303.55542653 Ry
     hartree contribution      =     168.06711357 Ry
     xc contribution           =     -97.84637850 Ry
     ewald contribution        =    -375.05807984 Ry

     convergence has been achieved in   3 iterations

     Forces acting on atoms (cartesian axes, Ry/au):

     atom    1 type  1   force =     0.00105257    0.00001687    0.00000000
     atom    2 type  1   force =    -0.00113233   -0.00001816    0.00000000
     atom    3 type  1   force =     0.00107306    0.00001700    0.00000000
     atom    4 type  1   force =    -0.00097357   -0.00001556    0.00000000
     atom    5 type  2   force =     0.00125893    0.00001020    0.00000000
     atom    6 type  2   force =    -0.00130686   -0.00001029    0.00000000
     atom    7 type  2   force =     0.00124923    0.00001028    0.00000000
     atom    8 type  2   force =    -0.00122103   -0.00001035    0.00000000

     Total force =     0.003292     Total SCF correction =     0.000075


     Computing stress (Cartesian axis) and pressure

          total   stress  (Ry/bohr**3)                   (kbar)     P=  -68.02
  -0.00046281   0.00004868   0.00000000        -68.08      7.16      0.00
   0.00004868  -0.00046212   0.00000000          7.16    -67.98      0.00
   0.00000000   0.00000000  -0.00046231          0.00      0.00    -68.01


     number of scf cycles    =   2
     number of bfgs steps    =   1

     energy   old            =    -608.3927580261 Ry
     energy   new            =    -608.3927712908 Ry

     CASE: energy  _new < energy  _old


     WARNING: bfgs curvature condition failed, Theta= 0.918
     new trust radius        =       0.0017100204 bohr
     new conv_thr            =       0.0000000001 Ry


ATOMIC_POSITIONS (alat)
Mg       0.000316680   0.000006790   0.000000000
Mg      -0.000341364   0.499992894   0.500000000
Mg       0.500319483   0.000006787   0.500000000
Mg       0.499714563   0.499993720   0.000000000
O        0.500386999   0.000003633   0.000000000
O       -0.000405786   0.499996277   0.000000000
O        0.000385351   0.000003536   0.500000000
O        0.499624072   0.499996364   0.500000000



     Writing output data file diamond..70.4.save
     NEW-OLD atomic charge density approx. for the potential

     Check: negative/imaginary core charge=   -0.000007    0.000000

     total cpu time spent up to now is       15.3 secs

     per-process dynamical memory:    52.3 Mb

     Self-consistent Calculation

     iteration #  1     ecut=    70.00 Ry     beta=0.70
     Davidson diagonalization with overlap
     ethr =  1.00E-06,  avg # of iterations =  3.0

     Threshold (ethr) on eigenvalues was too large:
     Diagonalizing with lowered threshold

     Davidson diagonalization with overlap
     ethr =  1.64E-09,  avg # of iterations =  2.8

     total cpu time spent up to now is       17.7 secs

     total energy              =    -608.39278377 Ry
     Harris-Foulkes estimate   =    -608.39278441 Ry
     estimated scf accuracy    <       0.00000113 Ry

     iteration #  2     ecut=    70.00 Ry     beta=0.70
     Davidson diagonalization with overlap
     ethr =  1.77E-09,  avg # of iterations =  2.0

     total cpu time spent up to now is       18.7 secs

     total energy              =    -608.39278396 Ry
     Harris-Foulkes estimate   =    -608.39278398 Ry
     estimated scf accuracy    <       0.00000003 Ry

     iteration #  3     ecut=    70.00 Ry     beta=0.70
     Davidson diagonalization with overlap
     ethr =  5.41E-11,  avg # of iterations =  2.7

     total cpu time spent up to now is       19.7 secs

     total energy              =    -608.39278397 Ry
     Harris-Foulkes estimate   =    -608.39278397 Ry
     estimated scf accuracy    <       0.00000001 Ry

     iteration #  4     ecut=    70.00 Ry     beta=0.70
     Davidson diagonalization with overlap
     ethr =  1.59E-11,  avg # of iterations =  3.0

     total cpu time spent up to now is       20.9 secs

     total energy              =    -608.39278397 Ry
     Harris-Foulkes estimate   =    -608.39278397 Ry
     estimated scf accuracy    <          5.2E-09 Ry

     iteration #  5     ecut=    70.00 Ry     beta=0.70
     Davidson diagonalization with overlap
     ethr =  8.10E-12,  avg # of iterations =  2.6

     total cpu time spent up to now is       21.9 secs

     End of self-consistent calculation

          k = 0.0000 0.0000 0.0000 (  5153 PWs)   bands (ev):

   -64.8345 -64.8251 -64.8250 -64.8243 -31.6311 -31.6311 -31.6310 -31.5946
   -31.5934 -31.5934 -31.5933 -31.5932 -31.5922 -31.5653 -31.5643 -31.5638
    -9.3645  -7.9136  -7.9135  -7.9134   3.7582   3.7583   3.7583   6.3512
     6.3801   6.3802   6.3802   6.3805   6.4095   7.6543   7.6725   7.6908

          k = 0.0000 0.0000 0.2500 (  5157 PWs)   bands (ev):

   -64.8331 -64.8263 -64.8250 -64.8244 -31.6247 -31.6246 -31.6204 -31.5981
   -31.5980 -31.5940 -31.5940 -31.5897 -31.5876 -31.5782 -31.5729 -31.5701
    -9.1561  -8.1285  -7.8850  -7.8849   4.0484   4.0488   4.0959   5.8582
     5.8582   6.1707   6.1710   6.5153   6.5714   6.6590   7.4303   7.4708

          k = 0.0000 0.0000-0.5000 (  5118 PWs)   bands (ev):

   -64.8299 -64.8294 -64.8250 -64.8245 -31.6120 -31.6117 -31.6078 -31.6075
   -31.6020 -31.6019 -31.5908 -31.5907 -31.5819 -31.5817 -31.5793 -31.5790
    -8.6459  -8.6457  -7.8562  -7.8561   4.8444   4.8445   4.8512   4.8512
     5.1229   5.1232   5.9736   5.9740   6.9440   6.9442   6.9930   6.9932

          k = 0.0000 0.2500 0.0000 (  5165 PWs)   bands (ev):

   -64.8331 -64.8263 -64.8250 -64.8244 -31.6248 -31.6244 -31.6206 -31.5988
   -31.5984 -31.5939 -31.5935 -31.5890 -31.5889 -31.5788 -31.5715 -31.5712
    -9.1561  -8.1283  -7.8852  -7.8850   4.0485   4.0486   4.0956   5.8558
     5.8583   6.1707   6.1732   6.5430   6.5431   6.6588   7.4503   7.4507

          k = 0.0000 0.2500 0.2500 (  5159 PWs)   bands (ev):

   -64.8319 -64.8262 -64.8259 -64.8248 -31.6212 -31.6209 -31.6198 -31.6071
   -31.5941 -31.5940 -31.5930 -31.5878 -31.5865 -31.5864 -31.5756 -31.5684
    -8.9659  -8.0637  -8.0636  -7.8900   4.1613   4.1617   4.3289   5.0714
     5.8471   6.0549   6.0557   6.4851   6.4861   6.5837   7.1733   7.5060

          k = 0.0000 0.2500-0.5000 (  5150 PWs)   bands (ev):

   -64.8292 -64.8287 -64.8257 -64.8251 -31.6176 -31.6174 -31.6101 -31.6101
   -31.6065 -31.6063 -31.5852 -31.5849 -31.5837 -31.5837 -31.5754 -31.5752
    -8.5096  -8.5093  -7.9467  -7.9466   4.4185   4.4187   4.7512   4.7514
     5.0963   5.0966   6.5480   6.5482   6.5756   6.5758   7.0948   7.0948

          k = 0.0000-0.5000 0.0000 (  5110 PWs)   bands (ev):

   -64.8299 -64.8294 -64.8250 -64.8245 -31.6099 -31.6096 -31.6095 -31.6092
   -31.6019 -31.6018 -31.5908 -31.5906 -31.5806 -31.5803 -31.5803 -31.5800
    -8.6458  -8.6457  -7.8564  -7.8562   4.8474   4.8480   4.8481   4.8481
     5.1230   5.1233   5.9736   5.9744   6.9684   6.9685   6.9686   6.9686

          k = 0.0000-0.5000 0.2500 (  5152 PWs)   bands (ev):

   -64.8292 -64.8287 -64.8257 -64.8252 -31.6175 -31.6173 -31.6102 -31.6101
   -31.6067 -31.6065 -31.5850 -31.5848 -31.5838 -31.5837 -31.5754 -31.5752
    -8.5094  -8.5093  -7.9468  -7.9467   4.4184   4.4185   4.7513   4.7515
     5.0964   5.0966   6.5480   6.5484   6.5760   6.5760   7.0942   7.0944

          k = 0.0000-0.5000-0.5000 (  5192 PWs)   bands (ev):

   -64.8275 -64.8275 -64.8274 -64.8264 -31.6193 -31.6192 -31.6190 -31.6190
   -31.5969 -31.5967 -31.5967 -31.5964 -31.5763 -31.5761 -31.5760 -31.5760
    -8.2053  -8.2052  -8.2051  -8.2050   4.2933   4.2934   4.2934   4.2936
     5.7676   5.7677   5.7680   5.7681   7.0635   7.0636   7.0637   7.0639

          k = 0.2500 0.0013 0.0000 (  5165 PWs)   bands (ev):

   -64.8331 -64.8263 -64.8250 -64.8244 -31.6248 -31.6244 -31.6206 -31.5988
   -31.5984 -31.5939 -31.5935 -31.5891 -31.5889 -31.5788 -31.5715 -31.5712
    -9.1561  -8.1283  -7.8851  -7.8850   4.0485   4.0486   4.0956   5.8562
     5.8583   6.1707   6.1727   6.5429   6.5432   6.6587   7.4503   7.4508

          k = 0.2500 0.0013 0.2500 (  5159 PWs)   bands (ev):

   -64.8319 -64.8263 -64.8259 -64.8248 -31.6212 -31.6209 -31.6199 -31.6071
   -31.5943 -31.5938 -31.5930 -31.5878 -31.5866 -31.5863 -31.5756 -31.5684
    -8.9659  -8.0664  -8.0610  -7.8900   4.1570   4.1661   4.3289   5.0714
     5.8471   6.0486   6.0621   6.4824   6.4887   6.5836   7.1734   7.5059

          k = 0.2500 0.0013-0.5000 (  5150 PWs)   bands (ev):

   -64.8292 -64.8287 -64.8257 -64.8251 -31.6176 -31.6174 -31.6101 -31.6101
   -31.6065 -31.6063 -31.5852 -31.5849 -31.5837 -31.5837 -31.5753 -31.5752
    -8.5096  -8.5093  -7.9467  -7.9466   4.4184   4.4186   4.7513   4.7515
     5.0963   5.0966   6.5480   6.5483   6.5757   6.5759   7.0947   7.0948

          k = 0.2500 0.2513 0.0000 (  5161 PWs)   bands (ev):

   -64.8319 -64.8263 -64.8259 -64.8248 -31.6198 -31.6196 -31.6195 -31.6090
   -31.5947 -31.5943 -31.5942 -31.5874 -31.5872 -31.5866 -31.5754 -31.5676
    -8.9633  -8.0668  -8.0667  -7.8871   4.1628   4.1629   4.3315   5.0869
     5.8559   6.0515   6.0518   6.4904   6.4905   6.5578   7.1783   7.4877

          k = 0.2500 0.2513 0.2500 (  5160 PWs)   bands (ev):

   -64.8308 -64.8263 -64.8262 -64.8254 -31.6256 -31.6238 -31.6237 -31.6068
   -31.5953 -31.5950 -31.5946 -31.5840 -31.5840 -31.5829 -31.5718 -31.5704
    -8.7935  -8.0342  -8.0336  -8.0271   3.9974   3.9982   4.0108   5.1002
     5.8443   5.8490   5.8583   6.6806   6.7080   6.7082   7.3362   7.3579

          k = 0.2500 0.2513-0.5000 (  5148 PWs)   bands (ev):

   -64.8286 -64.8282 -64.8263 -64.8257 -31.6272 -31.6271 -31.6219 -31.6218
   -31.5949 -31.5947 -31.5803 -31.5803 -31.5786 -31.5786 -31.5765 -31.5763
    -8.3964  -8.3962  -8.0000  -7.9999   3.8164   3.8164   4.2097   4.2099
     5.8372   5.8372   6.7427   6.7429   6.8718   6.8719   6.9939   6.9941

          k = 0.2500-0.4988 0.0000 (  5148 PWs)   bands (ev):

   -64.8292 -64.8287 -64.8257 -64.8251 -31.6193 -31.6153 -31.6116 -31.6081
   -31.6069 -31.6066 -31.5850 -31.5848 -31.5848 -31.5826 -31.5762 -31.5741
    -8.5134  -8.5054  -7.9511  -7.9423   4.4131   4.4239   4.7491   4.7537
     5.0919   5.1009   6.5308   6.5659   6.5697   6.5823   7.0813   7.1077

          k = 0.2500-0.4988 0.2500 (  5134 PWs)   bands (ev):

   -64.8287 -64.8283 -64.8262 -64.8256 -31.6290 -31.6269 -31.6224 -31.6194
   -31.5930 -31.5927 -31.5813 -31.5801 -31.5789 -31.5781 -31.5772 -31.5762
    -8.4029  -8.3949  -8.0012  -7.9927   3.8129   3.8304   4.1916   4.2047
     5.8264   5.8344   6.7279   6.7533   6.8600   6.8775   7.0128   7.0205

          k = 0.2500-0.4988-0.5000 (  5144 PWs)   bands (ev):

   -64.8275 -64.8274 -64.8274 -64.8264 -31.6329 -31.6327 -31.6305 -31.6303
   -31.5838 -31.5836 -31.5825 -31.5824 -31.5755 -31.5753 -31.5750 -31.5749
    -8.1717  -8.1716  -8.1636  -8.1635   3.6312   3.6312   3.6497   3.6498
     6.5112   6.5113   6.5378   6.5380   7.0606   7.0608   7.0686   7.0687

          k = 0.2500-0.2488 0.0000 (  5161 PWs)   bands (ev):

   -64.8319 -64.8262 -64.8258 -64.8249 -31.6222 -31.6220 -31.6196 -31.6061
   -31.5942 -31.5941 -31.5912 -31.5891 -31.5858 -31.5856 -31.5755 -31.5700
    -8.9684  -8.0605  -8.0604  -7.8931   4.1603   4.1605   4.3260   5.0559
     5.8386   6.0596   6.0600   6.4795   6.4796   6.6098   7.1685   7.5236

          k = 0.2500-0.2488 0.2500 (  5150 PWs)   bands (ev):

   -64.8309 -64.8263 -64.8262 -64.8254 -31.6266 -31.6264 -31.6245 -31.6052
   -31.5926 -31.5923 -31.5920 -31.5850 -31.5840 -31.5839 -31.5725 -31.5708
    -8.7986  -8.0340  -8.0274  -8.0268   3.9903   4.0029   4.0037   5.0785
     5.8336   5.8429   5.8476   6.7030   6.7032   6.7310   7.3530   7.3749

          k = 0.2500-0.2488-0.5000 (  5128 PWs)   bands (ev):

   -64.8287 -64.8283 -64.8262 -64.8256 -31.6293 -31.6291 -31.6202 -31.6201
   -31.5912 -31.5909 -31.5811 -31.5811 -31.5789 -31.5786 -31.5767 -31.5766
    -8.4017  -8.4015  -7.9939  -7.9938   3.8266   3.8267   4.1864   4.1866
     5.8237   5.8238   6.7379   6.7381   6.8661   6.8662   7.0386   7.0387

          k =-0.5000-0.0025 0.0000 (  5110 PWs)   bands (ev):

   -64.8299 -64.8294 -64.8250 -64.8245 -31.6098 -31.6096 -31.6095 -31.6092
   -31.6018 -31.6018 -31.5907 -31.5907 -31.5806 -31.5803 -31.5802 -31.5801
    -8.6458  -8.6456  -7.8563  -7.8562   4.8476   4.8479   4.8480   4.8483
     5.1229   5.1232   5.9736   5.9739   6.9684   6.9685   6.9686   6.9687

          k =-0.5000-0.0025 0.2500 (  5152 PWs)   bands (ev):

   -64.8292 -64.8287 -64.8257 -64.8252 -31.6174 -31.6173 -31.6102 -31.6101
   -31.6067 -31.6065 -31.5850 -31.5848 -31.5838 -31.5838 -31.5754 -31.5752
    -8.5095  -8.5093  -7.9467  -7.9467   4.4183   4.4185   4.7513   4.7516
     5.0964   5.0967   6.5479   6.5482   6.5760   6.5762   7.0942   7.0943

          k =-0.5000-0.0025-0.5000 (  5192 PWs)   bands (ev):

   -64.8275 -64.8274 -64.8274 -64.8264 -31.6194 -31.6192 -31.6190 -31.6190
   -31.5972 -31.5969 -31.5964 -31.5962 -31.5764 -31.5762 -31.5759 -31.5758
    -8.2089  -8.2087  -8.2015  -8.2015   4.2867   4.2868   4.3000   4.3002
     5.7590   5.7593   5.7765   5.7767   7.0598   7.0599   7.0673   7.0675

          k =-0.5000 0.2475 0.0000 (  5148 PWs)   bands (ev):

   -64.8292 -64.8287 -64.8257 -64.8252 -31.6193 -31.6153 -31.6116 -31.6081
   -31.6069 -31.6066 -31.5850 -31.5848 -31.5848 -31.5826 -31.5762 -31.5741
    -8.5134  -8.5054  -7.9511  -7.9423   4.4131   4.4239   4.7491   4.7537
     5.0919   5.1009   6.5307   6.5658   6.5697   6.5823   7.0814   7.1077

          k =-0.5000 0.2475 0.2500 (  5134 PWs)   bands (ev):

   -64.8287 -64.8283 -64.8262 -64.8256 -31.6290 -31.6269 -31.6224 -31.6194
   -31.5930 -31.5928 -31.5813 -31.5801 -31.5788 -31.5781 -31.5772 -31.5762
    -8.4029  -8.3949  -8.0012  -7.9927   3.8128   3.8303   4.1916   4.2047
     5.8264   5.8345   6.7278   6.7532   6.8601   6.8775   7.0128   7.0205

          k =-0.5000 0.2475-0.5000 (  5144 PWs)   bands (ev):

   -64.8275 -64.8274 -64.8274 -64.8264 -31.6329 -31.6327 -31.6305 -31.6303
   -31.5838 -31.5836 -31.5825 -31.5823 -31.5755 -31.5754 -31.5749 -31.5749
    -8.1725  -8.1724  -8.1628  -8.1627   3.6299   3.6300   3.6509   3.6510
     6.5098   6.5099   6.5393   6.5395   7.0598   7.0600   7.0693   7.0695

          k =-0.5000-0.5025 0.0000 (  5196 PWs)   bands (ev):

   -64.8275 -64.8274 -64.8274 -64.8264 -31.6213 -31.6210 -31.6169 -31.6167
   -31.5974 -31.5972 -31.5972 -31.5969 -31.5767 -31.5764 -31.5754 -31.5752
    -8.2111  -8.2110  -8.1992  -8.1991   4.2900   4.2901   4.2967   4.2969
     5.7598   5.7602   5.7745   5.7749   7.0435   7.0436   7.0841   7.0842

          k =-0.5000-0.5025 0.2500 (  5136 PWs)   bands (ev):

   -64.8275 -64.8274 -64.8274 -64.8264 -31.6329 -31.6327 -31.6306 -31.6304
   -31.5834 -31.5833 -31.5819 -31.5819 -31.5765 -31.5762 -31.5740 -31.5738
    -8.1736  -8.1735  -8.1618  -8.1617   3.6328   3.6329   3.6479   3.6480
     6.5224   6.5227   6.5265   6.5268   7.0447   7.0447   7.0849   7.0850

          k =-0.5000-0.5025-0.5000 (  5136 PWs)   bands (ev):

   -64.8275 -64.8274 -64.8274 -64.8264 -31.6399 -31.6398 -31.6392 -31.6390
   -31.5756 -31.5754 -31.5751 -31.5750 -31.5749 -31.5748 -31.5745 -31.5742
    -8.1355  -8.1354  -8.1237  -8.1236   3.2081   3.2082   3.2271   3.2271
     7.0453   7.0454   7.0648   7.0650   7.0658   7.0661   7.0859   7.0859

     highest occupied level (ev):     7.6908

!    total energy              =    -608.39278397 Ry
     Harris-Foulkes estimate   =    -608.39278397 Ry
     estimated scf accuracy    <          4.8E-11 Ry

     The total energy is the sum of the following terms:

     one-electron contribution =    -303.55568005 Ry
     hartree contribution      =     168.06727613 Ry
     xc contribution           =     -97.84640267 Ry
     ewald contribution        =    -375.05797739 Ry

     convergence has been achieved in   5 iterations

     Forces acting on atoms (cartesian axes, Ry/au):

     atom    1 type  1   force =     0.00086212    0.00000858    0.00000000
     atom    2 type  1   force =    -0.00093901   -0.00000979    0.00000000
     atom    3 type  1   force =     0.00091934    0.00000915    0.00000000
     atom    4 type  1   force =    -0.00083645   -0.00000784    0.00000000
     atom    5 type  2   force =     0.00099951    0.00000409    0.00000000
     atom    6 type  2   force =    -0.00101116   -0.00000369    0.00000000
     atom    7 type  2   force =     0.00098007    0.00000356    0.00000000
     atom    8 type  2   force =    -0.00097443   -0.00000406    0.00000000

     Total force =     0.002665     Total SCF correction =     0.000016


     Computing stress (Cartesian axis) and pressure

          total   stress  (Ry/bohr**3)                   (kbar)     P=  -68.01
  -0.00046274   0.00004868   0.00000000        -68.07      7.16      0.00
   0.00004868  -0.00046211   0.00000000          7.16    -67.98      0.00
   0.00000000   0.00000000  -0.00046222          0.00      0.00    -67.99


     number of scf cycles    =   3
     number of bfgs steps    =   2

     energy   old            =    -608.3927712908 Ry
     energy   new            =    -608.3927839716 Ry

     CASE: energy  _new < energy  _old

     new trust radius        =       0.0025650306 bohr
     new conv_thr            =       0.0000000001 Ry


ATOMIC_POSITIONS (alat)
Mg       0.000582950   0.000010127   0.000000000
Mg      -0.000630679   0.499989205   0.500000000
Mg       0.500599917   0.000010261   0.500000000
Mg       0.499460383   0.499990655   0.000000000
O        0.500699469   0.000005303   0.000000000
O       -0.000724627   0.499994684   0.000000000
O        0.000692873   0.000005065   0.500000000
O        0.499319714   0.499994699   0.500000000



     Writing output data file diamond..70.4.save
     NEW-OLD atomic charge density approx. for the potential

     Check: negative/imaginary core charge=   -0.000007    0.000000

     total cpu time spent up to now is       22.4 secs

     per-process dynamical memory:    52.3 Mb

     Self-consistent Calculation

     iteration #  1     ecut=    70.00 Ry     beta=0.70
     Davidson diagonalization with overlap
     ethr =  1.00E-06,  avg # of iterations =  3.0

     Threshold (ethr) on eigenvalues was too large:
     Diagonalizing with lowered threshold

     Davidson diagonalization with overlap
     ethr =  3.92E-09,  avg # of iterations =  2.4

     total cpu time spent up to now is       24.8 secs

     total energy              =    -608.39279823 Ry
     Harris-Foulkes estimate   =    -608.39279967 Ry
     estimated scf accuracy    <       0.00000257 Ry

     iteration #  2     ecut=    70.00 Ry     beta=0.70
     Davidson diagonalization with overlap
     ethr =  4.02E-09,  avg # of iterations =  2.0

     total cpu time spent up to now is       25.9 secs

     total energy              =    -608.39279866 Ry
     Harris-Foulkes estimate   =    -608.39279868 Ry
     estimated scf accuracy    <       0.00000006 Ry

     iteration #  3     ecut=    70.00 Ry     beta=0.70
     Davidson diagonalization with overlap
     ethr =  9.97E-11,  avg # of iterations =  2.0

     total cpu time spent up to now is       26.9 secs

     total energy              =    -608.39279867 Ry
     Harris-Foulkes estimate   =    -608.39279867 Ry
     estimated scf accuracy    <          4.1E-09 Ry

     iteration #  4     ecut=    70.00 Ry     beta=0.70
     Davidson diagonalization with overlap
     ethr =  6.45E-12,  avg # of iterations =  2.1

     total cpu time spent up to now is       27.9 secs

     total energy              =    -608.39279867 Ry
     Harris-Foulkes estimate   =    -608.39279867 Ry
     estimated scf accuracy    <          5.2E-10 Ry

     iteration #  5     ecut=    70.00 Ry     beta=0.70
     Davidson diagonalization with overlap
     ethr =  8.05E-13,  avg # of iterations =  3.0

     total cpu time spent up to now is       29.0 secs

     End of self-consistent calculation

          k = 0.0000 0.0000 0.0000 (  5153 PWs)   bands (ev):

   -64.8345 -64.8250 -64.8250 -64.8242 -31.6311 -31.6311 -31.6309 -31.5945
   -31.5934 -31.5934 -31.5933 -31.5932 -31.5922 -31.5653 -31.5643 -31.5638
    -9.3645  -7.9137  -7.9135  -7.9135   3.7582   3.7583   3.7583   6.3512
     6.3801   6.3802   6.3802   6.3805   6.4094   7.6542   7.6725   7.6907

          k = 0.0000 0.0000 0.2500 (  5157 PWs)   bands (ev):

   -64.8331 -64.8263 -64.8250 -64.8244 -31.6246 -31.6246 -31.6203 -31.5980
   -31.5980 -31.5940 -31.5940 -31.5897 -31.5875 -31.5782 -31.5728 -31.5700
    -9.1561  -8.1285  -7.8851  -7.8850   4.0486   4.0488   4.0957   5.8582
     5.8582   6.1707   6.1710   6.5153   6.5713   6.6590   7.4302   7.4707

          k = 0.0000 0.0000-0.5000 (  5118 PWs)   bands (ev):

   -64.8299 -64.8294 -64.8250 -64.8244 -31.6119 -31.6117 -31.6077 -31.6075
   -31.6019 -31.6019 -31.5907 -31.5907 -31.5819 -31.5816 -31.5792 -31.5790
    -8.6459  -8.6457  -7.8563  -7.8562   4.8445   4.8445   4.8512   4.8512
     5.1228   5.1231   5.9736   5.9739   6.9440   6.9442   6.9930   6.9932

          k = 0.0000 0.2500 0.0000 (  5165 PWs)   bands (ev):

   -64.8331 -64.8263 -64.8250 -64.8244 -31.6248 -31.6244 -31.6206 -31.5988
   -31.5984 -31.5939 -31.5934 -31.5890 -31.5889 -31.5788 -31.5715 -31.5712
    -9.1561  -8.1284  -7.8852  -7.8850   4.0485   4.0486   4.0956   5.8560
     5.8582   6.1707   6.1729   6.5429   6.5431   6.6588   7.4503   7.4507

          k = 0.0000 0.2500 0.2500 (  5159 PWs)   bands (ev):

   -64.8319 -64.8262 -64.8259 -64.8248 -31.6212 -31.6208 -31.6198 -31.6071
   -31.5941 -31.5939 -31.5930 -31.5878 -31.5865 -31.5863 -31.5756 -31.5684
    -8.9659  -8.0638  -8.0636  -7.8900   4.1613   4.1617   4.3288   5.0714
     5.8471   6.0549   6.0557   6.4850   6.4861   6.5836   7.1733   7.5059

          k = 0.0000 0.2500-0.5000 (  5150 PWs)   bands (ev):

   -64.8292 -64.8287 -64.8257 -64.8251 -31.6175 -31.6174 -31.6101 -31.6100
   -31.6065 -31.6062 -31.5851 -31.5849 -31.5837 -31.5836 -31.5753 -31.5752
    -8.5096  -8.5093  -7.9467  -7.9467   4.4185   4.4187   4.7511   4.7513
     5.0963   5.0966   6.5480   6.5482   6.5755   6.5758   7.0947   7.0948

          k = 0.0000-0.5000 0.0000 (  5110 PWs)   bands (ev):

   -64.8299 -64.8294 -64.8250 -64.8244 -31.6098 -31.6095 -31.6094 -31.6092
   -31.6019 -31.6018 -31.5907 -31.5906 -31.5806 -31.5803 -31.5803 -31.5800
    -8.6458  -8.6457  -7.8564  -7.8562   4.8475   4.8480   4.8480   4.8481
     5.1229   5.1232   5.9736   5.9741   6.9684   6.9685   6.9686   6.9686

          k = 0.0000-0.5000 0.2500 (  5152 PWs)   bands (ev):

   -64.8292 -64.8287 -64.8257 -64.8251 -31.6174 -31.6173 -31.6102 -31.6101
   -31.6067 -31.6064 -31.5850 -31.5848 -31.5838 -31.5837 -31.5754 -31.5752
    -8.5095  -8.5094  -7.9468  -7.9467   4.4184   4.4185   4.7512   4.7515
     5.0964   5.0966   6.5479   6.5482   6.5760   6.5760   7.0942   7.0943

          k = 0.0000-0.5000-0.5000 (  5192 PWs)   bands (ev):

   -64.8274 -64.8274 -64.8274 -64.8264 -31.6193 -31.6191 -31.6190 -31.6190
   -31.5969 -31.5967 -31.5967 -31.5964 -31.5762 -31.5760 -31.5759 -31.5759
    -8.2053  -8.2052  -8.2051  -8.2050   4.2933   4.2934   4.2934   4.2936
     5.7676   5.7677   5.7680   5.7681   7.0634   7.0636   7.0636   7.0638

          k = 0.2500 0.0013 0.0000 (  5165 PWs)   bands (ev):

   -64.8331 -64.8263 -64.8250 -64.8244 -31.6248 -31.6244 -31.6206 -31.5988
   -31.5984 -31.5939 -31.5934 -31.5890 -31.5888 -31.5788 -31.5715 -31.5712
    -9.1561  -8.1284  -7.8852  -7.8850   4.0485   4.0486   4.0956   5.8562
     5.8582   6.1707   6.1727   6.5429   6.5432   6.6587   7.4503   7.4507

          k = 0.2500 0.0013 0.2500 (  5159 PWs)   bands (ev):

   -64.8319 -64.8262 -64.8259 -64.8248 -31.6212 -31.6208 -31.6198 -31.6071
   -31.5942 -31.5938 -31.5930 -31.5878 -31.5865 -31.5863 -31.5756 -31.5684
    -8.9659  -8.0654  -8.0620  -7.8900   4.1587   4.1643   4.3288   5.0714
     5.8471   6.0511   6.0595   6.4834   6.4876   6.5836   7.1733   7.5059

          k = 0.2500 0.0013-0.5000 (  5150 PWs)   bands (ev):

   -64.8292 -64.8287 -64.8257 -64.8251 -31.6175 -31.6174 -31.6101 -31.6100
   -31.6065 -31.6062 -31.5851 -31.5849 -31.5837 -31.5836 -31.5753 -31.5752
    -8.5096  -8.5093  -7.9467  -7.9467   4.4184   4.4187   4.7512   4.7514
     5.0962   5.0966   6.5480   6.5482   6.5756   6.5758   7.0947   7.0948

          k = 0.2500 0.2513 0.0000 (  5161 PWs)   bands (ev):

   -64.8318 -64.8263 -64.8259 -64.8248 -31.6197 -31.6196 -31.6195 -31.6090
   -31.5947 -31.5942 -31.5942 -31.5873 -31.5872 -31.5866 -31.5754 -31.5676
    -8.9634  -8.0669  -8.0668  -7.8871   4.1627   4.1629   4.3315   5.0869
     5.8559   6.0514   6.0518   6.4904   6.4904   6.5577   7.1783   7.4877

          k = 0.2500 0.2513 0.2500 (  5160 PWs)   bands (ev):

   -64.8308 -64.8263 -64.8262 -64.8254 -31.6256 -31.6238 -31.6237 -31.6068
   -31.5952 -31.5950 -31.5946 -31.5840 -31.5840 -31.5829 -31.5717 -31.5704
    -8.7935  -8.0339  -8.0336  -8.0275   3.9978   3.9982   4.0103   5.1002
     5.8465   5.8490   5.8560   6.6805   6.7080   6.7081   7.3362   7.3579

          k = 0.2500 0.2513-0.5000 (  5148 PWs)   bands (ev):

   -64.8286 -64.8282 -64.8263 -64.8256 -31.6272 -31.6270 -31.6219 -31.6218
   -31.5949 -31.5946 -31.5803 -31.5803 -31.5786 -31.5785 -31.5765 -31.5763
    -8.3964  -8.3962  -8.0001  -8.0000   3.8164   3.8164   4.2097   4.2098
     5.8372   5.8372   6.7427   6.7429   6.8717   6.8719   6.9939   6.9940

          k = 0.2500-0.4988 0.0000 (  5148 PWs)   bands (ev):

   -64.8292 -64.8287 -64.8257 -64.8251 -31.6193 -31.6153 -31.6116 -31.6081
   -31.6069 -31.6066 -31.5850 -31.5848 -31.5847 -31.5825 -31.5762 -31.5741
    -8.5134  -8.5054  -7.9511  -7.9424   4.4131   4.4239   4.7491   4.7537
     5.0919   5.1009   6.5307   6.5658   6.5697   6.5823   7.0813   7.1076

          k = 0.2500-0.4988 0.2500 (  5134 PWs)   bands (ev):

   -64.8287 -64.8282 -64.8262 -64.8256 -31.6290 -31.6268 -31.6223 -31.6194
   -31.5930 -31.5927 -31.5813 -31.5801 -31.5788 -31.5780 -31.5772 -31.5761
    -8.4029  -8.3949  -8.0013  -7.9927   3.8129   3.8303   4.1916   4.2046
     5.8264   5.8344   6.7278   6.7532   6.8600   6.8774   7.0127   7.0205

          k = 0.2500-0.4988-0.5000 (  5144 PWs)   bands (ev):

   -64.8275 -64.8274 -64.8274 -64.8264 -31.6328 -31.6327 -31.6304 -31.6303
   -31.5838 -31.5835 -31.5825 -31.5823 -31.5755 -31.5753 -31.5750 -31.5749
    -8.1718  -8.1716  -8.1636  -8.1635   3.6311   3.6312   3.6497   3.6498
     6.5111   6.5113   6.5378   6.5380   7.0606   7.0608   7.0685   7.0687

          k = 0.2500-0.2488 0.0000 (  5161 PWs)   bands (ev):

   -64.8319 -64.8262 -64.8258 -64.8248 -31.6221 -31.6220 -31.6196 -31.6060
   -31.5941 -31.5941 -31.5912 -31.5891 -31.5858 -31.5856 -31.5755 -31.5699
    -8.9685  -8.0606  -8.0605  -7.8932   4.1603   4.1605   4.3260   5.0560
     5.8386   6.0596   6.0600   6.4795   6.4796   6.6097   7.1685   7.5235

          k = 0.2500-0.2488 0.2500 (  5150 PWs)   bands (ev):

   -64.8309 -64.8262 -64.8262 -64.8254 -31.6266 -31.6264 -31.6245 -31.6051
   -31.5925 -31.5923 -31.5921 -31.5850 -31.5840 -31.5839 -31.5724 -31.5708
    -8.7986  -8.0337  -8.0274  -8.0272   3.9908   4.0029   4.0032   5.0785
     5.8358   5.8429   5.8453   6.7030   6.7032   6.7309   7.3530   7.3748

          k = 0.2500-0.2488-0.5000 (  5128 PWs)   bands (ev):

   -64.8287 -64.8283 -64.8262 -64.8256 -31.6293 -31.6291 -31.6202 -31.6201
   -31.5912 -31.5909 -31.5811 -31.5811 -31.5789 -31.5786 -31.5767 -31.5766
    -8.4017  -8.4015  -7.9939  -7.9939   3.8266   3.8267   4.1864   4.1865
     5.8237   5.8237   6.7379   6.7381   6.8660   6.8662   7.0386   7.0387

          k =-0.5000-0.0025 0.0000 (  5110 PWs)   bands (ev):

   -64.8299 -64.8294 -64.8250 -64.8245 -31.6098 -31.6096 -31.6094 -31.6092
   -31.6018 -31.6018 -31.5907 -31.5907 -31.5805 -31.5803 -31.5802 -31.5800
    -8.6459  -8.6456  -7.8563  -7.8563   4.8475   4.8478   4.8481   4.8484
     5.1229   5.1232   5.9736   5.9739   6.9683   6.9684   6.9686   6.9687

          k =-0.5000-0.0025 0.2500 (  5152 PWs)   bands (ev):

   -64.8292 -64.8287 -64.8257 -64.8251 -31.6174 -31.6173 -31.6101 -31.6101
   -31.6067 -31.6065 -31.5850 -31.5848 -31.5838 -31.5837 -31.5753 -31.5752
    -8.5096  -8.5093  -7.9468  -7.9467   4.4183   4.4185   4.7512   4.7515
     5.0963   5.0968   6.5479   6.5482   6.5759   6.5762   7.0942   7.0943

          k =-0.5000-0.0025-0.5000 (  5192 PWs)   bands (ev):

   -64.8275 -64.8274 -64.8274 -64.8264 -31.6193 -31.6192 -31.6190 -31.6190
   -31.5971 -31.5968 -31.5965 -31.5962 -31.5763 -31.5762 -31.5759 -31.5758
    -8.2076  -8.2073  -8.2029  -8.2028   4.2892   4.2893   4.2975   4.2977
     5.7621   5.7626   5.7731   5.7736   7.0612   7.0612   7.0658   7.0661

          k =-0.5000 0.2475 0.0000 (  5148 PWs)   bands (ev):

   -64.8292 -64.8287 -64.8257 -64.8251 -31.6193 -31.6153 -31.6116 -31.6081
   -31.6068 -31.6066 -31.5850 -31.5848 -31.5847 -31.5825 -31.5762 -31.5741
    -8.5134  -8.5054  -7.9511  -7.9424   4.4131   4.4239   4.7491   4.7537
     5.0919   5.1009   6.5307   6.5657   6.5697   6.5823   7.0813   7.1076

          k =-0.5000 0.2475 0.2500 (  5134 PWs)   bands (ev):

   -64.8286 -64.8282 -64.8262 -64.8256 -31.6290 -31.6268 -31.6223 -31.6194
   -31.5930 -31.5927 -31.5813 -31.5801 -31.5788 -31.5781 -31.5772 -31.5761
    -8.4029  -8.3949  -8.0013  -7.9927   3.8128   3.8303   4.1916   4.2046
     5.8264   5.8345   6.7278   6.7532   6.8600   6.8775   7.0127   7.0205

          k =-0.5000 0.2475-0.5000 (  5144 PWs)   bands (ev):

   -64.8275 -64.8274 -64.8274 -64.8264 -31.6328 -31.6327 -31.6304 -31.6303
   -31.5838 -31.5835 -31.5825 -31.5823 -31.5755 -31.5753 -31.5749 -31.5749
    -8.1721  -8.1719  -8.1633  -8.1632   3.6306   3.6307   3.6501   3.6503
     6.5106   6.5107   6.5384   6.5386   7.0602   7.0604   7.0688   7.0690

          k =-0.5000-0.5025 0.0000 (  5196 PWs)   bands (ev):

   -64.8275 -64.8274 -64.8274 -64.8264 -31.6212 -31.6210 -31.6169 -31.6167
   -31.5974 -31.5972 -31.5972 -31.5969 -31.5767 -31.5764 -31.5754 -31.5752
    -8.2112  -8.2110  -8.1993  -8.1991   4.2899   4.2902   4.2967   4.2969
     5.7597   5.7601   5.7745   5.7749   7.0434   7.0435   7.0841   7.0842

          k =-0.5000-0.5025 0.2500 (  5136 PWs)   bands (ev):

   -64.8275 -64.8274 -64.8273 -64.8264 -31.6328 -31.6327 -31.6306 -31.6304
   -31.5834 -31.5833 -31.5819 -31.5819 -31.5764 -31.5762 -31.5740 -31.5738
    -8.1736  -8.1735  -8.1618  -8.1617   3.6328   3.6329   3.6479   3.6480
     6.5223   6.5227   6.5265   6.5268   7.0446   7.0447   7.0848   7.0849

          k =-0.5000-0.5025-0.5000 (  5136 PWs)   bands (ev):

   -64.8275 -64.8274 -64.8273 -64.8264 -31.6399 -31.6397 -31.6391 -31.6390
   -31.5756 -31.5754 -31.5751 -31.5749 -31.5748 -31.5747 -31.5745 -31.5742
    -8.1355  -8.1354  -8.1237  -8.1236   3.2081   3.2082   3.2270   3.2271
     7.0453   7.0453   7.0648   7.0650   7.0658   7.0660   7.0859   7.0859

     highest occupied level (ev):     7.6907

!    total energy              =    -608.39279867 Ry
     Harris-Foulkes estimate   =    -608.39279867 Ry
     estimated scf accuracy    <          6.6E-11 Ry

     The total energy is the sum of the following terms:

     one-electron contribution =    -303.55595587 Ry
     hartree contribution      =     168.06743746 Ry
     xc contribution           =     -97.84642064 Ry
     ewald contribution        =    -375.05785963 Ry

     convergence has been achieved in   5 iterations

     Forces acting on atoms (cartesian axes, Ry/au):

     atom    1 type  1   force =     0.00059024   -0.00000513    0.00000000
     atom    2 type  1   force =    -0.00064391    0.00000447    0.00000000
     atom    3 type  1   force =     0.00067471   -0.00000470    0.00000000
     atom    4 type  1   force =    -0.00064055    0.00000478    0.00000000
     atom    5 type  2   force =     0.00062746   -0.00000161    0.00000000
     atom    6 type  2   force =    -0.00059856    0.00000231    0.00000000
     atom    7 type  2   force =     0.00059965   -0.00000188    0.00000000
     atom    8 type  2   force =    -0.00060905    0.00000177    0.00000000

     Total force =     0.001764     Total SCF correction =     0.000020


     Computing stress (Cartesian axis) and pressure

          total   stress  (Ry/bohr**3)                   (kbar)     P=  -68.01
  -0.00046269   0.00004868   0.00000000        -68.06      7.16      0.00
   0.00004868  -0.00046214   0.00000000          7.16    -67.98      0.00
   0.00000000   0.00000000  -0.00046214          0.00      0.00    -67.98


     number of scf cycles    =   4
     number of bfgs steps    =   3

     energy   old            =    -608.3927839716 Ry
     energy   new            =    -608.3927986742 Ry

     CASE: energy  _new < energy  _old

     new trust radius        =       0.0038475460 bohr
     new conv_thr            =       0.0000000001 Ry


ATOMIC_POSITIONS (alat)
Mg       0.001004603   0.000012210   0.000000000
Mg      -0.001089135   0.499986616   0.500000000
Mg       0.501057224   0.000012569   0.500000000
Mg       0.499038083   0.499988755   0.000000000
O        0.501177735   0.000006664   0.000000000
O       -0.001202235   0.499993571   0.000000000
O        0.001159071   0.000006225   0.500000000
O        0.498854653   0.499993390   0.500000000



     Writing output data file diamond..70.4.save
     NEW-OLD atomic charge density approx. for the potential

     Check: negative/imaginary core charge=   -0.000007    0.000000

     total cpu time spent up to now is       29.5 secs

     per-process dynamical memory:    52.3 Mb

     Self-consistent Calculation

     iteration #  1     ecut=    70.00 Ry     beta=0.70
     Davidson diagonalization with overlap
     ethr =  1.00E-06,  avg # of iterations =  3.0

     Threshold (ethr) on eigenvalues was too large:
     Diagonalizing with lowered threshold

     Davidson diagonalization with overlap
     ethr =  8.88E-09,  avg # of iterations =  2.3

     total cpu time spent up to now is       31.9 secs

     total energy              =    -608.39280868 Ry
     Harris-Foulkes estimate   =    -608.39281189 Ry
     estimated scf accuracy    <       0.00000580 Ry

     iteration #  2     ecut=    70.00 Ry     beta=0.70
     Davidson diagonalization with overlap
     ethr =  9.06E-09,  avg # of iterations =  2.0

     total cpu time spent up to now is       32.9 secs

     total energy              =    -608.39280965 Ry
     Harris-Foulkes estimate   =    -608.39280969 Ry
     estimated scf accuracy    <       0.00000015 Ry

     iteration #  3     ecut=    70.00 Ry     beta=0.70
     Davidson diagonalization with overlap
     ethr =  2.28E-10,  avg # of iterations =  2.0

     total cpu time spent up to now is       33.9 secs

     total energy              =    -608.39280967 Ry
     Harris-Foulkes estimate   =    -608.39280967 Ry
     estimated scf accuracy    <          9.7E-09 Ry

     iteration #  4     ecut=    70.00 Ry     beta=0.70
     Davidson diagonalization with overlap
     ethr =  1.51E-11,  avg # of iterations =  2.1

     total cpu time spent up to now is       35.0 secs

     total energy              =    -608.39280967 Ry
     Harris-Foulkes estimate   =    -608.39280967 Ry
     estimated scf accuracy    <          1.7E-09 Ry

     iteration #  5     ecut=    70.00 Ry     beta=0.70
     Davidson diagonalization with overlap
     ethr =  2.67E-12,  avg # of iterations =  3.0

     total cpu time spent up to now is       36.1 secs

     End of self-consistent calculation

          k = 0.0000 0.0000 0.0000 (  5153 PWs)   bands (ev):

   -64.8345 -64.8250 -64.8250 -64.8242 -31.6311 -31.6310 -31.6309 -31.5945
   -31.5934 -31.5934 -31.5932 -31.5932 -31.5922 -31.5653 -31.5643 -31.5638
    -9.3645  -7.9137  -7.9135  -7.9134   3.7582   3.7583   3.7583   6.3512
     6.3801   6.3802   6.3802   6.3805   6.4094   7.6542   7.6725   7.6907

          k = 0.0000 0.0000 0.2500 (  5157 PWs)   bands (ev):

   -64.8331 -64.8262 -64.8250 -64.8244 -31.6246 -31.6246 -31.6203 -31.5980
   -31.5980 -31.5940 -31.5940 -31.5897 -31.5875 -31.5782 -31.5728 -31.5700
    -9.1561  -8.1285  -7.8851  -7.8850   4.0487   4.0487   4.0955   5.8582
     5.8582   6.1706   6.1710   6.5153   6.5713   6.6590   7.4302   7.4707

          k = 0.0000 0.0000-0.5000 (  5118 PWs)   bands (ev):

   -64.8299 -64.8294 -64.8250 -64.8244 -31.6119 -31.6117 -31.6077 -31.6075
   -31.6019 -31.6019 -31.5907 -31.5907 -31.5819 -31.5816 -31.5792 -31.5790
    -8.6460  -8.6457  -7.8563  -7.8562   4.8445   4.8445   4.8512   4.8513
     5.1227   5.1230   5.9736   5.9740   6.9440   6.9441   6.9930   6.9932

          k = 0.0000 0.2500 0.0000 (  5165 PWs)   bands (ev):

   -64.8331 -64.8262 -64.8250 -64.8244 -31.6248 -31.6243 -31.6206 -31.5988
   -31.5984 -31.5938 -31.5934 -31.5890 -31.5888 -31.5788 -31.5714 -31.5712
    -9.1561  -8.1284  -7.8852  -7.8851   4.0485   4.0486   4.0956   5.8562
     5.8582   6.1707   6.1727   6.5429   6.5431   6.6587   7.4503   7.4507

          k = 0.0000 0.2500 0.2500 (  5159 PWs)   bands (ev):

   -64.8319 -64.8262 -64.8258 -64.8248 -31.6212 -31.6208 -31.6198 -31.6071
   -31.5941 -31.5939 -31.5930 -31.5878 -31.5865 -31.5863 -31.5756 -31.5683
    -8.9659  -8.0638  -8.0637  -7.8901   4.1613   4.1617   4.3288   5.0714
     5.8471   6.0549   6.0557   6.4850   6.4860   6.5836   7.1733   7.5059

          k = 0.0000 0.2500-0.5000 (  5150 PWs)   bands (ev):

   -64.8291 -64.8287 -64.8257 -64.8251 -31.6175 -31.6174 -31.6101 -31.6100
   -31.6065 -31.6062 -31.5851 -31.5849 -31.5837 -31.5836 -31.5753 -31.5751
    -8.5096  -8.5093  -7.9468  -7.9467   4.4185   4.4187   4.7511   4.7514
     5.0962   5.0966   6.5480   6.5482   6.5755   6.5757   7.0947   7.0947

          k = 0.0000-0.5000 0.0000 (  5110 PWs)   bands (ev):

   -64.8299 -64.8294 -64.8250 -64.8244 -31.6098 -31.6095 -31.6094 -31.6092
   -31.6018 -31.6018 -31.5907 -31.5906 -31.5805 -31.5803 -31.5802 -31.5800
    -8.6458  -8.6457  -7.8564  -7.8563   4.8477   4.8479   4.8480   4.8481
     5.1229   5.1232   5.9736   5.9739   6.9684   6.9685   6.9685   6.9686

          k = 0.0000-0.5000 0.2500 (  5152 PWs)   bands (ev):

   -64.8291 -64.8287 -64.8257 -64.8251 -31.6174 -31.6173 -31.6101 -31.6101
   -31.6067 -31.6064 -31.5850 -31.5848 -31.5838 -31.5837 -31.5753 -31.5752
    -8.5095  -8.5094  -7.9468  -7.9467   4.4184   4.4185   4.7512   4.7514
     5.0964   5.0966   6.5479   6.5481   6.5759   6.5761   7.0942   7.0943

          k = 0.0000-0.5000-0.5000 (  5192 PWs)   bands (ev):

   -64.8274 -64.8274 -64.8274 -64.8264 -31.6193 -31.6191 -31.6190 -31.6190
   -31.5969 -31.5967 -31.5967 -31.5964 -31.5762 -31.5760 -31.5759 -31.5759
    -8.2053  -8.2052  -8.2051  -8.2051   4.2933   4.2934   4.2934   4.2935
     5.7676   5.7677   5.7680   5.7681   7.0634   7.0636   7.0636   7.0638

          k = 0.2500 0.0013 0.0000 (  5165 PWs)   bands (ev):

   -64.8331 -64.8262 -64.8250 -64.8244 -31.6248 -31.6243 -31.6206 -31.5988
   -31.5984 -31.5938 -31.5934 -31.5890 -31.5888 -31.5788 -31.5714 -31.5712
    -9.1561  -8.1284  -7.8852  -7.8851   4.0485   4.0486   4.0956   5.8562
     5.8582   6.1707   6.1727   6.5429   6.5431   6.6587   7.4503   7.4507

          k = 0.2500 0.0013 0.2500 (  5159 PWs)   bands (ev):

   -64.8319 -64.8262 -64.8258 -64.8248 -31.6212 -31.6208 -31.6198 -31.6071
   -31.5941 -31.5939 -31.5930 -31.5878 -31.5865 -31.5863 -31.5755 -31.5683
    -8.9659  -8.0639  -8.0635  -7.8901   4.1612   4.1618   4.3288   5.0714
     5.8471   6.0547   6.0559   6.4849   6.4861   6.5836   7.1733   7.5059

          k = 0.2500 0.0013-0.5000 (  5150 PWs)   bands (ev):

   -64.8291 -64.8287 -64.8257 -64.8251 -31.6175 -31.6174 -31.6101 -31.6100
   -31.6065 -31.6062 -31.5851 -31.5849 -31.5837 -31.5836 -31.5753 -31.5752
    -8.5096  -8.5093  -7.9468  -7.9467   4.4185   4.4187   4.7511   4.7514
     5.0962   5.0966   6.5480   6.5482   6.5755   6.5757   7.0947   7.0947

          k = 0.2500 0.2513 0.0000 (  5161 PWs)   bands (ev):

   -64.8318 -64.8263 -64.8259 -64.8248 -31.6197 -31.6196 -31.6195 -31.6089
   -31.5947 -31.5942 -31.5942 -31.5873 -31.5872 -31.5866 -31.5754 -31.5676
    -8.9634  -8.0669  -8.0667  -7.8871   4.1627   4.1629   4.3315   5.0869
     5.8558   6.0514   6.0518   6.4904   6.4904   6.5577   7.1783   7.4877

          k = 0.2500 0.2513 0.2500 (  5160 PWs)   bands (ev):

   -64.8308 -64.8263 -64.8262 -64.8254 -31.6255 -31.6238 -31.6236 -31.6068
   -31.5951 -31.5950 -31.5946 -31.5840 -31.5840 -31.5829 -31.5717 -31.5703
    -8.7935  -8.0337  -8.0336  -8.0277   3.9981   3.9982   4.0100   5.1002
     5.8488   5.8491   5.8536   6.6805   6.7079   6.7081   7.3361   7.3578

          k = 0.2500 0.2513-0.5000 (  5148 PWs)   bands (ev):

   -64.8286 -64.8282 -64.8262 -64.8256 -31.6272 -31.6270 -31.6218 -31.6217
   -31.5949 -31.5946 -31.5803 -31.5802 -31.5786 -31.5785 -31.5765 -31.5763
    -8.3964  -8.3962  -8.0001  -8.0000   3.8164   3.8164   4.2097   4.2098
     5.8372   5.8372   6.7427   6.7429   6.8717   6.8719   6.9939   6.9940

          k = 0.2500-0.4988 0.0000 (  5148 PWs)   bands (ev):

   -64.8291 -64.8287 -64.8257 -64.8251 -31.6193 -31.6153 -31.6116 -31.6081
   -31.6068 -31.6066 -31.5850 -31.5847 -31.5847 -31.5825 -31.5761 -31.5741
    -8.5134  -8.5054  -7.9511  -7.9424   4.4131   4.4239   4.7490   4.7537
     5.0919   5.1008   6.5307   6.5657   6.5697   6.5823   7.0813   7.1076

          k = 0.2500-0.4988 0.2500 (  5134 PWs)   bands (ev):

   -64.8286 -64.8282 -64.8262 -64.8256 -31.6290 -31.6268 -31.6223 -31.6194
   -31.5930 -31.5927 -31.5813 -31.5801 -31.5788 -31.5780 -31.5771 -31.5761
    -8.4029  -8.3949  -8.0013  -7.9927   3.8128   3.8303   4.1915   4.2046
     5.8264   5.8344   6.7278   6.7532   6.8600   6.8774   7.0127   7.0204

          k = 0.2500-0.4988-0.5000 (  5144 PWs)   bands (ev):

   -64.8275 -64.8274 -64.8274 -64.8264 -31.6328 -31.6327 -31.6304 -31.6303
   -31.5837 -31.5835 -31.5825 -31.5823 -31.5754 -31.5753 -31.5749 -31.5749
    -8.1718  -8.1716  -8.1637  -8.1635   3.6311   3.6312   3.6497   3.6497
     6.5111   6.5113   6.5378   6.5380   7.0606   7.0607   7.0685   7.0687

          k = 0.2500-0.2488 0.0000 (  5161 PWs)   bands (ev):

   -64.8319 -64.8262 -64.8258 -64.8248 -31.6221 -31.6219 -31.6196 -31.6060
   -31.5941 -31.5941 -31.5912 -31.5891 -31.5857 -31.5856 -31.5754 -31.5699
    -8.9685  -8.0606  -8.0605  -7.8932   4.1603   4.1605   4.3260   5.0560
     5.8386   6.0596   6.0600   6.4795   6.4795   6.6097   7.1685   7.5235

          k = 0.2500-0.2488 0.2500 (  5150 PWs)   bands (ev):

   -64.8309 -64.8262 -64.8262 -64.8254 -31.6266 -31.6264 -31.6245 -31.6051
   -31.5925 -31.5923 -31.5921 -31.5849 -31.5839 -31.5839 -31.5724 -31.5708
    -8.7987  -8.0335  -8.0275  -8.0274   3.9911   4.0028   4.0029   5.0784
     5.8382   5.8428   5.8430   6.7030   6.7031   6.7309   7.3530   7.3748

          k = 0.2500-0.2488-0.5000 (  5128 PWs)   bands (ev):

   -64.8287 -64.8283 -64.8262 -64.8256 -31.6293 -31.6291 -31.6202 -31.6201
   -31.5911 -31.5909 -31.5811 -31.5810 -31.5788 -31.5786 -31.5767 -31.5766
    -8.4017  -8.4015  -7.9940  -7.9939   3.8266   3.8267   4.1863   4.1865
     5.8237   5.8238   6.7379   6.7381   6.8660   6.8661   7.0385   7.0387

          k =-0.5000-0.0025 0.0000 (  5110 PWs)   bands (ev):

   -64.8299 -64.8294 -64.8250 -64.8244 -31.6098 -31.6095 -31.6094 -31.6092
   -31.6018 -31.6018 -31.5907 -31.5906 -31.5805 -31.5803 -31.5802 -31.5800
[...]

   -64.8275 -64.8274 -64.8273 -64.8264 -31.6399 -31.6397 -31.6391 -31.6390
   -31.5756 -31.5754 -31.5751 -31.5749 -31.5748 -31.5747 -31.5744 -31.5742
    -8.1355  -8.1354  -8.1237  -8.1236   3.2081   3.2082   3.2270   3.2271
     7.0452   7.0453   7.0648   7.0650   7.0658   7.0660   7.0858   7.0859

     highest occupied level (ev):     7.6907

!    total energy              =    -608.39281034 Ry
     Harris-Foulkes estimate   =    -608.39281034 Ry
     estimated scf accuracy    <          4.0E-11 Ry

     The total energy is the sum of the following terms:

     one-electron contribution =    -303.55613443 Ry
     hartree contribution      =     168.06753303 Ry
     xc contribution           =     -97.84642619 Ry
     ewald contribution        =    -375.05778275 Ry

     convergence has been achieved in   3 iterations

     Forces acting on atoms (cartesian axes, Ry/au):

     atom    1 type  1   force =     0.00000536   -0.00000934    0.00000000
     atom    2 type  1   force =    -0.00001806    0.00001088    0.00000000
     atom    3 type  1   force =     0.00009055   -0.00001010    0.00000000
     atom    4 type  1   force =    -0.00011552    0.00000894    0.00000000
     atom    5 type  2   force =    -0.00005923   -0.00000472    0.00000000
     atom    6 type  2   force =     0.00009877    0.00000502    0.00000000
     atom    7 type  2   force =    -0.00006875   -0.00000506    0.00000000
     atom    8 type  2   force =     0.00006688    0.00000437    0.00000000

     Total force =     0.000212     Total SCF correction =     0.000013


     Computing stress (Cartesian axis) and pressure

          total   stress  (Ry/bohr**3)                   (kbar)     P=  -68.01
  -0.00046268   0.00004868   0.00000000        -68.06      7.16      0.00
   0.00004868  -0.00046220   0.00000000          7.16    -67.99      0.00
   0.00000000   0.00000000  -0.00046212          0.00      0.00    -67.98


     number of scf cycles    =   7
     number of bfgs steps    =   6

     energy   old            =    -608.3928102602 Ry
     energy   new            =    -608.3928103374 Ry

     CASE: energy  _new < energy  _old

     new trust radius        =       0.0003041603 bohr
     new conv_thr            =            1.0E-10 Ry


ATOMIC_POSITIONS (alat)
Mg       0.001140129   0.000004861   0.000000000
Mg      -0.001242157   0.499994506   0.500000000
Mg       0.501257012   0.000004926   0.500000000
Mg       0.498830563   0.499995739   0.000000000
O        0.501281936   0.000003573   0.000000000
O       -0.001275919   0.499996976   0.000000000
O        0.001250471   0.000003038   0.500000000
O        0.498757965   0.499996381   0.500000000



     Writing output data file diamond..70.4.save
     NEW-OLD atomic charge density approx. for the potential

     Check: negative/imaginary core charge=   -0.000007    0.000000

     total cpu time spent up to now is       48.9 secs

     per-process dynamical memory:    52.3 Mb

     Self-consistent Calculation

     iteration #  1     ecut=    70.00 Ry     beta=0.70
     Davidson diagonalization with overlap
     ethr =  1.00E-06,  avg # of iterations =  2.0

     Threshold (ethr) on eigenvalues was too large:
     Diagonalizing with lowered threshold

     Davidson diagonalization with overlap
     ethr =  1.81E-11,  avg # of iterations =  3.5

     total cpu time spent up to now is       51.3 secs

     total energy              =    -608.39281041 Ry
     Harris-Foulkes estimate   =    -608.39281042 Ry
     estimated scf accuracy    <       0.00000002 Ry

     iteration #  2     ecut=    70.00 Ry     beta=0.70
     Davidson diagonalization with overlap
     ethr =  2.93E-11,  avg # of iterations =  2.0

     total cpu time spent up to now is       52.3 secs

     total energy              =    -608.39281041 Ry
     Harris-Foulkes estimate   =    -608.39281041 Ry
     estimated scf accuracy    <          7.7E-10 Ry

     iteration #  3     ecut=    70.00 Ry     beta=0.70
     Davidson diagonalization with overlap
     ethr =  1.20E-12,  avg # of iterations =  3.0

     total cpu time spent up to now is       53.4 secs

     total energy              =    -608.39281041 Ry
     Harris-Foulkes estimate   =    -608.39281041 Ry
     estimated scf accuracy    <          3.9E-10 Ry

     iteration #  4     ecut=    70.00 Ry     beta=0.70
     Davidson diagonalization with overlap
     ethr =  6.14E-13,  avg # of iterations =  3.0

     total cpu time spent up to now is       54.5 secs

     End of self-consistent calculation

          k = 0.0000 0.0000 0.0000 (  5153 PWs)   bands (ev):

   -64.8345 -64.8250 -64.8250 -64.8242 -31.6311 -31.6310 -31.6309 -31.5945
   -31.5934 -31.5934 -31.5932 -31.5932 -31.5922 -31.5653 -31.5643 -31.5638
    -9.3645  -7.9137  -7.9135  -7.9135   3.7582   3.7583   3.7583   6.3512
     6.3801   6.3802   6.3802   6.3805   6.4094   7.6542   7.6725   7.6907

          k = 0.0000 0.0000 0.2500 (  5157 PWs)   bands (ev):

   -64.8331 -64.8262 -64.8250 -64.8244 -31.6246 -31.6246 -31.6203 -31.5980
   -31.5980 -31.5940 -31.5940 -31.5897 -31.5875 -31.5782 -31.5728 -31.5700
    -9.1561  -8.1285  -7.8851  -7.8850   4.0487   4.0487   4.0955   5.8582
     5.8582   6.1706   6.1710   6.5153   6.5713   6.6590   7.4302   7.4707

          k = 0.0000 0.0000-0.5000 (  5118 PWs)   bands (ev):

   -64.8299 -64.8294 -64.8250 -64.8244 -31.6119 -31.6117 -31.6077 -31.6075
   -31.6019 -31.6019 -31.5907 -31.5907 -31.5819 -31.5816 -31.5792 -31.5790
    -8.6460  -8.6457  -7.8563  -7.8562   4.8445   4.8445   4.8512   4.8513
     5.1227   5.1230   5.9736   5.9739   6.9440   6.9441   6.9930   6.9932

          k = 0.0000 0.2500 0.0000 (  5165 PWs)   bands (ev):

   -64.8331 -64.8262 -64.8250 -64.8244 -31.6248 -31.6243 -31.6206 -31.5988
   -31.5984 -31.5938 -31.5934 -31.5890 -31.5888 -31.5788 -31.5714 -31.5712
    -9.1561  -8.1284  -7.8852  -7.8851   4.0485   4.0486   4.0956   5.8562
     5.8582   6.1707   6.1727   6.5429   6.5431   6.6587   7.4503   7.4507

          k = 0.0000 0.2500 0.2500 (  5159 PWs)   bands (ev):

   -64.8319 -64.8262 -64.8258 -64.8248 -31.6212 -31.6208 -31.6198 -31.6071
   -31.5941 -31.5939 -31.5930 -31.5878 -31.5865 -31.5863 -31.5755 -31.5683
    -8.9659  -8.0638  -8.0637  -7.8901   4.1613   4.1617   4.3288   5.0714
     5.8471   6.0549   6.0557   6.4850   6.4860   6.5836   7.1733   7.5059

          k = 0.0000 0.2500-0.5000 (  5150 PWs)   bands (ev):

   -64.8291 -64.8287 -64.8257 -64.8251 -31.6175 -31.6174 -31.6101 -31.6100
   -31.6065 -31.6062 -31.5851 -31.5849 -31.5837 -31.5836 -31.5753 -31.5751
    -8.5096  -8.5093  -7.9468  -7.9467   4.4185   4.4187   4.7511   4.7513
     5.0962   5.0966   6.5480   6.5482   6.5755   6.5757   7.0947   7.0947

          k = 0.0000-0.5000 0.0000 (  5110 PWs)   bands (ev):

   -64.8299 -64.8294 -64.8250 -64.8244 -31.6098 -31.6095 -31.6094 -31.6092
   -31.6018 -31.6018 -31.5907 -31.5906 -31.5805 -31.5803 -31.5802 -31.5800
    -8.6458  -8.6457  -7.8564  -7.8563   4.8478   4.8478   4.8480   4.8481
     5.1229   5.1232   5.9736   5.9739   6.9685   6.9685   6.9685   6.9685

          k = 0.0000-0.5000 0.2500 (  5152 PWs)   bands (ev):

   -64.8291 -64.8287 -64.8257 -64.8251 -31.6174 -31.6173 -31.6101 -31.6101
   -31.6067 -31.6064 -31.5850 -31.5848 -31.5838 -31.5837 -31.5753 -31.5752
    -8.5095  -8.5094  -7.9468  -7.9467   4.4184   4.4185   4.7512   4.7514
     5.0965   5.0965   6.5479   6.5481   6.5760   6.5760   7.0942   7.0943

          k = 0.0000-0.5000-0.5000 (  5192 PWs)   bands (ev):

   -64.8274 -64.8274 -64.8274 -64.8264 -31.6193 -31.6191 -31.6190 -31.6190
   -31.5969 -31.5967 -31.5967 -31.5964 -31.5762 -31.5760 -31.5759 -31.5759
    -8.2053  -8.2052  -8.2051  -8.2051   4.2933   4.2934   4.2934   4.2935
     5.7676   5.7676   5.7680   5.7681   7.0634   7.0636   7.0636   7.0638

          k = 0.2500 0.0013 0.0000 (  5165 PWs)   bands (ev):

   -64.8331 -64.8262 -64.8250 -64.8244 -31.6248 -31.6243 -31.6206 -31.5988
   -31.5984 -31.5938 -31.5934 -31.5890 -31.5888 -31.5788 -31.5714 -31.5712
    -9.1561  -8.1284  -7.8852  -7.8851   4.0485   4.0486   4.0956   5.8562
     5.8582   6.1707   6.1727   6.5429   6.5431   6.6587   7.4503   7.4507

          k = 0.2500 0.0013 0.2500 (  5159 PWs)   bands (ev):

   -64.8319 -64.8262 -64.8258 -64.8248 -31.6212 -31.6208 -31.6198 -31.6071
   -31.5941 -31.5939 -31.5930 -31.5878 -31.5865 -31.5863 -31.5755 -31.5683
    -8.9659  -8.0638  -8.0636  -7.8901   4.1612   4.1617   4.3288   5.0714
     5.8471   6.0548   6.0557   6.4850   6.4860   6.5836   7.1733   7.5059

          k = 0.2500 0.0013-0.5000 (  5150 PWs)   bands (ev):

   -64.8291 -64.8287 -64.8257 -64.8251 -31.6175 -31.6174 -31.6101 -31.6100
   -31.6065 -31.6062 -31.5851 -31.5849 -31.5837 -31.5836 -31.5753 -31.5751
    -8.5096  -8.5093  -7.9468  -7.9467   4.4185   4.4187   4.7511   4.7513
     5.0962   5.0966   6.5480   6.5482   6.5755   6.5757   7.0947   7.0947

          k = 0.2500 0.2513 0.0000 (  5161 PWs)   bands (ev):

   -64.8318 -64.8263 -64.8259 -64.8248 -31.6197 -31.6196 -31.6195 -31.6089
   -31.5947 -31.5942 -31.5942 -31.5873 -31.5872 -31.5866 -31.5754 -31.5676
    -8.9634  -8.0669  -8.0668  -7.8871   4.1628   4.1628   4.3315   5.0869
     5.8558   6.0514   6.0518   6.4904   6.4904   6.5577   7.1783   7.4877

          k = 0.2500 0.2513 0.2500 (  5160 PWs)   bands (ev):

   -64.8308 -64.8262 -64.8262 -64.8254 -31.6255 -31.6238 -31.6236 -31.6068
   -31.5951 -31.5950 -31.5946 -31.5840 -31.5840 -31.5829 -31.5717 -31.5703
    -8.7935  -8.0337  -8.0336  -8.0277   3.9981   3.9982   4.0100   5.1002
     5.8489   5.8490   5.8535   6.6805   6.7079   6.7081   7.3361   7.3578

          k = 0.2500 0.2513-0.5000 (  5148 PWs)   bands (ev):

   -64.8286 -64.8282 -64.8262 -64.8256 -31.6272 -31.6270 -31.6218 -31.6217
   -31.5949 -31.5946 -31.5803 -31.5802 -31.5786 -31.5785 -31.5765 -31.5763
    -8.3964  -8.3962  -8.0001  -8.0000   3.8164   3.8164   4.2097   4.2098
     5.8372   5.8372   6.7427   6.7429   6.8717   6.8719   6.9939   6.9940

          k = 0.2500-0.4988 0.0000 (  5148 PWs)   bands (ev):

   -64.8291 -64.8287 -64.8257 -64.8251 -31.6193 -31.6153 -31.6116 -31.6081
   -31.6068 -31.6066 -31.5850 -31.5847 -31.5847 -31.5825 -31.5761 -31.5741
    -8.5134  -8.5054  -7.9511  -7.9424   4.4131   4.4239   4.7490   4.7537
     5.0919   5.1008   6.5307   6.5657   6.5697   6.5823   7.0813   7.1076

          k = 0.2500-0.4988 0.2500 (  5134 PWs)   bands (ev):

   -64.8286 -64.8282 -64.8262 -64.8256 -31.6290 -31.6268 -31.6223 -31.6194
   -31.5930 -31.5927 -31.5813 -31.5801 -31.5788 -31.5780 -31.5771 -31.5761
    -8.4029  -8.3949  -8.0013  -7.9927   3.8128   3.8303   4.1915   4.2046
     5.8264   5.8344   6.7278   6.7532   6.8600   6.8774   7.0127   7.0204

          k = 0.2500-0.4988-0.5000 (  5144 PWs)   bands (ev):

   -64.8275 -64.8274 -64.8274 -64.8264 -31.6328 -31.6327 -31.6304 -31.6303
   -31.5837 -31.5835 -31.5825 -31.5823 -31.5754 -31.5753 -31.5749 -31.5749
    -8.1718  -8.1716  -8.1637  -8.1635   3.6311   3.6312   3.6497   3.6497
     6.5111   6.5113   6.5378   6.5380   7.0606   7.0607   7.0685   7.0687

          k = 0.2500-0.2488 0.0000 (  5161 PWs)   bands (ev):

   -64.8319 -64.8262 -64.8258 -64.8248 -31.6221 -31.6219 -31.6196 -31.6060
   -31.5941 -31.5941 -31.5912 -31.5891 -31.5857 -31.5856 -31.5754 -31.5699
    -8.9685  -8.0606  -8.0605  -7.8932   4.1604   4.1604   4.3260   5.0560
     5.8386   6.0596   6.0600   6.4795   6.4795   6.6097   7.1685   7.5235

          k = 0.2500-0.2488 0.2500 (  5150 PWs)   bands (ev):

   -64.8309 -64.8262 -64.8262 -64.8254 -31.6266 -31.6264 -31.6245 -31.6051
   -31.5924 -31.5923 -31.5921 -31.5849 -31.5839 -31.5839 -31.5724 -31.5708
    -8.7987  -8.0335  -8.0275  -8.0274   3.9911   4.0029   4.0029   5.0784
     5.8382   5.8428   5.8429   6.7030   6.7031   6.7309   7.3530   7.3748

          k = 0.2500-0.2488-0.5000 (  5128 PWs)   bands (ev):

   -64.8287 -64.8283 -64.8262 -64.8256 -31.6293 -31.6291 -31.6202 -31.6201
   -31.5911 -31.5909 -31.5811 -31.5810 -31.5788 -31.5786 -31.5767 -31.5766
    -8.4017  -8.4015  -7.9940  -7.9939   3.8266   3.8267   4.1863   4.1865
     5.8237   5.8238   6.7379   6.7381   6.8660   6.8661   7.0385   7.0387

          k =-0.5000-0.0025 0.0000 (  5110 PWs)   bands (ev):

   -64.8299 -64.8294 -64.8250 -64.8244 -31.6098 -31.6095 -31.6094 -31.6092
   -31.6018 -31.6018 -31.5907 -31.5906 -31.5805 -31.5803 -31.5802 -31.5800
    -8.6460  -8.6455  -7.8564  -7.8563   4.8474   4.8476   4.8482   4.8485
     5.1229   5.1232   5.9736   5.9739   6.9683   6.9683   6.9687   6.9687

          k =-0.5000-0.0025 0.2500 (  5152 PWs)   bands (ev):

   -64.8291 -64.8287 -64.8257 -64.8251 -31.6174 -31.6173 -31.6101 -31.6101
   -31.6067 -31.6064 -31.5850 -31.5848 -31.5838 -31.5837 -31.5753 -31.5752
    -8.5096  -8.5092  -7.9468  -7.9467   4.4182   4.4186   4.7512   4.7515
     5.0961   5.0969   6.5479   6.5482   6.5757   6.5763   7.0941   7.0943

          k =-0.5000-0.0025-0.5000 (  5192 PWs)   bands (ev):

   -64.8274 -64.8274 -64.8274 -64.8264 -31.6193 -31.6191 -31.6190 -31.6190
   -31.5968 -31.5967 -31.5966 -31.5964 -31.5762 -31.5760 -31.5759 -31.5759
    -8.2054  -8.2053  -8.2052  -8.2049   4.2931   4.2933   4.2935   4.2937
     5.7672   5.7676   5.7680   5.7685   7.0633   7.0636   7.0637   7.0638

          k =-0.5000 0.2475 0.0000 (  5148 PWs)   bands (ev):

   -64.8291 -64.8287 -64.8257 -64.8251 -31.6193 -31.6153 -31.6116 -31.6081
   -31.6068 -31.6066 -31.5850 -31.5847 -31.5847 -31.5825 -31.5761 -31.5741
    -8.5134  -8.5054  -7.9511  -7.9424   4.4131   4.4239   4.7490   4.7537
     5.0919   5.1009   6.5307   6.5657   6.5697   6.5823   7.0813   7.1076

          k =-0.5000 0.2475 0.2500 (  5134 PWs)   bands (ev):

   -64.8286 -64.8282 -64.8262 -64.8256 -31.6290 -31.6268 -31.6223 -31.6194
   -31.5930 -31.5927 -31.5813 -31.5801 -31.5788 -31.5780 -31.5771 -31.5761
    -8.4029  -8.3949  -8.0013  -7.9927   3.8128   3.8303   4.1915   4.2046
     5.8264   5.8344   6.7278   6.7532   6.8600   6.8774   7.0127   7.0204

          k =-0.5000 0.2475-0.5000 (  5144 PWs)   bands (ev):

   -64.8275 -64.8274 -64.8274 -64.8264 -31.6328 -31.6327 -31.6304 -31.6303
   -31.5837 -31.5835 -31.5825 -31.5823 -31.5754 -31.5753 -31.5749 -31.5749
    -8.1718  -8.1716  -8.1637  -8.1635   3.6311   3.6312   3.6497   3.6497
     6.5111   6.5113   6.5378   6.5380   7.0606   7.0607   7.0685   7.0687

          k =-0.5000-0.5025 0.0000 (  5196 PWs)   bands (ev):

   -64.8275 -64.8274 -64.8273 -64.8264 -31.6212 -31.6210 -31.6169 -31.6166
   -31.5974 -31.5972 -31.5971 -31.5969 -31.5767 -31.5764 -31.5754 -31.5752
    -8.2112  -8.2111  -8.1993  -8.1992   4.2900   4.2901   4.2967   4.2968
     5.7597   5.7601   5.7745   5.7749   7.0434   7.0435   7.0841   7.0841

          k =-0.5000-0.5025 0.2500 (  5136 PWs)   bands (ev):

   -64.8275 -64.8274 -64.8273 -64.8264 -31.6328 -31.6326 -31.6305 -31.6304
   -31.5833 -31.5833 -31.5819 -31.5819 -31.5764 -31.5762 -31.5740 -31.5737
    -8.1736  -8.1735  -8.1618  -8.1617   3.6328   3.6328   3.6479   3.6480
     6.5224   6.5226   6.5265   6.5268   7.0446   7.0446   7.0848   7.0849

          k =-0.5000-0.5025-0.5000 (  5136 PWs)   bands (ev):

   -64.8275 -64.8274 -64.8273 -64.8264 -31.6399 -31.6397 -31.6391 -31.6390
   -31.5756 -31.5754 -31.5751 -31.5749 -31.5748 -31.5747 -31.5744 -31.5742
    -8.1355  -8.1354  -8.1237  -8.1236   3.2081   3.2082   3.2270   3.2271
     7.0452   7.0453   7.0648   7.0650   7.0658   7.0660   7.0858   7.0859

     highest occupied level (ev):     7.6907

!    total energy              =    -608.39281041 Ry
     Harris-Foulkes estimate   =    -608.39281041 Ry
     estimated scf accuracy    <          4.2E-11 Ry

     The total energy is the sum of the following terms:

     one-electron contribution =    -303.55612329 Ry
     hartree contribution      =     168.06752755 Ry
     xc contribution           =     -97.84642609 Ry
     ewald contribution        =    -375.05778859 Ry

     convergence has been achieved in   4 iterations

     Forces acting on atoms (cartesian axes, Ry/au):

     atom    1 type  1   force =    -0.00000883   -0.00000337    0.00000000
     atom    2 type  1   force =     0.00000229    0.00000467    0.00000000
     atom    3 type  1   force =     0.00004453   -0.00000438    0.00000000
     atom    4 type  1   force =    -0.00005879    0.00000357    0.00000000
     atom    5 type  2   force =    -0.00003404   -0.00000112    0.00000000
     atom    6 type  2   force =     0.00004265    0.00000064    0.00000000
     atom    7 type  2   force =    -0.00003032   -0.00000056    0.00000000
     atom    8 type  2   force =     0.00004250    0.00000055    0.00000000

     Total force =     0.000106     Total SCF correction =     0.000007


     Computing stress (Cartesian axis) and pressure

          total   stress  (Ry/bohr**3)                   (kbar)     P=  -68.01
  -0.00046269   0.00004868   0.00000000        -68.06      7.16      0.00
   0.00004868  -0.00046220   0.00000000          7.16    -67.99      0.00
   0.00000000   0.00000000  -0.00046211          0.00      0.00    -67.98


     bfgs converged in   8 scf cycles and   7 bfgs steps
     (criteria: energy <  1.0E-05 Ry, force <  1.0E-04 Ry/Bohr)

     End of BFGS Geometry Optimization

     Final energy   =    -608.3928104142 Ry
Begin final coordinates

ATOMIC_POSITIONS (alat)
Mg       0.001140129   0.000004861   0.000000000
Mg      -0.001242157   0.499994506   0.500000000
Mg       0.501257012   0.000004926   0.500000000
Mg       0.498830563   0.499995739   0.000000000
O        0.501281936   0.000003573   0.000000000
O       -0.001275919   0.499996976   0.000000000
O        0.001250471   0.000003038   0.500000000
O        0.498757965   0.499996381   0.500000000
End final coordinates



     Writing output data file diamond..70.4.save
 
     init_run     :      0.44s CPU      0.46s WALL (       1 calls)
     electrons    :     48.35s CPU     50.08s WALL (       8 calls)
     update_pot   :      0.58s CPU      0.59s WALL (       7 calls)
     forces       :      0.92s CPU      0.92s WALL (       8 calls)
     stress       :      2.24s CPU      2.27s WALL (       8 calls)

     Called by init_run:
     wfcinit      :      0.35s CPU      0.36s WALL (       1 calls)
     potinit      :      0.04s CPU      0.04s WALL (       1 calls)

     Called by electrons:
     c_bands      :     42.57s CPU     44.14s WALL (      46 calls)
     sum_band     :      5.55s CPU      5.68s WALL (      46 calls)
     v_of_rho     :      0.19s CPU      0.19s WALL (      47 calls)
     mix_rho      :      0.02s CPU      0.03s WALL (      46 calls)

     Called by c_bands:
     init_us_2    :      0.58s CPU      0.64s WALL (    3270 calls)
     cegterg      :     40.05s CPU     41.45s WALL (    1380 calls)

     Called by sum_band:

     Called by *egterg:
     h_psi        :     30.04s CPU     30.78s WALL (    4753 calls)
     g_psi        :      0.10s CPU      0.12s WALL (    3343 calls)
     cdiaghg      :      5.94s CPU      5.96s WALL (    4303 calls)

     Called by h_psi:
     h_psi:pot    :     29.88s CPU     30.56s WALL (    4753 calls)
     h_psi:calbec :      1.24s CPU      1.24s WALL (    4753 calls)
     vloc_psi     :     27.62s CPU     28.28s WALL (    4753 calls)
     add_vuspsi   :      1.00s CPU      1.02s WALL (    4753 calls)

     General routines
     calbec       :      1.65s CPU      1.64s WALL (    5953 calls)
     fft          :      0.14s CPU      0.15s WALL (     730 calls)
     fftw         :     31.38s CPU     31.29s WALL (  280222 calls)
     davcio       :      0.00s CPU      0.00s WALL (      30 calls)
 
     Parallel routines
     fft_scatter  :      5.89s CPU      6.24s WALL (  280952 calls)
 
     PWSCF        :    52.96s CPU        54.94s WALL

 
   This run was terminated on:  19: 1:31  22Apr2018            

=------------------------------------------------------------------------------=
   JOB DONE.
=------------------------------------------------------------------------------=
