
     Program PWSCF v.6.1 (svn rev. 13369) starts on 22Apr2018 at 18:43:54 

     This program is part of the open-source Quantum ESPRESSO suite
     for quantum simulation of materials; please cite
         "P. Giannozzi et al., J. Phys.:Condens. Matter 21 395502 (2009);
          URL http://www.quantum-espresso.org", 
     in publications or presentations arising from this work. More details at
     http://www.quantum-espresso.org/quote

     Parallel version (MPI), running on     8 processors
     R & G space division:  proc/nbgrp/npool/nimage =       8
     Waiting for input...
     Reading input from standard input
Warning: card       &CELL ignored
Warning: card          CELL_DYNAMICS = 'BFGS' ignored
Warning: card          PRESS = 0.0D0 ignored
Warning: card          PRESS_CONV_THR = 0.01D0 ignored
Warning: card       / ignored

     Current dimensions of program PWSCF are:
     Max number of different atomic species (ntypx) = 10
     Max number of k-points (npk) =  40000
     Max angular momentum in pseudopotentials (lmaxx) =  3

     Subspace diagonalization in iterative solution of the eigenvalue problem:
     a serial algorithm will be used

 
     Parallelization info
     --------------------
     sticks:   dense  smooth     PW     G-vecs:    dense   smooth      PW
     Min         181     181     52                 5151     5151     814
     Max         182     182     53                 5153     5153     817
     Sum        1449    1449    421                41219    41219    6527
 


     bravais-lattice index     =           12
     lattice parameter (alat)  =       8.0448  a.u.
     unit-cell volume          =     520.6289 (a.u.)^3
     number of atoms/cell      =            8
     number of atomic types    =            2
     number of electrons       =        64.00
     number of Kohn-Sham states=           32
     kinetic-energy cutoff     =      70.0000  Ry
     charge density cutoff     =     280.0000  Ry
     convergence threshold     =      1.0E-08
     mixing beta               =       0.7000
     number of iterations used =            8  plain     mixing
     Exchange-correlation      = PBE ( 1  4  3  4 0 0)
     nstep                     =           50


     celldm(1)=   8.044750  celldm(2)=   1.000000  celldm(3)=   1.000022
     celldm(4)=   0.009286  celldm(5)=   0.000000  celldm(6)=   0.000000

     crystal axes: (cart. coord. in units of alat)
               a(1) = (   1.000000   0.000000   0.000000 )  
               a(2) = (   0.009286   0.999957   0.000000 )  
               a(3) = (   0.000000   0.000000   1.000022 )  

     reciprocal axes: (cart. coord. in units 2 pi/alat)
               b(1) = (  1.000000 -0.009286  0.000000 )  
               b(2) = (  0.000000  1.000043  0.000000 )  
               b(3) = (  0.000000  0.000000  0.999978 )  


     PseudoPot. # 1 for Mg read from file:
     ../pseudo/Mg.pbe.UPF
     MD5 check sum: 4c04d8c6e0476e83eaecaf72fa8acc4d
     Pseudo is Norm-conserving, Zval = 10.0
     Generated using ONCVPSP code by D. R. Hamann
     Using radial grid of 1510 points,  4 beta functions with: 
                l(1) =   0
                l(2) =   0
                l(3) =   1
                l(4) =   1

     PseudoPot. # 2 for O  read from file:
     ../pseudo/O.pbe.UPF
     MD5 check sum: 3e3f909f7470e8921608ab6b1f57bbae
     Pseudo is Norm-conserving + core correction, Zval =  6.0
     Generated using ONCVPSP code by D. R. Hamann
     Using radial grid of  936 points,  5 beta functions with: 
                l(1) =   0
                l(2) =   0
                l(3) =   1
                l(4) =   1
                l(5) =   2

     atomic species   valence    mass     pseudopotential
        Mg            10.00    24.30500     Mg( 1.00)
        O              6.00    15.99940     O ( 1.00)

     No symmetry found



   Cartesian axes

     site n.     atom                  positions (alat units)
         1           Mg  tau(   1) = (   0.0000000   0.0000000   0.0000000  )
         2           Mg  tau(   2) = (   0.0000000   0.5000000   0.5000000  )
         3           Mg  tau(   3) = (   0.5000000   0.0000000   0.5000000  )
         4           Mg  tau(   4) = (   0.5000000   0.5000000   0.0000000  )
         5           O   tau(   5) = (   0.5000000   0.0000000   0.0000000  )
         6           O   tau(   6) = (   0.0000000   0.5000000   0.0000000  )
         7           O   tau(   7) = (   0.0000000   0.0000000   0.5000000  )
         8           O   tau(   8) = (   0.5000000   0.5000000   0.5000000  )

     number of k points=    36
                       cart. coord. in units 2pi/alat
        k(    1) = (   0.0000000   0.0000000   0.0000000), wk =   0.0312500
        k(    2) = (   0.0000000   0.0000000   0.2499946), wk =   0.0625000
        k(    3) = (   0.0000000   0.0000000  -0.4999892), wk =   0.0312500
        k(    4) = (   0.0000000   0.2500108   0.0000000), wk =   0.0625000
        k(    5) = (   0.0000000   0.2500108   0.2499946), wk =   0.0625000
        k(    6) = (   0.0000000   0.2500108  -0.4999892), wk =   0.0625000
        k(    7) = (   0.0000000  -0.5000216   0.0000000), wk =   0.0312500
        k(    8) = (   0.0000000  -0.5000216   0.2499946), wk =   0.0625000
        k(    9) = (   0.0000000  -0.5000216  -0.4999892), wk =   0.0312500
        k(   10) = (   0.2500000  -0.0023216   0.0000000), wk =   0.0625000
        k(   11) = (   0.2500000  -0.0023216   0.2499946), wk =   0.0625000
        k(   12) = (   0.2500000  -0.0023216  -0.4999892), wk =   0.0625000
        k(   13) = (   0.2500000   0.2476892   0.0000000), wk =   0.0625000
        k(   14) = (   0.2500000   0.2476892   0.2499946), wk =   0.0625000
        k(   15) = (   0.2500000   0.2476892  -0.4999892), wk =   0.0625000
        k(   16) = (   0.2500000  -0.5023432   0.0000000), wk =   0.0625000
        k(   17) = (   0.2500000  -0.5023432   0.2499946), wk =   0.0625000
        k(   18) = (   0.2500000  -0.5023432  -0.4999892), wk =   0.0625000
        k(   19) = (   0.2500000  -0.2523324   0.0000000), wk =   0.0625000
        k(   20) = (   0.2500000  -0.2523324   0.2499946), wk =   0.0625000
        k(   21) = (   0.2500000  -0.2523324  -0.4999892), wk =   0.0625000
        k(   22) = (  -0.5000000   0.0046432   0.0000000), wk =   0.0312500
        k(   23) = (  -0.5000000   0.0046432   0.2499946), wk =   0.0625000
        k(   24) = (  -0.5000000   0.0046432  -0.4999892), wk =   0.0312500
        k(   25) = (  -0.5000000   0.2546540   0.0000000), wk =   0.0625000
        k(   26) = (  -0.5000000   0.2546540   0.2499946), wk =   0.0625000
        k(   27) = (  -0.5000000   0.2546540  -0.4999892), wk =   0.0625000
        k(   28) = (  -0.5000000  -0.4953784   0.0000000), wk =   0.0312500
        k(   29) = (  -0.5000000  -0.4953784   0.2499946), wk =   0.0625000
        k(   30) = (  -0.5000000  -0.4953784  -0.4999892), wk =   0.0312500
        k(   31) = (   0.0000000  -0.2500108   0.2499946), wk =   0.0625000
        k(   32) = (  -0.2500000   0.0023216   0.2499946), wk =   0.0625000
        k(   33) = (  -0.2500000  -0.2476892   0.2499946), wk =   0.0625000
        k(   34) = (  -0.2500000   0.5023432   0.2499946), wk =   0.0625000
        k(   35) = (  -0.2500000   0.2523324   0.2499946), wk =   0.0625000
        k(   36) = (   0.5000000  -0.2546540   0.2499946), wk =   0.0625000

     Dense  grid:    41219 G-vectors     FFT dimensions: (  45,  45,  45)

     Estimated max dynamical RAM per process >      17.21MB

     Estimated total allocated dynamical RAM >     137.72MB

     Check: negative/imaginary core charge=   -0.000007    0.000000

     Initial potential from superposition of free atoms

     starting charge   63.99678, renormalised to   64.00000
     Starting wfc are   36 randomized atomic wfcs

     total cpu time spent up to now is        0.6 secs

     per-process dynamical memory:    52.2 Mb

     Self-consistent Calculation

     iteration #  1     ecut=    70.00 Ry     beta=0.70
     Davidson diagonalization with overlap
     ethr =  1.00E-02,  avg # of iterations =  2.0

     total cpu time spent up to now is        1.8 secs

     total energy              =    -607.71832946 Ry
     Harris-Foulkes estimate   =    -608.84328711 Ry
     estimated scf accuracy    <       1.56299294 Ry

     iteration #  2     ecut=    70.00 Ry     beta=0.70
     Davidson diagonalization with overlap
     ethr =  2.44E-03,  avg # of iterations =  2.9

     total cpu time spent up to now is        3.1 secs

     total energy              =    -608.10496590 Ry
     Harris-Foulkes estimate   =    -608.80411142 Ry
     estimated scf accuracy    <       1.45185979 Ry

     iteration #  3     ecut=    70.00 Ry     beta=0.70
     Davidson diagonalization with overlap
     ethr =  2.27E-03,  avg # of iterations =  2.0

     total cpu time spent up to now is        4.3 secs

     total energy              =    -608.39096287 Ry
     Harris-Foulkes estimate   =    -608.39161378 Ry
     estimated scf accuracy    <       0.00674733 Ry

     iteration #  4     ecut=    70.00 Ry     beta=0.70
     Davidson diagonalization with overlap
     ethr =  1.05E-05,  avg # of iterations =  2.0

     total cpu time spent up to now is        5.4 secs

     total energy              =    -608.39243780 Ry
     Harris-Foulkes estimate   =    -608.39248321 Ry
     estimated scf accuracy    <       0.00011273 Ry

     iteration #  5     ecut=    70.00 Ry     beta=0.70
     Davidson diagonalization with overlap
     ethr =  1.76E-07,  avg # of iterations =  1.4

     total cpu time spent up to now is        6.4 secs

     total energy              =    -608.39244507 Ry
     Harris-Foulkes estimate   =    -608.39244367 Ry
     estimated scf accuracy    <       0.00001048 Ry

     iteration #  6     ecut=    70.00 Ry     beta=0.70
     Davidson diagonalization with overlap
     ethr =  1.64E-08,  avg # of iterations =  2.0

     total cpu time spent up to now is        7.8 secs

     total energy              =    -608.39244675 Ry
     Harris-Foulkes estimate   =    -608.39244717 Ry
     estimated scf accuracy    <       0.00000105 Ry

     iteration #  7     ecut=    70.00 Ry     beta=0.70
     Davidson diagonalization with overlap
     ethr =  1.63E-09,  avg # of iterations =  2.0

     total cpu time spent up to now is        8.9 secs

     total energy              =    -608.39244675 Ry
     Harris-Foulkes estimate   =    -608.39244683 Ry
     estimated scf accuracy    <       0.00000022 Ry

     iteration #  8     ecut=    70.00 Ry     beta=0.70
     Davidson diagonalization with overlap
     ethr =  3.44E-10,  avg # of iterations =  2.0

     total cpu time spent up to now is       10.0 secs

     total energy              =    -608.39244675 Ry
     Harris-Foulkes estimate   =    -608.39244677 Ry
     estimated scf accuracy    <       0.00000004 Ry

     iteration #  9     ecut=    70.00 Ry     beta=0.70
     Davidson diagonalization with overlap
     ethr =  5.91E-11,  avg # of iterations =  2.0

     total cpu time spent up to now is       11.4 secs

     End of self-consistent calculation

          k = 0.0000 0.0000 0.0000 (  5149 PWs)   bands (ev):

   -64.8346 -64.8251 -64.8251 -64.8243 -31.6310 -31.6310 -31.6309 -31.5948
   -31.5935 -31.5934 -31.5928 -31.5927 -31.5913 -31.5668 -31.5652 -31.5637
    -9.3642  -7.9134  -7.9127  -7.9126   3.7585   3.7592   3.7594   6.3269
     6.3803   6.3805   6.3808   6.3812   6.4351   7.6394   7.6723   7.7070

          k = 0.0000 0.0000 0.2500 (  5153 PWs)   bands (ev):

   -64.8332 -64.8263 -64.8251 -64.8245 -31.6253 -31.6252 -31.6204 -31.5977
   -31.5976 -31.5941 -31.5940 -31.5908 -31.5866 -31.5782 -31.5733 -31.5689
    -9.1557  -8.1282  -7.8842  -7.8842   4.0467   4.0492   4.0985   5.8584
     5.8585   6.1711   6.1716   6.4922   6.5961   6.6592   7.4137   7.4895

          k = 0.0000 0.0000-0.5000 (  5130 PWs)   bands (ev):

   -64.8300 -64.8295 -64.8251 -64.8245 -31.6144 -31.6141 -31.6071 -31.6068
   -31.6019 -31.6017 -31.5912 -31.5910 -31.5828 -31.5825 -31.5782 -31.5779
    -8.6456  -8.6454  -7.8554  -7.8554   4.8410   4.8411   4.8536   4.8537
     5.1240   5.1242   5.9741   5.9744   6.9238   6.9240   7.0151   7.0153

          k = 0.0000 0.2500 0.0000 (  5167 PWs)   bands (ev):

   -64.8332 -64.8263 -64.8251 -64.8245 -31.6251 -31.6247 -31.6215 -31.5996
   -31.5983 -31.5934 -31.5928 -31.5891 -31.5887 -31.5797 -31.5716 -31.5706
    -9.1557  -8.1277  -7.8849  -7.8842   4.0488   4.0491   4.0959   5.8498
     5.8587   6.1711   6.1808   6.5433   6.5437   6.6591   7.4505   7.4519

          k = 0.0000 0.2500 0.2500 (  5153 PWs)   bands (ev):

   -64.8319 -64.8263 -64.8260 -64.8249 -31.6213 -31.6211 -31.6200 -31.6070
   -31.5945 -31.5940 -31.5928 -31.5874 -31.5865 -31.5861 -31.5754 -31.5685
    -8.9655  -8.0634  -8.0629  -7.8893   4.1615   4.1624   4.3295   5.0717
     5.8474   6.0529   6.0560   6.4858   6.4897   6.5846   7.1736   7.5072

          k = 0.0000 0.2500-0.5000 (  5148 PWs)   bands (ev):

   -64.8293 -64.8288 -64.8258 -64.8252 -31.6182 -31.6180 -31.6101 -31.6101
   -31.6064 -31.6062 -31.5853 -31.5850 -31.5837 -31.5837 -31.5751 -31.5748
    -8.5091  -8.5090  -7.9460  -7.9459   4.4191   4.4192   4.7513   4.7515
     5.0968   5.0970   6.5481   6.5483   6.5756   6.5758   7.0969   7.0970

          k = 0.0000-0.5000 0.0000 (  5128 PWs)   bands (ev):

   -64.8299 -64.8295 -64.8251 -64.8245 -31.6113 -31.6103 -31.6100 -31.6097
   -31.6025 -31.6018 -31.5920 -31.5916 -31.5805 -31.5802 -31.5799 -31.5796
    -8.6455  -8.6450  -7.8562  -7.8554   4.8456   4.8481   4.8484   4.8485
     5.1235   5.1241   5.9737   5.9773   6.9686   6.9690   6.9694   6.9696

          k = 0.0000-0.5000 0.2500 (  5154 PWs)   bands (ev):

   -64.8292 -64.8288 -64.8258 -64.8252 -31.6178 -31.6173 -31.6107 -31.6103
   -31.6069 -31.6066 -31.5854 -31.5851 -31.5838 -31.5835 -31.5753 -31.5750
    -8.5091  -8.5086  -7.9466  -7.9459   4.4184   4.4188   4.7517   4.7523
     5.0970   5.0973   6.5484   6.5502   6.5762   6.5764   7.0945   7.0954

          k = 0.0000-0.5000-0.5000 (  5180 PWs)   bands (ev):

   -64.8276 -64.8275 -64.8274 -64.8265 -31.6194 -31.6192 -31.6190 -31.6189
   -31.5968 -31.5966 -31.5966 -31.5963 -31.5760 -31.5758 -31.5757 -31.5756
    -8.2050  -8.2049  -8.2044  -8.2043   4.2936   4.2938   4.2940   4.2941
     5.7683   5.7684   5.7686   5.7688   7.0638   7.0640   7.0649   7.0651

          k = 0.2500-0.0023 0.0000 (  5167 PWs)   bands (ev):

   -64.8332 -64.8263 -64.8251 -64.8245 -31.6251 -31.6247 -31.6215 -31.5996
   -31.5983 -31.5933 -31.5930 -31.5891 -31.5887 -31.5797 -31.5716 -31.5706
    -9.1557  -8.1278  -7.8846  -7.8843   4.0488   4.0491   4.0959   5.8524
     5.8589   6.1710   6.1771   6.5434   6.5440   6.6584   7.4505   7.4525

          k = 0.2500-0.0023 0.2500 (  5153 PWs)   bands (ev):

   -64.8319 -64.8263 -64.8259 -64.8249 -31.6214 -31.6210 -31.6201 -31.6070
   -31.5949 -31.5936 -31.5929 -31.5873 -31.5865 -31.5860 -31.5754 -31.5685
    -8.9655  -8.0705  -8.0558  -7.8893   4.1494   4.1745   4.3294   5.0716
     5.8474   6.0366   6.0731   6.4788   6.4957   6.5842   7.1742   7.5068

          k = 0.2500-0.0023-0.5000 (  5148 PWs)   bands (ev):

   -64.8293 -64.8288 -64.8258 -64.8252 -31.6181 -31.6180 -31.6101 -31.6101
   -31.6065 -31.6062 -31.5853 -31.5849 -31.5837 -31.5837 -31.5750 -31.5749
    -8.5092  -8.5091  -7.9459  -7.9458   4.4180   4.4182   4.7522   4.7524
     5.0967   5.0968   6.5484   6.5486   6.5760   6.5761   7.0964   7.0966

          k = 0.2500 0.2477 0.0000 (  5151 PWs)   bands (ev):

   -64.8320 -64.8263 -64.8258 -64.8249 -31.6235 -31.6233 -31.6197 -31.6048
   -31.5942 -31.5940 -31.5898 -31.5887 -31.5847 -31.5844 -31.5756 -31.5713
    -8.9702  -8.0573  -8.0571  -7.8952   4.1599   4.1600   4.3241   5.0427
     5.8317   6.0637   6.0640   6.4755   6.4761   6.6337   7.1645   7.5397

          k = 0.2500 0.2477 0.2500 (  5146 PWs)   bands (ev):

   -64.8310 -64.8263 -64.8262 -64.8255 -31.6279 -31.6276 -31.6243 -31.6045
   -31.5920 -31.5915 -31.5909 -31.5858 -31.5838 -31.5837 -31.5738 -31.5703
    -8.8004  -8.0375  -8.0241  -8.0221   3.9804   4.0054   4.0082   5.0697
     5.8182   5.8407   5.8549   6.7014   6.7016   6.7533   7.3514   7.3923

          k = 0.2500 0.2477-0.5000 (  5128 PWs)   bands (ev):

   -64.8288 -64.8284 -64.8262 -64.8256 -31.6306 -31.6304 -31.6199 -31.6198
   -31.5897 -31.5894 -31.5817 -31.5817 -31.5799 -31.5796 -31.5763 -31.5762
    -8.4036  -8.4035  -7.9905  -7.9905   3.8310   3.8311   4.1771   4.1773
     5.8184   5.8185   6.7362   6.7364   6.8641   6.8643   7.0588   7.0589

          k = 0.2500-0.5023 0.0000 (  5153 PWs)   bands (ev):

   -64.8292 -64.8288 -64.8258 -64.8252 -31.6209 -31.6144 -31.6135 -31.6071
   -31.6070 -31.6067 -31.5861 -31.5851 -31.5848 -31.5814 -31.5774 -31.5732
    -8.5163  -8.5014  -7.9544  -7.9380   4.4083   4.4288   4.7475   4.7561
     5.0884   5.1052   6.5171   6.5647   6.5820   6.5882   7.0708   7.1196

          k = 0.2500-0.5023 0.2500 (  5137 PWs)   bands (ev):

   -64.8287 -64.8283 -64.8263 -64.8257 -31.6303 -31.6262 -31.6238 -31.6185
   -31.5934 -31.5929 -31.5820 -31.5800 -31.5792 -31.5785 -31.5768 -31.5751
    -8.4058  -8.3910  -8.0044  -7.9885   3.8057   3.8381   4.1864   4.2107
     5.8229   5.8379   6.7185   6.7654   6.8523   6.8844   7.0109   7.0256

          k = 0.2500-0.5023-0.5000 (  5144 PWs)   bands (ev):

   -64.8276 -64.8275 -64.8274 -64.8265 -31.6340 -31.6338 -31.6297 -31.6296
   -31.5846 -31.5844 -31.5821 -31.5820 -31.5755 -31.5753 -31.5747 -31.5746
    -8.1747  -8.1746  -8.1596  -8.1595   3.6236   3.6237   3.6581   3.6582
     6.5001   6.5003   6.5495   6.5497   7.0581   7.0583   7.0729   7.0731

          k = 0.2500-0.2523 0.0000 (  5159 PWs)   bands (ev):

   -64.8319 -64.8264 -64.8259 -64.8248 -31.6196 -31.6189 -31.6188 -31.6106
   -31.5949 -31.5944 -31.5943 -31.5883 -31.5881 -31.5856 -31.5757 -31.5668
    -8.9607  -8.0689  -8.0688  -7.8840   4.1644   4.1645   4.3341   5.1002
     5.8641   6.0485   6.0488   6.4953   6.4958   6.5366   7.1825   7.4733

          k = 0.2500-0.2523 0.2500 (  5156 PWs)   bands (ev):

   -64.8309 -64.8264 -64.8262 -64.8255 -31.6262 -31.6232 -31.6230 -31.6074
   -31.5966 -31.5961 -31.5949 -31.5836 -31.5835 -31.5818 -31.5722 -31.5694
    -8.7909  -8.0379  -8.0356  -8.0226   3.9935   3.9965   4.0214   5.1101
     5.8379   5.8522   5.8749   6.6601   6.7109   6.7111   7.3206   7.3604

          k = 0.2500-0.2523-0.5000 (  5152 PWs)   bands (ev):

   -64.8287 -64.8282 -64.8264 -64.8257 -31.6260 -31.6259 -31.6228 -31.6227
   -31.5967 -31.5964 -31.5797 -31.5797 -31.5791 -31.5791 -31.5761 -31.5757
    -8.3937  -8.3936  -8.0019  -8.0019   3.8121   3.8122   4.2204   4.2206
     5.8433   5.8434   6.7453   6.7455   6.8750   6.8751   6.9755   6.9756

          k =-0.5000 0.0046 0.0000 (  5128 PWs)   bands (ev):

   -64.8299 -64.8295 -64.8251 -64.8245 -31.6109 -31.6108 -31.6099 -31.6098
   -31.6020 -31.6020 -31.5919 -31.5918 -31.5804 -31.5803 -31.5798 -31.5797
    -8.6453  -8.6452  -7.8557  -7.8556   4.8478   4.8479   4.8483   4.8483
     5.1235   5.1237   5.9738   5.9740   6.9690   6.9690   6.9696   6.9697

          k =-0.5000 0.0046 0.2500 (  5154 PWs)   bands (ev):

   -64.8292 -64.8288 -64.8258 -64.8252 -31.6176 -31.6175 -31.6104 -31.6104
   -31.6069 -31.6068 -31.5853 -31.5852 -31.5837 -31.5837 -31.5751 -31.5750
    -8.5090  -8.5090  -7.9461  -7.9460   4.4179   4.4179   4.7522   4.7524
     5.0973   5.0973   6.5483   6.5485   6.5771   6.5771   7.0948   7.0948

          k =-0.5000 0.0046-0.5000 (  5180 PWs)   bands (ev):

   -64.8277 -64.8275 -64.8274 -64.8265 -31.6194 -31.6193 -31.6189 -31.6189
   -31.5977 -31.5973 -31.5959 -31.5955 -31.5762 -31.5762 -31.5753 -31.5753
    -8.2145  -8.2145  -8.1947  -8.1947   4.2752   4.2754   4.3119   4.3121
     5.7452   5.7452   5.7928   5.7928   7.0539   7.0541   7.0742   7.0744

          k =-0.5000 0.2547 0.0000 (  5153 PWs)   bands (ev):

   -64.8292 -64.8288 -64.8258 -64.8252 -31.6209 -31.6144 -31.6135 -31.6070
   -31.6070 -31.6067 -31.5861 -31.5851 -31.5849 -31.5814 -31.5774 -31.5732
    -8.5163  -8.5015  -7.9543  -7.9380   4.4085   4.4289   4.7475   4.7560
     5.0884   5.1052   6.5165   6.5647   6.5814   6.5881   7.0711   7.1199

          k =-0.5000 0.2547 0.2500 (  5137 PWs)   bands (ev):

   -64.8287 -64.8283 -64.8263 -64.8257 -31.6303 -31.6263 -31.6238 -31.6185
   -31.5934 -31.5929 -31.5820 -31.5800 -31.5792 -31.5786 -31.5767 -31.5751
    -8.4059  -8.3911  -8.0043  -7.9884   3.8054   3.8378   4.1866   4.2109
     5.8231   5.8380   6.7178   6.7647   6.8527   6.8848   7.0109   7.0257

          k =-0.5000 0.2547-0.5000 (  5144 PWs)   bands (ev):

   -64.8277 -64.8275 -64.8274 -64.8265 -31.6340 -31.6338 -31.6297 -31.6296
   -31.5848 -31.5845 -31.5821 -31.5818 -31.5756 -31.5755 -31.5746 -31.5745
    -8.1775  -8.1775  -8.1567  -8.1567   3.6189   3.6191   3.6626   3.6627
     6.4950   6.4951   6.5554   6.5555   7.0549   7.0551   7.0755   7.0757

          k =-0.5000-0.4954 0.0000 (  5188 PWs)   bands (ev):

   -64.8277 -64.8275 -64.8274 -64.8265 -31.6230 -31.6226 -31.6160 -31.6157
   -31.5970 -31.5970 -31.5969 -31.5966 -31.5776 -31.5773 -31.5742 -31.5739
    -8.2157  -8.2157  -8.1935  -8.1935   4.2871   4.2872   4.2999   4.3000
     5.7543   5.7545   5.7816   5.7819   7.0274   7.0275   7.1026   7.1026

          k =-0.5000-0.4954 0.2500 (  5140 PWs)   bands (ev):

   -64.8277 -64.8275 -64.8274 -64.8265 -31.6340 -31.6338 -31.6296 -31.6294
   -31.5839 -31.5839 -31.5819 -31.5819 -31.5777 -31.5774 -31.5731 -31.5728
    -8.1781  -8.1781  -8.1561  -8.1561   3.6267   3.6268   3.6547   3.6548
     6.5208   6.5210   6.5287   6.5290   7.0285   7.0286   7.1032   7.1033

          k =-0.5000-0.4954-0.5000 (  5136 PWs)   bands (ev):

   -64.8277 -64.8275 -64.8274 -64.8265 -31.6407 -31.6405 -31.6389 -31.6387
   -31.5770 -31.5766 -31.5757 -31.5757 -31.5743 -31.5743 -31.5734 -31.5731
    -8.1399  -8.1399  -8.1181  -8.1181   3.2006   3.2008   3.2353   3.2354
     7.0292   7.0293   7.0644   7.0646   7.0668   7.0670   7.1041   7.1042

          k = 0.0000-0.2500 0.2500 (  5153 PWs)   bands (ev):

   -64.8319 -64.8263 -64.8260 -64.8249 -31.6213 -31.6211 -31.6200 -31.6070
   -31.5945 -31.5940 -31.5928 -31.5874 -31.5865 -31.5861 -31.5754 -31.5685
    -8.9655  -8.0634  -8.0629  -7.8893   4.1615   4.1624   4.3295   5.0717
     5.8474   6.0529   6.0560   6.4858   6.4897   6.5846   7.1736   7.5072

          k =-0.2500 0.0023 0.2500 (  5153 PWs)   bands (ev):

   -64.8319 -64.8263 -64.8259 -64.8249 -31.6214 -31.6210 -31.6201 -31.6070
   -31.5949 -31.5936 -31.5929 -31.5873 -31.5865 -31.5860 -31.5754 -31.5685
    -8.9655  -8.0705  -8.0558  -7.8893   4.1494   4.1745   4.3294   5.0716
     5.8474   6.0366   6.0731   6.4788   6.4957   6.5842   7.1742   7.5068

          k =-0.2500-0.2477 0.2500 (  5146 PWs)   bands (ev):

   -64.8310 -64.8263 -64.8262 -64.8255 -31.6279 -31.6276 -31.6243 -31.6045
   -31.5920 -31.5915 -31.5909 -31.5858 -31.5838 -31.5837 -31.5738 -31.5703
    -8.8004  -8.0375  -8.0241  -8.0221   3.9804   4.0054   4.0082   5.0697
     5.8182   5.8407   5.8549   6.7014   6.7016   6.7533   7.3514   7.3923

          k =-0.2500 0.5023 0.2500 (  5137 PWs)   bands (ev):

   -64.8287 -64.8283 -64.8263 -64.8257 -31.6303 -31.6262 -31.6238 -31.6185
   -31.5934 -31.5929 -31.5820 -31.5800 -31.5792 -31.5785 -31.5768 -31.5751
    -8.4058  -8.3910  -8.0044  -7.9885   3.8057   3.8381   4.1864   4.2107
     5.8229   5.8379   6.7185   6.7654   6.8523   6.8844   7.0109   7.0256

          k =-0.2500 0.2523 0.2500 (  5156 PWs)   bands (ev):

   -64.8309 -64.8264 -64.8262 -64.8255 -31.6262 -31.6232 -31.6230 -31.6074
   -31.5966 -31.5961 -31.5949 -31.5836 -31.5835 -31.5818 -31.5722 -31.5694
    -8.7909  -8.0378  -8.0356  -8.0226   3.9935   3.9965   4.0214   5.1101
     5.8379   5.8522   5.8749   6.6601   6.7109   6.7111   7.3206   7.3604

          k = 0.5000-0.2547 0.2500 (  5137 PWs)   bands (ev):

   -64.8287 -64.8283 -64.8263 -64.8257 -31.6303 -31.6263 -31.6238 -31.6185
   -31.5934 -31.5929 -31.5820 -31.5800 -31.5792 -31.5786 -31.5767 -31.5751
    -8.4059  -8.3911  -8.0043  -7.9884   3.8054   3.8378   4.1866   4.2109
     5.8231   5.8380   6.7178   6.7647   6.8527   6.8848   7.0109   7.0257

     highest occupied level (ev):     7.7070

!    total energy              =    -608.39244676 Ry
     Harris-Foulkes estimate   =    -608.39244676 Ry
     estimated scf accuracy    <          1.3E-09 Ry

     The total energy is the sum of the following terms:

     one-electron contribution =    -303.54770809 Ry
     hartree contribution      =     168.06357236 Ry
     xc contribution           =     -97.84628912 Ry
     ewald contribution        =    -375.06202190 Ry

     convergence has been achieved in   9 iterations

     Forces acting on atoms (cartesian axes, Ry/au):

     atom    1 type  1   force =    -0.00219436    0.00010664   -0.00001194
     atom    2 type  1   force =     0.00233541   -0.00011145    0.00001174
     atom    3 type  1   force =    -0.00219311    0.00010683    0.00001118
     atom    4 type  1   force =     0.00198190   -0.00010007   -0.00001195
     atom    5 type  2   force =    -0.00273198    0.00005331   -0.00001316
     atom    6 type  2   force =     0.00286065   -0.00005572   -0.00001324
     atom    7 type  2   force =    -0.00273155    0.00005316    0.00001367
     atom    8 type  2   force =     0.00267306   -0.00005269    0.00001371

     Total force =     0.007023     Total SCF correction =     0.000010


     Computing stress (Cartesian axis) and pressure

          total   stress  (Ry/bohr**3)                   (kbar)     P=  -68.11
  -0.00046397  -0.00008927  -0.00000000        -68.25    -13.13     -0.00
  -0.00008927  -0.00046136  -0.00000000        -13.13    -67.87     -0.00
  -0.00000000  -0.00000000  -0.00046363         -0.00     -0.00    -68.20


     BFGS Geometry Optimization

     number of scf cycles    =   1
     number of bfgs steps    =   0

     energy   new            =    -608.3924467582 Ry

     new trust radius        =       0.0028612186 bohr
     new conv_thr            =       0.0000000100 Ry


ATOMIC_POSITIONS (alat)
Mg      -0.000272769   0.000013256  -0.000001484
Mg       0.000290302   0.499986147   0.500001460
Mg       0.499727386   0.000013280   0.500001389
Mg       0.500246359   0.499987560  -0.000001486
O        0.499660402   0.000006627  -0.000001636
O        0.000355592   0.499993073  -0.000001646
O       -0.000339545   0.000006608   0.500001700
O        0.500332274   0.499993450   0.500001704



     Writing output data file diamond..70.4.save
     NEW-OLD atomic charge density approx. for the potential

     Check: negative/imaginary core charge=   -0.000007    0.000000

     total cpu time spent up to now is       12.0 secs

     per-process dynamical memory:    53.0 Mb

     Self-consistent Calculation

     iteration #  1     ecut=    70.00 Ry     beta=0.70
     Davidson diagonalization with overlap
     ethr =  1.00E-06,  avg # of iterations =  3.0

     Threshold (ethr) on eigenvalues was too large:
     Diagonalizing with lowered threshold

     Davidson diagonalization with overlap
     ethr =  4.91E-09,  avg # of iterations =  2.1

     total cpu time spent up to now is       14.8 secs

     total energy              =    -608.39249208 Ry
     Harris-Foulkes estimate   =    -608.39249390 Ry
     estimated scf accuracy    <       0.00000321 Ry

     iteration #  2     ecut=    70.00 Ry     beta=0.70
     Davidson diagonalization with overlap
     ethr =  5.02E-09,  avg # of iterations =  2.0

     total cpu time spent up to now is       16.0 secs

     total energy              =    -608.39249263 Ry
     Harris-Foulkes estimate   =    -608.39249265 Ry
     estimated scf accuracy    <       0.00000008 Ry

     iteration #  3     ecut=    70.00 Ry     beta=0.70
     Davidson diagonalization with overlap
     ethr =  1.26E-10,  avg # of iterations =  2.0

     total cpu time spent up to now is       17.2 secs

     End of self-consistent calculation

          k = 0.0000 0.0000 0.0000 (  5149 PWs)   bands (ev):

   -64.8347 -64.8253 -64.8252 -64.8245 -31.6311 -31.6311 -31.6310 -31.5950
   -31.5936 -31.5935 -31.5929 -31.5928 -31.5914 -31.5669 -31.5653 -31.5638
    -9.3641  -7.9133  -7.9128  -7.9125   3.7586   3.7592   3.7593   6.3269
     6.3804   6.3806   6.3807   6.3813   6.4352   7.6394   7.6724   7.7070

          k = 0.0000 0.0000 0.2500 (  5153 PWs)   bands (ev):

   -64.8333 -64.8265 -64.8253 -64.8246 -31.6254 -31.6253 -31.6205 -31.5978
   -31.5977 -31.5942 -31.5941 -31.5909 -31.5867 -31.5783 -31.5735 -31.5690
    -9.1557  -8.1282  -7.8844  -7.8841   4.0474   4.0493   4.0977   5.8584
     5.8585   6.1711   6.1717   6.4922   6.5961   6.6593   7.4137   7.4894

          k = 0.0000 0.0000-0.5000 (  5130 PWs)   bands (ev):

   -64.8301 -64.8296 -64.8253 -64.8246 -31.6145 -31.6142 -31.6072 -31.6069
   -31.6020 -31.6019 -31.5913 -31.5911 -31.5829 -31.5826 -31.5784 -31.5780
    -8.6456  -8.6453  -7.8556  -7.8553   4.8412   4.8413   4.8537   4.8539
     5.1236   5.1240   5.9740   5.9746   6.9238   6.9240   7.0151   7.0153

          k = 0.0000 0.2500 0.0000 (  5167 PWs)   bands (ev):

   -64.8333 -64.8265 -64.8252 -64.8246 -31.6252 -31.6249 -31.6216 -31.5997
   -31.5985 -31.5935 -31.5929 -31.5892 -31.5888 -31.5798 -31.5717 -31.5707
    -9.1556  -8.1277  -7.8849  -7.8842   4.0488   4.0491   4.0959   5.8506
     5.8588   6.1711   6.1800   6.5434   6.5436   6.6590   7.4505   7.4520

          k = 0.0000 0.2500 0.2500 (  5153 PWs)   bands (ev):

   -64.8321 -64.8264 -64.8261 -64.8250 -31.6214 -31.6212 -31.6201 -31.6071
   -31.5946 -31.5941 -31.5929 -31.5875 -31.5866 -31.5862 -31.5755 -31.5686
    -8.9655  -8.0634  -8.0629  -7.8893   4.1616   4.1623   4.3295   5.0718
     5.8474   6.0530   6.0561   6.4858   6.4896   6.5845   7.1736   7.5071

          k = 0.0000 0.2500-0.5000 (  5148 PWs)   bands (ev):

   -64.8294 -64.8289 -64.8260 -64.8253 -31.6183 -31.6181 -31.6102 -31.6102
   -31.6065 -31.6063 -31.5854 -31.5851 -31.5838 -31.5838 -31.5752 -31.5750
    -8.5092  -8.5089  -7.9461  -7.9458   4.4191   4.4192   4.7513   4.7515
     5.0969   5.0970   6.5482   6.5485   6.5756   6.5757   7.0968   7.0968

          k = 0.0000-0.5000 0.0000 (  5128 PWs)   bands (ev):

   -64.8301 -64.8296 -64.8252 -64.8247 -31.6113 -31.6105 -31.6101 -31.6098
   -31.6025 -31.6019 -31.5921 -31.5918 -31.5806 -31.5804 -31.5800 -31.5797
    -8.6454  -8.6450  -7.8561  -7.8554   4.8460   4.8482   4.8483   4.8486
     5.1234   5.1241   5.9737   5.9767   6.9687   6.9691   6.9693   6.9696

          k = 0.0000-0.5000 0.2500 (  5154 PWs)   bands (ev):

   -64.8294 -64.8289 -64.8259 -64.8254 -31.6179 -31.6175 -31.6107 -31.6104
   -31.6070 -31.6067 -31.5855 -31.5852 -31.5839 -31.5837 -31.5754 -31.5751
    -8.5090  -8.5087  -7.9465  -7.9459   4.4183   4.4188   4.7517   4.7522
     5.0970   5.0975   6.5484   6.5499   6.5763   6.5764   7.0945   7.0953

          k = 0.0000-0.5000-0.5000 (  5180 PWs)   bands (ev):

   -64.8277 -64.8277 -64.8276 -64.8266 -31.6195 -31.6193 -31.6191 -31.6191
   -31.5970 -31.5967 -31.5967 -31.5964 -31.5761 -31.5759 -31.5758 -31.5757
    -8.2050  -8.2047  -8.2045  -8.2042   4.2936   4.2938   4.2940   4.2941
     5.7683   5.7685   5.7688   5.7689   7.0639   7.0640   7.0647   7.0649

          k = 0.2500-0.0023 0.0000 (  5167 PWs)   bands (ev):

   -64.8333 -64.8265 -64.8252 -64.8247 -31.6252 -31.6249 -31.6216 -31.5997
   -31.5985 -31.5934 -31.5931 -31.5892 -31.5888 -31.5798 -31.5717 -31.5707
    -9.1557  -8.1278  -7.8846  -7.8843   4.0488   4.0492   4.0959   5.8524
     5.8589   6.1711   6.1773   6.5435   6.5439   6.6585   7.4505   7.4524

          k = 0.2500-0.0023 0.2500 (  5153 PWs)   bands (ev):

   -64.8321 -64.8265 -64.8261 -64.8250 -31.6215 -31.6211 -31.6202 -31.6071
   -31.5949 -31.5937 -31.5930 -31.5875 -31.5866 -31.5861 -31.5755 -31.5686
    -8.9655  -8.0694  -8.0569  -7.8893   4.1514   4.1726   4.3294   5.0717
     5.8474   6.0393   6.0703   6.4800   6.4946   6.5843   7.1741   7.5069

          k = 0.2500-0.0023-0.5000 (  5148 PWs)   bands (ev):

   -64.8294 -64.8289 -64.8260 -64.8253 -31.6182 -31.6181 -31.6102 -31.6102
   -31.6066 -31.6063 -31.5854 -31.5850 -31.5838 -31.5838 -31.5752 -31.5750
    -8.5092  -8.5090  -7.9460  -7.9457   4.4184   4.4185   4.7519   4.7522
     5.0967   5.0969   6.5484   6.5487   6.5758   6.5760   7.0965   7.0965

          k = 0.2500 0.2477 0.0000 (  5151 PWs)   bands (ev):

   -64.8322 -64.8264 -64.8260 -64.8251 -31.6236 -31.6234 -31.6198 -31.6049
   -31.5943 -31.5942 -31.5899 -31.5888 -31.5848 -31.5845 -31.5757 -31.5714
    -8.9702  -8.0573  -8.0570  -7.8952   4.1599   4.1600   4.3241   5.0428
     5.8317   6.0636   6.0642   6.4755   6.4759   6.6337   7.1646   7.5397

          k = 0.2500 0.2477 0.2500 (  5146 PWs)   bands (ev):

   -64.8312 -64.8265 -64.8264 -64.8256 -31.6280 -31.6277 -31.6244 -31.6046
   -31.5920 -31.5916 -31.5911 -31.5860 -31.5839 -31.5838 -31.5739 -31.5705
    -8.8004  -8.0370  -8.0241  -8.0226   3.9812   4.0054   4.0075   5.0697
     5.8208   5.8408   5.8523   6.7013   6.7016   6.7533   7.3514   7.3922

          k = 0.2500 0.2477-0.5000 (  5128 PWs)   bands (ev):

   -64.8290 -64.8285 -64.8264 -64.8257 -31.6307 -31.6305 -31.6200 -31.6199
   -31.5898 -31.5895 -31.5818 -31.5818 -31.5801 -31.5797 -31.5765 -31.5764
    -8.4036  -8.4033  -7.9907  -7.9904   3.8311   3.8312   4.1770   4.1772
     5.8184   5.8186   6.7362   6.7365   6.8640   6.8642   7.0587   7.0589

          k = 0.2500-0.5023 0.0000 (  5153 PWs)   bands (ev):

   -64.8294 -64.8289 -64.8260 -64.8253 -31.6210 -31.6145 -31.6136 -31.6072
   -31.6071 -31.6068 -31.5862 -31.5853 -31.5849 -31.5815 -31.5775 -31.5733
    -8.5163  -8.5014  -7.9544  -7.9380   4.4084   4.4288   4.7475   4.7561
     5.0884   5.1052   6.5170   6.5648   6.5819   6.5882   7.0708   7.1196

          k = 0.2500-0.5023 0.2500 (  5137 PWs)   bands (ev):

   -64.8289 -64.8284 -64.8265 -64.8258 -31.6304 -31.6264 -31.6239 -31.6186
   -31.5935 -31.5930 -31.5821 -31.5801 -31.5793 -31.5787 -31.5769 -31.5752
    -8.4058  -8.3910  -8.0044  -7.9885   3.8057   3.8382   4.1864   4.2107
     5.8230   5.8380   6.7183   6.7652   6.8523   6.8845   7.0109   7.0256

          k = 0.2500-0.5023-0.5000 (  5144 PWs)   bands (ev):

   -64.8278 -64.8276 -64.8276 -64.8266 -31.6341 -31.6339 -31.6298 -31.6297
   -31.5848 -31.5845 -31.5822 -31.5821 -31.5756 -31.5754 -31.5748 -31.5747
    -8.1748  -8.1745  -8.1597  -8.1594   3.6236   3.6237   3.6581   3.6582
     6.5002   6.5003   6.5496   6.5497   7.0580   7.0582   7.0728   7.0730

          k = 0.2500-0.2523 0.0000 (  5159 PWs)   bands (ev):

   -64.8320 -64.8265 -64.8261 -64.8250 -31.6197 -31.6190 -31.6189 -31.6107
   -31.5950 -31.5945 -31.5944 -31.5884 -31.5882 -31.5858 -31.5759 -31.5669
    -8.9607  -8.0690  -8.0687  -7.8840   4.1644   4.1645   4.3341   5.1004
     5.8641   6.0484   6.0489   6.4954   6.4957   6.5365   7.1826   7.4732

          k = 0.2500-0.2523 0.2500 (  5156 PWs)   bands (ev):

   -64.8310 -64.8266 -64.8264 -64.8257 -31.6263 -31.6233 -31.6231 -31.6076
   -31.5966 -31.5962 -31.5951 -31.5837 -31.5836 -31.5819 -31.5723 -31.5695
    -8.7908  -8.0373  -8.0356  -8.0231   3.9943   3.9966   4.0207   5.1101
     5.8405   5.8522   5.8723   6.6600   6.7108   6.7111   7.3205   7.3604

          k = 0.2500-0.2523-0.5000 (  5152 PWs)   bands (ev):

   -64.8288 -64.8284 -64.8265 -64.8259 -31.6261 -31.6260 -31.6229 -31.6228
   -31.5968 -31.5965 -31.5799 -31.5798 -31.5792 -31.5792 -31.5762 -31.5759
    -8.3938  -8.3935  -8.0021  -8.0018   3.8123   3.8123   4.2203   4.2205
     5.8434   5.8435   6.7453   6.7456   6.8749   6.8750   6.9754   6.9756

          k =-0.5000 0.0046 0.0000 (  5128 PWs)   bands (ev):

   -64.8301 -64.8297 -64.8252 -64.8247 -31.6110 -31.6109 -31.6100 -31.6099
   -31.6022 -31.6022 -31.5920 -31.5920 -31.5806 -31.5804 -31.5799 -31.5798
    -8.6453  -8.6451  -7.8557  -7.8557   4.8477   4.8480   4.8482   4.8484
     5.1235   5.1237   5.9739   5.9741   6.9690   6.9691   6.9695   6.9696

          k =-0.5000 0.0046 0.2500 (  5154 PWs)   bands (ev):

   -64.8294 -64.8290 -64.8259 -64.8254 -31.6177 -31.6176 -31.6106 -31.6105
   -31.6070 -31.6069 -31.5854 -31.5853 -31.5838 -31.5838 -31.5753 -31.5752
    -8.5090  -8.5089  -7.9461  -7.9460   4.4181   4.4182   4.7521   4.7522
     5.0972   5.0975   6.5484   6.5486   6.5768   6.5770   7.0948   7.0948

          k =-0.5000 0.0046-0.5000 (  5180 PWs)   bands (ev):

   -64.8278 -64.8276 -64.8275 -64.8266 -31.6195 -31.6194 -31.6190 -31.6190
   -31.5977 -31.5973 -31.5961 -31.5957 -31.5763 -31.5762 -31.5755 -31.5755
    -8.2132  -8.2128  -8.1963  -8.1961   4.2781   4.2782   4.3091   4.3093
     5.7486   5.7490   5.7891   5.7891   7.0554   7.0556   7.0726   7.0729

          k =-0.5000 0.2547 0.0000 (  5153 PWs)   bands (ev):

   -64.8294 -64.8289 -64.8259 -64.8254 -31.6210 -31.6145 -31.6136 -31.6071
   -31.6071 -31.6068 -31.5862 -31.5852 -31.5850 -31.5815 -31.5775 -31.5733
    -8.5163  -8.5014  -7.9543  -7.9380   4.4085   4.4289   4.7475   4.7560
     5.0884   5.1052   6.5165   6.5647   6.5814   6.5882   7.0710   7.1198

          k =-0.5000 0.2547 0.2500 (  5137 PWs)   bands (ev):

   -64.8289 -64.8285 -64.8264 -64.8258 -31.6304 -31.6264 -31.6239 -31.6186
   -31.5935 -31.5930 -31.5822 -31.5801 -31.5793 -31.5787 -31.5769 -31.5752
    -8.4058  -8.3910  -8.0043  -7.9884   3.8055   3.8379   4.1865   4.2108
     5.8232   5.8381   6.7178   6.7647   6.8526   6.8848   7.0109   7.0256

          k =-0.5000 0.2547-0.5000 (  5144 PWs)   bands (ev):

   -64.8278 -64.8276 -64.8275 -64.8266 -31.6341 -31.6339 -31.6298 -31.6297
   -31.5849 -31.5846 -31.5822 -31.5820 -31.5757 -31.5756 -31.5747 -31.5747
    -8.1769  -8.1766  -8.1575  -8.1573   3.6202   3.6202   3.6614   3.6615
     6.4963   6.4965   6.5539   6.5540   7.0556   7.0558   7.0748   7.0750

          k =-0.5000-0.4954 0.0000 (  5188 PWs)   bands (ev):

   -64.8278 -64.8276 -64.8275 -64.8266 -31.6231 -31.6227 -31.6161 -31.6158
   -31.5971 -31.5971 -31.5970 -31.5967 -31.5778 -31.5774 -31.5743 -31.5740
    -8.2159  -8.2156  -8.1937  -8.1934   4.2871   4.2873   4.2999   4.3001
     5.7541   5.7547   5.7815   5.7821   7.0272   7.0274   7.1024   7.1026

          k =-0.5000-0.4954 0.2500 (  5140 PWs)   bands (ev):

   -64.8278 -64.8276 -64.8275 -64.8266 -31.6341 -31.6339 -31.6297 -31.6295
   -31.5841 -31.5840 -31.5820 -31.5820 -31.5779 -31.5775 -31.5732 -31.5729
    -8.1782  -8.1779  -8.1563  -8.1560   3.6267   3.6268   3.6547   3.6548
     6.5207   6.5211   6.5287   6.5291   7.0284   7.0286   7.1031   7.1033

          k =-0.5000-0.4954-0.5000 (  5136 PWs)   bands (ev):

   -64.8278 -64.8276 -64.8275 -64.8266 -31.6408 -31.6406 -31.6390 -31.6388
   -31.5771 -31.5768 -31.5759 -31.5758 -31.5744 -31.5744 -31.5735 -31.5732
    -8.1400  -8.1397  -8.1183  -8.1180   3.2007   3.2007   3.2353   3.2353
     7.0291   7.0293   7.0644   7.0647   7.0668   7.0671   7.1040   7.1041

          k = 0.0000-0.2500 0.2500 (  5153 PWs)   bands (ev):

   -64.8321 -64.8264 -64.8261 -64.8250 -31.6214 -31.6212 -31.6201 -31.6071
   -31.5946 -31.5941 -31.5929 -31.5875 -31.5866 -31.5862 -31.5755 -31.5686
    -8.9655  -8.0634  -8.0629  -7.8893   4.1616   4.1623   4.3295   5.0718
     5.8474   6.0530   6.0561   6.4858   6.4896   6.5845   7.1736   7.5071

          k =-0.2500 0.0023 0.2500 (  5153 PWs)   bands (ev):

   -64.8321 -64.8265 -64.8261 -64.8250 -31.6215 -31.6211 -31.6202 -31.6071
   -31.5949 -31.5937 -31.5930 -31.5875 -31.5866 -31.5861 -31.5755 -31.5686
    -8.9655  -8.0694  -8.0569  -7.8893   4.1514   4.1726   4.3294   5.0717
     5.8474   6.0393   6.0703   6.4800   6.4946   6.5843   7.1741   7.5069

          k =-0.2500-0.2477 0.2500 (  5146 PWs)   bands (ev):

   -64.8312 -64.8265 -64.8264 -64.8256 -31.6280 -31.6277 -31.6244 -31.6046
   -31.5920 -31.5916 -31.5911 -31.5860 -31.5839 -31.5838 -31.5739 -31.5705
    -8.8004  -8.0370  -8.0241  -8.0226   3.9812   4.0054   4.0075   5.0697
     5.8208   5.8408   5.8523   6.7013   6.7016   6.7533   7.3514   7.3922

          k =-0.2500 0.5023 0.2500 (  5137 PWs)   bands (ev):

   -64.8289 -64.8284 -64.8265 -64.8258 -31.6304 -31.6264 -31.6239 -31.6186
   -31.5935 -31.5930 -31.5821 -31.5801 -31.5793 -31.5787 -31.5769 -31.5752
    -8.4058  -8.3910  -8.0044  -7.9885   3.8057   3.8382   4.1864   4.2107
     5.8230   5.8380   6.7183   6.7652   6.8523   6.8845   7.0109   7.0256

          k =-0.2500 0.2523 0.2500 (  5156 PWs)   bands (ev):

   -64.8310 -64.8266 -64.8264 -64.8257 -31.6263 -31.6233 -31.6231 -31.6076
   -31.5966 -31.5962 -31.5951 -31.5837 -31.5836 -31.5819 -31.5723 -31.5695
    -8.7908  -8.0373  -8.0356  -8.0231   3.9943   3.9966   4.0207   5.1101
     5.8405   5.8522   5.8723   6.6600   6.7108   6.7111   7.3205   7.3604

          k = 0.5000-0.2547 0.2500 (  5137 PWs)   bands (ev):

   -64.8289 -64.8285 -64.8264 -64.8258 -31.6304 -31.6264 -31.6239 -31.6186
   -31.5935 -31.5930 -31.5822 -31.5801 -31.5793 -31.5787 -31.5769 -31.5752
    -8.4058  -8.3910  -8.0043  -7.9884   3.8055   3.8379   4.1865   4.2108
     5.8232   5.8381   6.7178   6.7647   6.8526   6.8848   7.0109   7.0256

     highest occupied level (ev):     7.7070

!    total energy              =    -608.39249264 Ry
     Harris-Foulkes estimate   =    -608.39249264 Ry
     estimated scf accuracy    <          7.3E-09 Ry

     The total energy is the sum of the following terms:

     one-electron contribution =    -303.54858130 Ry
     hartree contribution      =     168.06404336 Ry
     xc contribution           =     -97.84630333 Ry
     ewald contribution        =    -375.06165137 Ry

     convergence has been achieved in   3 iterations

     Forces acting on atoms (cartesian axes, Ry/au):

     atom    1 type  1   force =    -0.00195485    0.00005742   -0.00000655
     atom    2 type  1   force =     0.00208280   -0.00006112    0.00000663
     atom    3 type  1   force =    -0.00199977    0.00005769    0.00000662
     atom    4 type  1   force =     0.00183735   -0.00005417   -0.00000675
     atom    5 type  2   force =    -0.00235157    0.00003683   -0.00000995
     atom    6 type  2   force =     0.00241349   -0.00003605   -0.00000960
     atom    7 type  2   force =    -0.00230716    0.00003421    0.00000963
     atom    8 type  2   force =     0.00227971   -0.00003481    0.00000998

     Total force =     0.006118     Total SCF correction =     0.000138


     Computing stress (Cartesian axis) and pressure

          total   stress  (Ry/bohr**3)                   (kbar)     P=  -68.07
  -0.00046368  -0.00008926   0.00000000        -68.21    -13.13      0.00
  -0.00008926  -0.00046133   0.00000000        -13.13    -67.86      0.00
   0.00000000   0.00000000  -0.00046327          0.00      0.00    -68.15


     number of scf cycles    =   2
     number of bfgs steps    =   1

     energy   old            =    -608.3924467582 Ry
     energy   new            =    -608.3924926364 Ry

     CASE: energy  _new < energy  _old


     WARNING: bfgs curvature condition failed, Theta= 0.919
     new trust radius        =       0.0031473404 bohr
     new conv_thr            =       0.0000000005 Ry


ATOMIC_POSITIONS (alat)
Mg      -0.000587697   0.000023164  -0.000002611
Mg       0.000625802   0.499975632   0.500002595
Mg       0.499406028   0.000023231   0.500002514
Mg       0.500541100   0.499978220  -0.000002642
O        0.499280122   0.000012747  -0.000003271
O        0.000746771   0.499987027  -0.000003232
O       -0.000713443   0.000012350   0.500003296
O        0.500701316   0.499987629   0.500003351



     Writing output data file diamond..70.4.save
     NEW-OLD atomic charge density approx. for the potential

     Check: negative/imaginary core charge=   -0.000007    0.000000

     total cpu time spent up to now is       17.8 secs

     per-process dynamical memory:    53.0 Mb

     Self-consistent Calculation

     iteration #  1     ecut=    70.00 Ry     beta=0.70
     Davidson diagonalization with overlap
     ethr =  1.00E-06,  avg # of iterations =  3.0

     Threshold (ethr) on eigenvalues was too large:
     Diagonalizing with lowered threshold

     Davidson diagonalization with overlap
     ethr =  5.88E-09,  avg # of iterations =  2.4

     total cpu time spent up to now is       20.6 secs

     total energy              =    -608.39253567 Ry
     Harris-Foulkes estimate   =    -608.39253784 Ry
     estimated scf accuracy    <       0.00000385 Ry

     iteration #  2     ecut=    70.00 Ry     beta=0.70
     Davidson diagonalization with overlap
     ethr =  6.02E-09,  avg # of iterations =  2.0

     total cpu time spent up to now is       21.8 secs

     total energy              =    -608.39253632 Ry
     Harris-Foulkes estimate   =    -608.39253636 Ry
     estimated scf accuracy    <       0.00000011 Ry

     iteration #  3     ecut=    70.00 Ry     beta=0.70
     Davidson diagonalization with overlap
     ethr =  1.76E-10,  avg # of iterations =  2.7

     total cpu time spent up to now is       23.0 secs

     total energy              =    -608.39253633 Ry
     Harris-Foulkes estimate   =    -608.39253635 Ry
     estimated scf accuracy    <       0.00000003 Ry

     iteration #  4     ecut=    70.00 Ry     beta=0.70
     Davidson diagonalization with overlap
     ethr =  4.53E-11,  avg # of iterations =  3.0

     total cpu time spent up to now is       24.3 secs

     total energy              =    -608.39253634 Ry
     Harris-Foulkes estimate   =    -608.39253635 Ry
     estimated scf accuracy    <       0.00000002 Ry

     iteration #  5     ecut=    70.00 Ry     beta=0.70
     Davidson diagonalization with overlap
     ethr =  2.81E-11,  avg # of iterations =  2.4

     total cpu time spent up to now is       25.6 secs

     End of self-consistent calculation

          k = 0.0000 0.0000 0.0000 (  5149 PWs)   bands (ev):

   -64.8347 -64.8252 -64.8252 -64.8244 -31.6311 -31.6310 -31.6309 -31.5949
   -31.5936 -31.5934 -31.5928 -31.5927 -31.5913 -31.5668 -31.5652 -31.5637
    -9.3642  -7.9134  -7.9128  -7.9128   3.7585   3.7592   3.7592   6.3269
     6.3804   6.3805   6.3807   6.3811   6.4351   7.6393   7.6724   7.7068

          k = 0.0000 0.0000 0.2500 (  5153 PWs)   bands (ev):

   -64.8332 -64.8264 -64.8252 -64.8246 -31.6253 -31.6252 -31.6205 -31.5978
   -31.5977 -31.5942 -31.5941 -31.5908 -31.5866 -31.5782 -31.5734 -31.5689
    -9.1558  -8.1282  -7.8844  -7.8843   4.0480   4.0492   4.0970   5.8584
     5.8585   6.1712   6.1716   6.4921   6.5960   6.6592   7.4136   7.4893

          k = 0.0000 0.0000-0.5000 (  5130 PWs)   bands (ev):

   -64.8300 -64.8296 -64.8252 -64.8246 -31.6145 -31.6142 -31.6071 -31.6068
   -31.6019 -31.6018 -31.5912 -31.5911 -31.5829 -31.5826 -31.5783 -31.5780
    -8.6455  -8.6455  -7.8556  -7.8555   4.8413   4.8413   4.8538   4.8539
     5.1234   5.1236   5.9741   5.9744   6.9237   6.9238   7.0150   7.0151

          k = 0.0000 0.2500 0.0000 (  5167 PWs)   bands (ev):

   -64.8332 -64.8264 -64.8252 -64.8246 -31.6251 -31.6248 -31.6215 -31.5996
   -31.5984 -31.5934 -31.5929 -31.5892 -31.5888 -31.5798 -31.5717 -31.5707
    -9.1557  -8.1278  -7.8849  -7.8843   4.0488   4.0491   4.0958   5.8511
     5.8587   6.1710   6.1791   6.5433   6.5435   6.6588   7.4505   7.4519

          k = 0.0000 0.2500 0.2500 (  5153 PWs)   bands (ev):

   -64.8320 -64.8264 -64.8260 -64.8249 -31.6213 -31.6212 -31.6201 -31.6070
   -31.5945 -31.5940 -31.5929 -31.5874 -31.5865 -31.5862 -31.5754 -31.5685
    -8.9656  -8.0634  -8.0630  -7.8894   4.1616   4.1623   4.3294   5.0718
     5.8473   6.0530   6.0560   6.4857   6.4894   6.5843   7.1736   7.5070

          k = 0.0000 0.2500-0.5000 (  5148 PWs)   bands (ev):

   -64.8293 -64.8289 -64.8259 -64.8253 -31.6182 -31.6180 -31.6101 -31.6101
   -31.6064 -31.6062 -31.5853 -31.5851 -31.5838 -31.5837 -31.5751 -31.5749
    -8.5091  -8.5091  -7.9461  -7.9461   4.4190   4.4191   4.7513   4.7515
     5.0968   5.0969   6.5483   6.5485   6.5754   6.5755   7.0966   7.0966

          k = 0.0000-0.5000 0.0000 (  5128 PWs)   bands (ev):

   -64.8300 -64.8296 -64.8252 -64.8246 -31.6112 -31.6105 -31.6100 -31.6098
   -31.6024 -31.6019 -31.5920 -31.5917 -31.5806 -31.5803 -31.5800 -31.5797
    -8.6453  -8.6452  -7.8561  -7.8556   4.8463   4.8481   4.8483   4.8486
     5.1233   5.1239   5.9736   5.9760   6.9686   6.9691   6.9692   6.9695

          k = 0.0000-0.5000 0.2500 (  5154 PWs)   bands (ev):

   -64.8293 -64.8289 -64.8259 -64.8253 -31.6178 -31.6174 -31.6106 -31.6104
   -31.6069 -31.6067 -31.5854 -31.5852 -31.5838 -31.5836 -31.5753 -31.5750
    -8.5090  -8.5089  -7.9465  -7.9461   4.4183   4.4188   4.7516   4.7521
     5.0969   5.0975   6.5483   6.5495   6.5763   6.5764   7.0945   7.0951

          k = 0.0000-0.5000-0.5000 (  5180 PWs)   bands (ev):

   -64.8276 -64.8276 -64.8275 -64.8266 -31.6194 -31.6192 -31.6191 -31.6190
   -31.5969 -31.5966 -31.5966 -31.5964 -31.5760 -31.5758 -31.5757 -31.5757
    -8.2049  -8.2048  -8.2046  -8.2045   4.2936   4.2937   4.2938   4.2940
     5.7683   5.7684   5.7688   5.7689   7.0638   7.0640   7.0645   7.0646

          k = 0.2500-0.0023 0.0000 (  5167 PWs)   bands (ev):

   -64.8332 -64.8264 -64.8252 -64.8246 -31.6251 -31.6248 -31.6215 -31.5996
   -31.5984 -31.5933 -31.5931 -31.5892 -31.5887 -31.5798 -31.5717 -31.5707
    -9.1557  -8.1278  -7.8847  -7.8844   4.0488   4.0491   4.0958   5.8524
     5.8588   6.1710   6.1773   6.5434   6.5437   6.6584   7.4505   7.4522

          k = 0.2500-0.0023 0.2500 (  5153 PWs)   bands (ev):

   -64.8320 -64.8264 -64.8260 -64.8250 -31.6214 -31.6211 -31.6201 -31.6070
   -31.5948 -31.5937 -31.5929 -31.5874 -31.5866 -31.5861 -31.5754 -31.5685
    -8.9656  -8.0682  -8.0582  -7.8894   4.1534   4.1704   4.3294   5.0718
     5.8473   6.0422   6.0672   6.4813   6.4933   6.5842   7.1739   7.5068

          k = 0.2500-0.0023-0.5000 (  5148 PWs)   bands (ev):

   -64.8293 -64.8289 -64.8259 -64.8253 -31.6182 -31.6180 -31.6101 -31.6101
   -31.6065 -31.6062 -31.5853 -31.5850 -31.5837 -31.5837 -31.5751 -31.5749
    -8.5092  -8.5091  -7.9460  -7.9460   4.4185   4.4187   4.7517   4.7519
     5.0968   5.0968   6.5484   6.5486   6.5757   6.5757   7.0963   7.0965

          k = 0.2500 0.2477 0.0000 (  5151 PWs)   bands (ev):

   -64.8321 -64.8263 -64.8259 -64.8250 -31.6235 -31.6233 -31.6198 -31.6048
   -31.5942 -31.5941 -31.5898 -31.5888 -31.5847 -31.5845 -31.5757 -31.5713
    -8.9703  -8.0573  -8.0572  -7.8953   4.1598   4.1600   4.3241   5.0429
     5.8316   6.0636   6.0640   6.4754   6.4757   6.6335   7.1646   7.5395

          k = 0.2500 0.2477 0.2500 (  5146 PWs)   bands (ev):

   -64.8311 -64.8264 -64.8263 -64.8255 -31.6279 -31.6277 -31.6243 -31.6046
   -31.5919 -31.5915 -31.5911 -31.5859 -31.5838 -31.5837 -31.5738 -31.5704
    -8.8005  -8.0366  -8.0242  -8.0232   3.9819   4.0053   4.0067   5.0696
     5.8235   5.8407   5.8494   6.7013   6.7015   6.7531   7.3513   7.3921

          k = 0.2500 0.2477-0.5000 (  5128 PWs)   bands (ev):

   -64.8289 -64.8284 -64.8263 -64.8257 -31.6306 -31.6304 -31.6199 -31.6199
   -31.5897 -31.5894 -31.5817 -31.5817 -31.5800 -31.5797 -31.5764 -31.5763
    -8.4036  -8.4035  -7.9907  -7.9906   3.8312   3.8313   4.1769   4.1770
     5.8185   5.8185   6.7362   6.7364   6.8639   6.8640   7.0586   7.0587

          k = 0.2500-0.5023 0.0000 (  5153 PWs)   bands (ev):

   -64.8293 -64.8289 -64.8259 -64.8253 -31.6209 -31.6144 -31.6136 -31.6071
   -31.6070 -31.6067 -31.5861 -31.5852 -31.5849 -31.5814 -31.5775 -31.5732
    -8.5164  -8.5015  -7.9544  -7.9381   4.4084   4.4289   4.7474   4.7560
     5.0883   5.1051   6.5167   6.5647   6.5816   6.5881   7.0707   7.1195

          k = 0.2500-0.5023 0.2500 (  5137 PWs)   bands (ev):

   -64.8288 -64.8284 -64.8264 -64.8257 -31.6303 -31.6263 -31.6238 -31.6185
   -31.5934 -31.5929 -31.5821 -31.5801 -31.5792 -31.5786 -31.5768 -31.5752
    -8.4059  -8.3910  -8.0044  -7.9886   3.8057   3.8381   4.1863   4.2106
     5.8230   5.8380   6.7181   6.7650   6.8522   6.8844   7.0108   7.0254

          k = 0.2500-0.5023-0.5000 (  5144 PWs)   bands (ev):

   -64.8277 -64.8275 -64.8275 -64.8266 -31.6340 -31.6338 -31.6297 -31.6296
   -31.5847 -31.5844 -31.5822 -31.5820 -31.5755 -31.5754 -31.5747 -31.5747
    -8.1747  -8.1747  -8.1597  -8.1596   3.6235   3.6237   3.6580   3.6581
     6.5002   6.5003   6.5496   6.5497   7.0579   7.0581   7.0727   7.0728

          k = 0.2500-0.2523 0.0000 (  5159 PWs)   bands (ev):

   -64.8319 -64.8265 -64.8260 -64.8249 -31.6196 -31.6189 -31.6188 -31.6106
   -31.5949 -31.5945 -31.5943 -31.5883 -31.5882 -31.5857 -31.5758 -31.5668
    -8.9608  -8.0690  -8.0689  -7.8841   4.1643   4.1645   4.3341   5.1004
     5.8640   6.0484   6.0488   6.4953   6.4955   6.5363   7.1825   7.4731

          k = 0.2500-0.2523 0.2500 (  5156 PWs)   bands (ev):

   -64.8309 -64.8265 -64.8263 -64.8256 -31.6262 -31.6232 -31.6230 -31.6075
   -31.5965 -31.5961 -31.5951 -31.5836 -31.5836 -31.5818 -31.5722 -31.5694
    -8.7909  -8.0368  -8.0357  -8.0237   3.9950   3.9965   4.0199   5.1100
     5.8433   5.8522   5.8694   6.6599   6.7108   6.7110   7.3204   7.3603

          k = 0.2500-0.2523-0.5000 (  5152 PWs)   bands (ev):

   -64.8287 -64.8283 -64.8265 -64.8258 -31.6260 -31.6259 -31.6229 -31.6228
   -31.5967 -31.5964 -31.5798 -31.5797 -31.5792 -31.5791 -31.5761 -31.5758
    -8.3937  -8.3936  -8.0021  -8.0020   3.8123   3.8124   4.2201   4.2203
     5.8434   5.8435   6.7453   6.7455   6.8747   6.8749   6.9753   6.9754

          k =-0.5000 0.0046 0.0000 (  5128 PWs)   bands (ev):

   -64.8300 -64.8296 -64.8251 -64.8246 -31.6109 -31.6108 -31.6100 -31.6098
   -31.6021 -31.6021 -31.5919 -31.5919 -31.5805 -31.5803 -31.5799 -31.5798
    -8.6455  -8.6451  -7.8558  -7.8558   4.8476   4.8480   4.8481   4.8485
     5.1234   5.1237   5.9739   5.9742   6.9688   6.9691   6.9692   6.9695

          k =-0.5000 0.0046 0.2500 (  5154 PWs)   bands (ev):

   -64.8293 -64.8289 -64.8258 -64.8253 -31.6176 -31.6175 -31.6105 -31.6105
   -31.6069 -31.6068 -31.5853 -31.5852 -31.5838 -31.5837 -31.5752 -31.5751
    -8.5091  -8.5088  -7.9462  -7.9462   4.4181   4.4184   4.7518   4.7521
     5.0971   5.0976   6.5483   6.5486   6.5765   6.5769   7.0947   7.0948

          k =-0.5000 0.0046-0.5000 (  5180 PWs)   bands (ev):

   -64.8277 -64.8276 -64.8275 -64.8266 -31.6194 -31.6193 -31.6190 -31.6190
   -31.5975 -31.5972 -31.5961 -31.5958 -31.5762 -31.5761 -31.5755 -31.5754
    -8.2116  -8.2113  -8.1980  -8.1978   4.2811   4.2813   4.3060   4.3062
     5.7524   5.7529   5.7848   5.7853   7.0571   7.0571   7.0709   7.0712

          k =-0.5000 0.2547 0.0000 (  5153 PWs)   bands (ev):

   -64.8293 -64.8289 -64.8259 -64.8253 -31.6209 -31.6144 -31.6135 -31.6071
   -31.6070 -31.6067 -31.5861 -31.5851 -31.5849 -31.5814 -31.5775 -31.5732
    -8.5164  -8.5015  -7.9544  -7.9381   4.4085   4.4289   4.7474   4.7560
     5.0884   5.1052   6.5164   6.5647   6.5813   6.5881   7.0709   7.1196

          k =-0.5000 0.2547 0.2500 (  5137 PWs)   bands (ev):

   -64.8288 -64.8284 -64.8264 -64.8257 -31.6303 -31.6263 -31.6238 -31.6185
   -31.5934 -31.5930 -31.5821 -31.5800 -31.5793 -31.5786 -31.5768 -31.5752
    -8.4059  -8.3911  -8.0044  -7.9885   3.8056   3.8380   4.1864   4.2107
     5.8231   5.8380   6.7178   6.7647   6.8524   6.8846   7.0108   7.0255

          k =-0.5000 0.2547-0.5000 (  5144 PWs)   bands (ev):

   -64.8277 -64.8276 -64.8275 -64.8265 -31.6340 -31.6339 -31.6297 -31.6296
   -31.5848 -31.5845 -31.5821 -31.5819 -31.5756 -31.5755 -31.5747 -31.5746
    -8.1762  -8.1761  -8.1582  -8.1582   3.6213   3.6213   3.6602   3.6604
     6.4977   6.4977   6.5524   6.5525   7.0563   7.0564   7.0740   7.0742

          k =-0.5000-0.4954 0.0000 (  5188 PWs)   bands (ev):

   -64.8278 -64.8276 -64.8274 -64.8265 -31.6230 -31.6227 -31.6160 -31.6157
   -31.5971 -31.5970 -31.5969 -31.5967 -31.5777 -31.5774 -31.5743 -31.5740
    -8.2158  -8.2157  -8.1936  -8.1935   4.2870   4.2873   4.2998   4.3001
     5.7541   5.7546   5.7815   5.7819   7.0271   7.0272   7.1023   7.1024

          k =-0.5000-0.4954 0.2500 (  5140 PWs)   bands (ev):

   -64.8277 -64.8276 -64.8274 -64.8265 -31.6340 -31.6338 -31.6296 -31.6295
   -31.5840 -31.5840 -31.5820 -31.5820 -31.5778 -31.5775 -31.5731 -31.5728
    -8.1782  -8.1781  -8.1563  -8.1562   3.6266   3.6268   3.6546   3.6548
     6.5207   6.5210   6.5287   6.5290   7.0283   7.0284   7.1029   7.1030

          k =-0.5000-0.4954-0.5000 (  5136 PWs)   bands (ev):

   -64.8277 -64.8276 -64.8274 -64.8265 -31.6407 -31.6405 -31.6389 -31.6388
   -31.5770 -31.5767 -31.5758 -31.5758 -31.5743 -31.5743 -31.5734 -31.5731
    -8.1399  -8.1399  -8.1182  -8.1182   3.2006   3.2007   3.2352   3.2353
     7.0290   7.0291   7.0644   7.0646   7.0668   7.0670   7.1039   7.1039

          k = 0.0000-0.2500 0.2500 (  5153 PWs)   bands (ev):

   -64.8320 -64.8264 -64.8260 -64.8249 -31.6213 -31.6212 -31.6201 -31.6070
   -31.5945 -31.5940 -31.5929 -31.5874 -31.5865 -31.5862 -31.5754 -31.5685
    -8.9656  -8.0634  -8.0630  -7.8894   4.1616   4.1623   4.3294   5.0718
     5.8473   6.0530   6.0560   6.4857   6.4894   6.5843   7.1736   7.5070

          k =-0.2500 0.0023 0.2500 (  5153 PWs)   bands (ev):

   -64.8320 -64.8264 -64.8260 -64.8250 -31.6214 -31.6211 -31.6201 -31.6070
   -31.5948 -31.5937 -31.5929 -31.5874 -31.5866 -31.5861 -31.5754 -31.5685
    -8.9656  -8.0682  -8.0582  -7.8894   4.1534   4.1704   4.3294   5.0718
     5.8473   6.0422   6.0672   6.4813   6.4933   6.5842   7.1739   7.5068

          k =-0.2500-0.2477 0.2500 (  5146 PWs)   bands (ev):

   -64.8311 -64.8264 -64.8263 -64.8255 -31.6279 -31.6277 -31.6243 -31.6046
   -31.5919 -31.5915 -31.5911 -31.5859 -31.5838 -31.5837 -31.5738 -31.5704
    -8.8005  -8.0366  -8.0242  -8.0232   3.9819   4.0053   4.0067   5.0696
     5.8235   5.8407   5.8494   6.7013   6.7015   6.7531   7.3513   7.3921

          k =-0.2500 0.5023 0.2500 (  5137 PWs)   bands (ev):

   -64.8288 -64.8284 -64.8264 -64.8257 -31.6303 -31.6263 -31.6238 -31.6185
   -31.5934 -31.5929 -31.5821 -31.5801 -31.5792 -31.5786 -31.5768 -31.5752
    -8.4059  -8.3910  -8.0044  -7.9886   3.8057   3.8381   4.1863   4.2106
     5.8230   5.8380   6.7181   6.7650   6.8522   6.8844   7.0108   7.0254

          k =-0.2500 0.2523 0.2500 (  5156 PWs)   bands (ev):

   -64.8309 -64.8265 -64.8263 -64.8256 -31.6262 -31.6232 -31.6230 -31.6075
   -31.5965 -31.5961 -31.5951 -31.5836 -31.5836 -31.5818 -31.5722 -31.5694
    -8.7909  -8.0368  -8.0357  -8.0237   3.9950   3.9965   4.0199   5.1100
     5.8433   5.8522   5.8694   6.6599   6.7108   6.7110   7.3204   7.3603

          k = 0.5000-0.2547 0.2500 (  5137 PWs)   bands (ev):

   -64.8288 -64.8284 -64.8264 -64.8257 -31.6303 -31.6263 -31.6238 -31.6185
   -31.5934 -31.5930 -31.5821 -31.5800 -31.5793 -31.5786 -31.5768 -31.5752
    -8.4059  -8.3911  -8.0044  -7.9885   3.8056   3.8380   4.1864   4.2107
     5.8231   5.8380   6.7178   6.7647   6.8524   6.8846   7.0108   7.0255

     highest occupied level (ev):     7.7068

!    total energy              =    -608.39253634 Ry
     Harris-Foulkes estimate   =    -608.39253634 Ry
     estimated scf accuracy    <          1.1E-10 Ry

     The total energy is the sum of the following terms:

     one-electron contribution =    -303.54938536 Ry
     hartree contribution      =     168.06449954 Ry
     xc contribution           =     -97.84635024 Ry
     ewald contribution        =    -375.06130029 Ry

     convergence has been achieved in   5 iterations

     Forces acting on atoms (cartesian axes, Ry/au):

     atom    1 type  1   force =    -0.00160071    0.00002889   -0.00000583
     atom    2 type  1   force =     0.00173888   -0.00003344    0.00000605
     atom    3 type  1   force =    -0.00171238    0.00003101    0.00000606
     atom    4 type  1   force =     0.00157009   -0.00002832   -0.00000618
     atom    5 type  2   force =    -0.00185573    0.00001358   -0.00000496
     atom    6 type  2   force =     0.00187684   -0.00001316   -0.00000498
     atom    7 type  2   force =    -0.00183000    0.00001396    0.00000495
     atom    8 type  2   force =     0.00181301   -0.00001251    0.00000489

     Total force =     0.004959     Total SCF correction =     0.000031


     Computing stress (Cartesian axis) and pressure

          total   stress  (Ry/bohr**3)                   (kbar)     P=  -68.06
  -0.00046357  -0.00008926   0.00000000        -68.19    -13.13      0.00
  -0.00008926  -0.00046144  -0.00000000        -13.13    -67.88     -0.00
   0.00000000  -0.00000000  -0.00046308          0.00     -0.00    -68.12


     number of scf cycles    =   3
     number of bfgs steps    =   2

     energy   old            =    -608.3924926364 Ry
     energy   new            =    -608.3925363448 Ry

     CASE: energy  _new < energy  _old

     new trust radius        =       0.0047210107 bohr
     new conv_thr            =       0.0000000004 Ry


ATOMIC_POSITIONS (alat)
Mg      -0.001078946   0.000034371  -0.000004484
Mg       0.001157038   0.499963119   0.500004516
Mg       0.498887084   0.000034951   0.500004422
Mg       0.501016302   0.499967409  -0.000004602
O        0.498703361   0.000018383  -0.000005067
O        0.001333585   0.499981452  -0.000005026
O       -0.001282803   0.000017995   0.500005093
O        0.501264378   0.499982319   0.500005147



     Writing output data file diamond..70.4.save
     NEW-OLD atomic charge density approx. for the potential

     Check: negative/imaginary core charge=   -0.000007    0.000000

     total cpu time spent up to now is       26.2 secs

     per-process dynamical memory:    53.0 Mb

     Self-consistent Calculation

     iteration #  1     ecut=    70.00 Ry     beta=0.70
     Davidson diagonalization with overlap
     ethr =  1.00E-06,  avg # of iterations =  3.0

     Threshold (ethr) on eigenvalues was too large:
     Diagonalizing with lowered threshold

     Davidson diagonalization with overlap
     ethr =  1.36E-08,  avg # of iterations =  2.1

     total cpu time spent up to now is       29.0 secs

     total energy              =    -608.39258545 Ry
     Harris-Foulkes estimate   =    -608.39259035 Ry
     estimated scf accuracy    <       0.00000875 Ry

     iteration #  2     ecut=    70.00 Ry     beta=0.70
     Davidson diagonalization with overlap
     ethr =  1.37E-08,  avg # of iterations =  2.0

     total cpu time spent up to now is       30.2 secs

     total energy              =    -608.39258693 Ry
     Harris-Foulkes estimate   =    -608.39258699 Ry
     estimated scf accuracy    <       0.00000022 Ry

     iteration #  3     ecut=    70.00 Ry     beta=0.70
     Davidson diagonalization with overlap
     ethr =  3.39E-10,  avg # of iterations =  2.0

     total cpu time spent up to now is       31.5 secs

     total energy              =    -608.39258696 Ry
     Harris-Foulkes estimate   =    -608.39258696 Ry
     estimated scf accuracy    <       0.00000001 Ry

     iteration #  4     ecut=    70.00 Ry     beta=0.70
     Davidson diagonalization with overlap
     ethr =  2.20E-11,  avg # of iterations =  2.1

     total cpu time spent up to now is       32.7 secs

     total energy              =    -608.39258696 Ry
     Harris-Foulkes estimate   =    -608.39258696 Ry
     estimated scf accuracy    <          1.7E-09 Ry

     iteration #  5     ecut=    70.00 Ry     beta=0.70
     Davidson diagonalization with overlap
     ethr =  2.67E-12,  avg # of iterations =  2.9

     total cpu time spent up to now is       33.9 secs

     End of self-consistent calculation

          k = 0.0000 0.0000 0.0000 (  5149 PWs)   bands (ev):

   -64.8346 -64.8251 -64.8251 -64.8243 -31.6310 -31.6309 -31.6309 -31.5948
   -31.5935 -31.5934 -31.5927 -31.5926 -31.5913 -31.5667 -31.5652 -31.5636
    -9.3642  -7.9134  -7.9130  -7.9128   3.7585   3.7591   3.7591   6.3268
     6.3804   6.3804   6.3806   6.3810   6.4350   7.6392   7.6724   7.7067

          k = 0.0000 0.0000 0.2500 (  5153 PWs)   bands (ev):

   -64.8332 -64.8263 -64.8251 -64.8245 -31.6252 -31.6251 -31.6204 -31.5977
   -31.5976 -31.5941 -31.5940 -31.5908 -31.5866 -31.5781 -31.5733 -31.5689
    -9.1558  -8.1283  -7.8845  -7.8844   4.0487   4.0491   4.0962   5.8585
     5.8585   6.1711   6.1715   6.4920   6.5959   6.6592   7.4135   7.4892

          k = 0.0000 0.0000-0.5000 (  5130 PWs)   bands (ev):

   -64.8300 -64.8295 -64.8251 -64.8245 -31.6144 -31.6141 -31.6071 -31.6068
   -31.6019 -31.6018 -31.5911 -31.5910 -31.5828 -31.5825 -31.5782 -31.5779
    -8.6456  -8.6455  -7.8557  -7.8556   4.8414   4.8415   4.8539   4.8540
     5.1230   5.1233   5.9740   5.9744   6.9236   6.9237   7.0149   7.0149

          k = 0.0000 0.2500 0.0000 (  5167 PWs)   bands (ev):

   -64.8332 -64.8263 -64.8251 -64.8245 -31.6251 -31.6247 -31.6214 -31.5995
   -31.5983 -31.5933 -31.5929 -31.5891 -31.5887 -31.5797 -31.5716 -31.5706
    -9.1558  -8.1279  -7.8849  -7.8845   4.0487   4.0490   4.0957   5.8518
     5.8587   6.1710   6.1782   6.5434   6.5434   6.6585   7.4505   7.4519

          k = 0.0000 0.2500 0.2500 (  5153 PWs)   bands (ev):

   -64.8320 -64.8263 -64.8260 -64.8249 -31.6213 -31.6211 -31.6200 -31.6070
   -31.5945 -31.5939 -31.5928 -31.5873 -31.5864 -31.5861 -31.5754 -31.5685
    -8.9656  -8.0635  -8.0631  -7.8895   4.1616   4.1622   4.3293   5.0718
     5.8473   6.0530   6.0560   6.4856   6.4891   6.5842   7.1735   7.5069

          k = 0.0000 0.2500-0.5000 (  5148 PWs)   bands (ev):

   -64.8293 -64.8288 -64.8258 -64.8252 -31.6181 -31.6179 -31.6101 -31.6100
   -31.6064 -31.6061 -31.5852 -31.5850 -31.5837 -31.5837 -31.5750 -31.5748
    -8.5092  -8.5091  -7.9462  -7.9461   4.4190   4.4190   4.7512   4.7515
     5.0968   5.0968   6.5483   6.5486   6.5753   6.5754   7.0964   7.0964

          k = 0.0000-0.5000 0.0000 (  5128 PWs)   bands (ev):

   -64.8300 -64.8295 -64.8251 -64.8245 -31.6110 -31.6105 -31.6099 -31.6097
   -31.6022 -31.6019 -31.5919 -31.5917 -31.5805 -31.5802 -31.5799 -31.5796
    -8.6454  -8.6453  -7.8561  -7.8558   4.8467   4.8480   4.8484   4.8485
     5.1233   5.1238   5.9736   5.9752   6.9686   6.9690   6.9691   6.9693

          k = 0.0000-0.5000 0.2500 (  5154 PWs)   bands (ev):

   -64.8292 -64.8288 -64.8258 -64.8252 -31.6177 -31.6174 -31.6105 -31.6103
   -31.6068 -31.6066 -31.5853 -31.5851 -31.5837 -31.5836 -31.5752 -31.5750
    -8.5091  -8.5089  -7.9465  -7.9462   4.4183   4.4187   4.7515   4.7519
     5.0969   5.0976   6.5483   6.5490   6.5762   6.5765   7.0944   7.0949

          k = 0.0000-0.5000-0.5000 (  5180 PWs)   bands (ev):

   -64.8275 -64.8275 -64.8275 -64.8265 -31.6193 -31.6191 -31.6190 -31.6190
   -31.5968 -31.5966 -31.5966 -31.5963 -31.5759 -31.5757 -31.5757 -31.5756
    -8.2049  -8.2047  -8.2047  -8.2047   4.2935   4.2936   4.2937   4.2938
     5.7683   5.7683   5.7689   5.7689   7.0638   7.0640   7.0642   7.0643

          k = 0.2500-0.0023 0.0000 (  5167 PWs)   bands (ev):

   -64.8332 -64.8263 -64.8251 -64.8245 -31.6251 -31.6247 -31.6214 -31.5995
   -31.5983 -31.5932 -31.5930 -31.5891 -31.5887 -31.5797 -31.5716 -31.5706
    -9.1558  -8.1279  -7.8848  -7.8845   4.0487   4.0490   4.0957   5.8523
     5.8587   6.1710   6.1774   6.5434   6.5435   6.6584   7.4505   7.4520

          k = 0.2500-0.0023 0.2500 (  5153 PWs)   bands (ev):

   -64.8320 -64.8263 -64.8259 -64.8249 -31.6213 -31.6210 -31.6200 -31.6069
   -31.5946 -31.5937 -31.5929 -31.5873 -31.5865 -31.5861 -31.5754 -31.5685
    -8.9656  -8.0665  -8.0601  -7.8895   4.1566   4.1671   4.3293   5.0718
     5.8472   6.0466   6.0625   6.4831   6.4914   6.5841   7.1737   7.5068

          k = 0.2500-0.0023-0.5000 (  5148 PWs)   bands (ev):

   -64.8293 -64.8288 -64.8258 -64.8252 -31.6181 -31.6179 -31.6101 -31.6101
   -31.6064 -31.6061 -31.5852 -31.5849 -31.5837 -31.5837 -31.5750 -31.5749
    -8.5092  -8.5091  -7.9462  -7.9461   4.4188   4.4189   4.7514   4.7516
     5.0967   5.0968   6.5484   6.5486   6.5754   6.5755   7.0963   7.0964

          k = 0.2500 0.2477 0.0000 (  5151 PWs)   bands (ev):

   -64.8320 -64.8262 -64.8259 -64.8249 -31.6234 -31.6232 -31.6197 -31.6047
   -31.5941 -31.5940 -31.5898 -31.5887 -31.5846 -31.5844 -31.5756 -31.5713
    -8.9703  -8.0574  -8.0572  -7.8954   4.1597   4.1599   4.3240   5.0429
     5.8315   6.0635   6.0640   6.4754   6.4755   6.6334   7.1645   7.5394

          k = 0.2500 0.2477 0.2500 (  5146 PWs)   bands (ev):

   -64.8310 -64.8263 -64.8262 -64.8255 -31.6278 -31.6276 -31.6243 -31.6045
   -31.5917 -31.5914 -31.5911 -31.5858 -31.5838 -31.5837 -31.5737 -31.5703
    -8.8005  -8.0361  -8.0243  -8.0239   3.9827   4.0053   4.0059   5.0695
     5.8276   5.8407   5.8453   6.7012   6.7014   6.7530   7.3512   7.3919

          k = 0.2500 0.2477-0.5000 (  5128 PWs)   bands (ev):

   -64.8288 -64.8284 -64.8262 -64.8256 -31.6305 -31.6303 -31.6199 -31.6198
   -31.5896 -31.5893 -31.5816 -31.5816 -31.5799 -31.5796 -31.5763 -31.5762
    -8.4037  -8.4035  -7.9908  -7.9907   3.8312   3.8313   4.1767   4.1768
     5.8185   5.8185   6.7361   6.7364   6.8637   6.8639   7.0585   7.0586

          k = 0.2500-0.5023 0.0000 (  5153 PWs)   bands (ev):

   -64.8293 -64.8288 -64.8258 -64.8252 -31.6208 -31.6143 -31.6135 -31.6070
   -31.6070 -31.6066 -31.5860 -31.5851 -31.5848 -31.5814 -31.5774 -31.5731
    -8.5164  -8.5016  -7.9545  -7.9382   4.4084   4.4289   4.7473   4.7559
     5.0883   5.1051   6.5165   6.5646   6.5814   6.5881   7.0706   7.1194

          k = 0.2500-0.5023 0.2500 (  5137 PWs)   bands (ev):

   -64.8287 -64.8283 -64.8263 -64.8257 -31.6303 -31.6262 -31.6237 -31.6184
   -31.5933 -31.5929 -31.5820 -31.5800 -31.5792 -31.5786 -31.5768 -31.5751
    -8.4059  -8.3911  -8.0045  -7.9887   3.8056   3.8381   4.1862   4.2105
     5.8231   5.8380   6.7178   6.7648   6.8522   6.8844   7.0106   7.0253

          k = 0.2500-0.5023-0.5000 (  5144 PWs)   bands (ev):

   -64.8276 -64.8275 -64.8274 -64.8265 -31.6339 -31.6338 -31.6297 -31.6295
   -31.5846 -31.5844 -31.5821 -31.5820 -31.5755 -31.5753 -31.5747 -31.5746
    -8.1749  -8.1747  -8.1598  -8.1596   3.6235   3.6236   3.6579   3.6580
     6.5002   6.5002   6.5496   6.5496   7.0577   7.0579   7.0725   7.0727

          k = 0.2500-0.2523 0.0000 (  5159 PWs)   bands (ev):

   -64.8319 -64.8264 -64.8260 -64.8248 -31.6196 -31.6189 -31.6187 -31.6106
   -31.5948 -31.5944 -31.5943 -31.5882 -31.5881 -31.5856 -31.5757 -31.5667
    -8.9608  -8.0691  -8.0689  -7.8842   4.1642   4.1645   4.3340   5.1005
     5.8639   6.0483   6.0488   6.4953   6.4954   6.5361   7.1825   7.4729

          k = 0.2500-0.2523 0.2500 (  5156 PWs)   bands (ev):

   -64.8309 -64.8264 -64.8263 -64.8255 -31.6261 -31.6231 -31.6230 -31.6074
   -31.5963 -31.5960 -31.5952 -31.5835 -31.5835 -31.5818 -31.5722 -31.5694
    -8.7910  -8.0363  -8.0358  -8.0244   3.9958   3.9965   4.0189   5.1099
     5.8474   5.8521   5.8652   6.6598   6.7107   6.7109   7.3203   7.3603

          k = 0.2500-0.2523-0.5000 (  5152 PWs)   bands (ev):

   -64.8287 -64.8282 -64.8264 -64.8258 -31.6260 -31.6258 -31.6228 -31.6227
   -31.5966 -31.5963 -31.5797 -31.5797 -31.5791 -31.5791 -31.5760 -31.5757
    -8.3938  -8.3936  -8.0022  -8.0021   3.8123   3.8124   4.2200   4.2201
     5.8434   5.8435   6.7452   6.7455   6.8746   6.8747   6.9752   6.9752

          k =-0.5000 0.0046 0.0000 (  5128 PWs)   bands (ev):

   -64.8299 -64.8295 -64.8251 -64.8246 -31.6108 -31.6107 -31.6099 -31.6097
   -31.6021 -31.6020 -31.5918 -31.5918 -31.5804 -31.5803 -31.5798 -31.5797
    -8.6456  -8.6451  -7.8559  -7.8559   4.8473   4.8477   4.8482   4.8487
     5.1233   5.1237   5.9740   5.9742   6.9687   6.9689   6.9692   6.9694

          k =-0.5000 0.0046 0.2500 (  5154 PWs)   bands (ev):

   -64.8292 -64.8288 -64.8258 -64.8252 -31.6176 -31.6175 -31.6104 -31.6104
   -31.6068 -31.6067 -31.5853 -31.5851 -31.5837 -31.5837 -31.5751 -31.5750
    -8.5093  -8.5088  -7.9464  -7.9463   4.4182   4.4186   4.7516   4.7519
     5.0969   5.0977   6.5483   6.5486   6.5762   6.5768   7.0945   7.0947

          k =-0.5000 0.0046-0.5000 (  5180 PWs)   bands (ev):

   -64.8276 -64.8275 -64.8274 -64.8265 -31.6193 -31.6192 -31.6189 -31.6189
   -31.5972 -31.5969 -31.5963 -31.5959 -31.5761 -31.5760 -31.5755 -31.5755
    -8.2092  -8.2088  -8.2006  -8.2004   4.2858   4.2859   4.3013   4.3015
     5.7581   5.7589   5.7786   5.7793   7.0596   7.0596   7.0682   7.0686

          k =-0.5000 0.2547 0.0000 (  5153 PWs)   bands (ev):

   -64.8292 -64.8288 -64.8258 -64.8252 -31.6208 -31.6143 -31.6135 -31.6070
   -31.6069 -31.6067 -31.5860 -31.5851 -31.5848 -31.5814 -31.5774 -31.5731
    -8.5164  -8.5016  -7.9545  -7.9382   4.4085   4.4289   4.7473   4.7559
     5.0883   5.1051   6.5163   6.5646   6.5813   6.5880   7.0707   7.1194

          k =-0.5000 0.2547 0.2500 (  5137 PWs)   bands (ev):

   -64.8287 -64.8283 -64.8263 -64.8257 -31.6303 -31.6262 -31.6237 -31.6184
   -31.5933 -31.5929 -31.5820 -31.5800 -31.5792 -31.5786 -31.5767 -31.5751
    -8.4059  -8.3911  -8.0045  -7.9887   3.8056   3.8380   4.1862   4.2106
     5.8231   5.8380   6.7177   6.7646   6.8523   6.8845   7.0106   7.0253

          k =-0.5000 0.2547-0.5000 (  5144 PWs)   bands (ev):

   -64.8276 -64.8275 -64.8274 -64.8265 -31.6339 -31.6338 -31.6297 -31.6295
   -31.5847 -31.5844 -31.5821 -31.5819 -31.5755 -31.5754 -31.5746 -31.5746
    -8.1755  -8.1753  -8.1591  -8.1591   3.6226   3.6226   3.6588   3.6590
     6.4991   6.4993   6.5507   6.5508   7.0571   7.0572   7.0730   7.0733

          k =-0.5000-0.4954 0.0000 (  5188 PWs)   bands (ev):

   -64.8277 -64.8275 -64.8274 -64.8265 -31.6229 -31.6226 -31.6159 -31.6156
   -31.5970 -31.5969 -31.5969 -31.5966 -31.5776 -31.5773 -31.5742 -31.5739
    -8.2160  -8.2157  -8.1938  -8.1935   4.2869   4.2873   4.2997   4.3001
     5.7540   5.7546   5.7814   5.7820   7.0269   7.0271   7.1021   7.1023

          k =-0.5000-0.4954 0.2500 (  5140 PWs)   bands (ev):

   -64.8277 -64.8275 -64.8274 -64.8265 -31.6340 -31.6338 -31.6295 -31.6294
   -31.5839 -31.5839 -31.5819 -31.5819 -31.5777 -31.5774 -31.5730 -31.5728
    -8.1783  -8.1781  -8.1564  -8.1562   3.6265   3.6267   3.6546   3.6548
     6.5206   6.5211   6.5286   6.5290   7.0281   7.0282   7.1028   7.1029

          k =-0.5000-0.4954-0.5000 (  5136 PWs)   bands (ev):

   -64.8277 -64.8275 -64.8274 -64.8265 -31.6406 -31.6404 -31.6388 -31.6387
   -31.5769 -31.5767 -31.5757 -31.5757 -31.5743 -31.5742 -31.5734 -31.5731
    -8.1401  -8.1399  -8.1183  -8.1182   3.2005   3.2006   3.2352   3.2352
     7.0289   7.0289   7.0643   7.0646   7.0667   7.0670   7.1037   7.1038

          k = 0.0000-0.2500 0.2500 (  5153 PWs)   bands (ev):

   -64.8320 -64.8263 -64.8260 -64.8249 -31.6213 -31.6211 -31.6200 -31.6070
   -31.5945 -31.5939 -31.5928 -31.5873 -31.5864 -31.5861 -31.5754 -31.5685
    -8.9656  -8.0635  -8.0631  -7.8895   4.1616   4.1622   4.3293   5.0718
     5.8473   6.0530   6.0560   6.4856   6.4891   6.5842   7.1735   7.5069

          k =-0.2500 0.0023 0.2500 (  5153 PWs)   bands (ev):

   -64.8320 -64.8263 -64.8259 -64.8249 -31.6213 -31.6210 -31.6200 -31.6069
   -31.5946 -31.5937 -31.5929 -31.5873 -31.5865 -31.5861 -31.5754 -31.5685
    -8.9656  -8.0665  -8.0601  -7.8895   4.1566   4.1671   4.3293   5.0718
     5.8472   6.0466   6.0625   6.4831   6.4914   6.5841   7.1737   7.5068

          k =-0.2500-0.2477 0.2500 (  5146 PWs)   bands (ev):

   -64.8310 -64.8263 -64.8262 -64.8255 -31.6278 -31.6276 -31.6243 -31.6045
   -31.5917 -31.5914 -31.5911 -31.5858 -31.5838 -31.5837 -31.5737 -31.5703
    -8.8005  -8.0361  -8.0243  -8.0239   3.9827   4.0053   4.0059   5.0695
     5.8276   5.8407   5.8453   6.7012   6.7014   6.7530   7.3512   7.3919

          k =-0.2500 0.5023 0.2500 (  5137 PWs)   bands (ev):

   -64.8287 -64.8283 -64.8263 -64.8257 -31.6303 -31.6262 -31.6237 -31.6184
   -31.5933 -31.5929 -31.5820 -31.5800 -31.5792 -31.5786 -31.5768 -31.5751
    -8.4059  -8.3911  -8.0045  -7.9887   3.8056   3.8381   4.1862   4.2105
     5.8231   5.8380   6.7178   6.7648   6.8522   6.8844   7.0106   7.0253

          k =-0.2500 0.2523 0.2500 (  5156 PWs)   bands (ev):

   -64.8309 -64.8264 -64.8263 -64.8255 -31.6261 -31.6231 -31.6230 -31.6074
   -31.5963 -31.5960 -31.5952 -31.5835 -31.5835 -31.5818 -31.5722 -31.5694
    -8.7910  -8.0363  -8.0358  -8.0244   3.9958   3.9965   4.0189   5.1099
     5.8474   5.8521   5.8652   6.6598   6.7107   6.7109   7.3203   7.3603

          k = 0.5000-0.2547 0.2500 (  5137 PWs)   bands (ev):

   -64.8287 -64.8283 -64.8263 -64.8257 -31.6303 -31.6262 -31.6237 -31.6184
   -31.5933 -31.5929 -31.5820 -31.5800 -31.5792 -31.5786 -31.5767 -31.5751
    -8.4059  -8.3911  -8.0045  -7.9887   3.8056   3.8380   4.1862   4.2106
     5.8231   5.8380   6.7177   6.7646   6.8523   6.8845   7.0106   7.0253

     highest occupied level (ev):     7.7067

!    total energy              =    -608.39258696 Ry
     Harris-Foulkes estimate   =    -608.39258696 Ry
     estimated scf accuracy    <          2.2E-10 Ry

     The total energy is the sum of the following terms:

     one-electron contribution =    -303.55029217 Ry
     hartree contribution      =     168.06499259 Ry
     xc contribution           =     -97.84638986 Ry
     ewald contribution        =    -375.06089752 Ry

     convergence has been achieved in   5 iterations

     Forces acting on atoms (cartesian axes, Ry/au):

     atom    1 type  1   force =    -0.00109945   -0.00001754   -0.00000105
     atom    2 type  1   force =     0.00120749    0.00001506    0.00000140
     atom    3 type  1   force =    -0.00125831   -0.00001603    0.00000143
     atom    4 type  1   force =     0.00118778    0.00001540   -0.00000152
     atom    5 type  2   force =    -0.00116903   -0.00000574   -0.00000064
     atom    6 type  2   force =     0.00112579    0.00000751   -0.00000066
     atom    7 type  2   force =    -0.00112429   -0.00000545    0.00000057
     atom    8 type  2   force =     0.00113001    0.00000679    0.00000048

     Total force =     0.003292     Total SCF correction =     0.000036


     Computing stress (Cartesian axis) and pressure

          total   stress  (Ry/bohr**3)                   (kbar)     P=  -68.06
  -0.00046349  -0.00008926  -0.00000000        -68.18    -13.13     -0.00
  -0.00008926  -0.00046163  -0.00000000        -13.13    -67.91     -0.00
  -0.00000000  -0.00000000  -0.00046291         -0.00     -0.00    -68.10


     number of scf cycles    =   4
     number of bfgs steps    =   3

     energy   old            =    -608.3925363448 Ry
     energy   new            =    -608.3925869637 Ry

     CASE: energy  _new < energy  _old

     new trust radius        =       0.0070815160 bohr
     new conv_thr            =       0.0000000005 Ry


ATOMIC_POSITIONS (alat)
Mg      -0.001854745   0.000041252  -0.000006589
Mg       0.001999807   0.499954361   0.500006755
Mg       0.498043715   0.000042660   0.500006646
Mg       0.501798464   0.499960419  -0.000006913
O        0.497823110   0.000022919  -0.000007102
O        0.002213000   0.499977441  -0.000007059
O       -0.002143567   0.000022557   0.500007114
O        0.502120216   0.499978392   0.500007148



     Writing output data file diamond..70.4.save
     NEW-OLD atomic charge density approx. for the potential

     Check: negative/imaginary core charge=   -0.000007    0.000000

     total cpu time spent up to now is       34.6 secs

     per-process dynamical memory:    53.0 Mb

     Self-consistent Calculation

     iteration #  1     ecut=    70.00 Ry     beta=0.70
     Davidson diagonalization with overlap
     ethr =  1.00E-06,  avg # of iterations =  3.1

     Threshold (ethr) on eigenvalues was too large:
     Diagonalizing with lowered threshold

     Davidson diagonalization with overlap
     ethr =  3.11E-08,  avg # of iterations =  1.5

     total cpu time spent up to now is       37.5 secs

     total energy              =    -608.39262171 Ry
     Harris-Foulkes estimate   =    -608.39263262 Ry
     estimated scf accuracy    <       0.00001970 Ry

     iteration #  2     ecut=    70.00 Ry     beta=0.70
     Davidson diagonalization with overlap
     ethr =  3.08E-08,  avg # of iterations =  2.0

[...]
Mg      -0.002124791   0.000007300  -0.000004620
Mg       0.002311010   0.499991681   0.500005039
Mg       0.497621816   0.000006618   0.500004961
Mg       0.502237642   0.499993245  -0.000005215
O        0.497653268   0.000008782  -0.000005047
O        0.002324552   0.499991978  -0.000005015
O       -0.002293131   0.000009034   0.500004998
O        0.502269633   0.499991362   0.500004899



     Writing output data file diamond..70.4.save
     NEW-OLD atomic charge density approx. for the potential

     Check: negative/imaginary core charge=   -0.000007    0.000000

     total cpu time spent up to now is       67.4 secs

     per-process dynamical memory:    53.0 Mb

     Self-consistent Calculation

     iteration #  1     ecut=    70.00 Ry     beta=0.70
     Davidson diagonalization with overlap
     ethr =  1.00E-06,  avg # of iterations =  2.0

     Threshold (ethr) on eigenvalues was too large:
     Diagonalizing with lowered threshold

     Davidson diagonalization with overlap
     ethr =  5.22E-11,  avg # of iterations =  3.1

     total cpu time spent up to now is       70.4 secs

     total energy              =    -608.39262789 Ry
     Harris-Foulkes estimate   =    -608.39262793 Ry
     estimated scf accuracy    <       0.00000007 Ry

     iteration #  2     ecut=    70.00 Ry     beta=0.70
     Davidson diagonalization with overlap
     ethr =  1.12E-10,  avg # of iterations =  2.0

     total cpu time spent up to now is       71.6 secs

     total energy              =    -608.39262790 Ry
     Harris-Foulkes estimate   =    -608.39262790 Ry
     estimated scf accuracy    <          1.8E-09 Ry

     iteration #  3     ecut=    70.00 Ry     beta=0.70
     Davidson diagonalization with overlap
     ethr =  2.80E-12,  avg # of iterations =  2.0

     total cpu time spent up to now is       72.7 secs

     total energy              =    -608.39262790 Ry
     Harris-Foulkes estimate   =    -608.39262790 Ry
     estimated scf accuracy    <          1.0E-10 Ry

     iteration #  4     ecut=    70.00 Ry     beta=0.70
     Davidson diagonalization with overlap
     ethr =  1.59E-13,  avg # of iterations =  2.8

     total cpu time spent up to now is       74.0 secs

     End of self-consistent calculation

          k = 0.0000 0.0000 0.0000 (  5149 PWs)   bands (ev):

   -64.8345 -64.8251 -64.8250 -64.8243 -31.6309 -31.6309 -31.6308 -31.5948
   -31.5934 -31.5934 -31.5926 -31.5926 -31.5912 -31.5667 -31.5651 -31.5636
    -9.3643  -7.9134  -7.9130  -7.9129   3.7584   3.7591   3.7591   6.3268
     6.3804   6.3804   6.3806   6.3809   6.4350   7.6392   7.6725   7.7067

          k = 0.0000 0.0000 0.2500 (  5153 PWs)   bands (ev):

   -64.8331 -64.8263 -64.8250 -64.8245 -31.6252 -31.6251 -31.6203 -31.5976
   -31.5975 -31.5940 -31.5940 -31.5907 -31.5865 -31.5781 -31.5733 -31.5688
    -9.1559  -8.1283  -7.8846  -7.8845   4.0491   4.0491   4.0957   5.8585
     5.8585   6.1711   6.1715   6.4919   6.5958   6.6591   7.4134   7.4892

          k = 0.0000 0.0000-0.5000 (  5130 PWs)   bands (ev):

   -64.8299 -64.8295 -64.8250 -64.8245 -31.6143 -31.6140 -31.6070 -31.6067
   -31.6018 -31.6017 -31.5910 -31.5910 -31.5827 -31.5825 -31.5781 -31.5779
    -8.6456  -8.6456  -7.8558  -7.8557   4.8415   4.8415   4.8540   4.8540
     5.1229   5.1231   5.9740   5.9744   6.9236   6.9236   7.0148   7.0149

          k = 0.0000 0.2500 0.0000 (  5167 PWs)   bands (ev):

   -64.8331 -64.8263 -64.8250 -64.8245 -31.6250 -31.6247 -31.6214 -31.5994
   -31.5983 -31.5931 -31.5929 -31.5890 -31.5886 -31.5797 -31.5715 -31.5705
    -9.1558  -8.1279  -7.8849  -7.8846   4.0487   4.0490   4.0957   5.8523
     5.8586   6.1710   6.1775   6.5433   6.5434   6.6584   7.4505   7.4519

          k = 0.0000 0.2500 0.2500 (  5153 PWs)   bands (ev):

   -64.8319 -64.8262 -64.8259 -64.8249 -31.6212 -31.6210 -31.6199 -31.6069
   -31.5944 -31.5938 -31.5928 -31.5873 -31.5864 -31.5860 -31.5753 -31.5684
    -8.9656  -8.0635  -8.0632  -7.8896   4.1615   4.1621   4.3293   5.0718
     5.8472   6.0530   6.0560   6.4855   6.4890   6.5841   7.1735   7.5068

          k = 0.0000 0.2500-0.5000 (  5148 PWs)   bands (ev):

   -64.8292 -64.8288 -64.8257 -64.8252 -31.6180 -31.6178 -31.6100 -31.6100
   -31.6063 -31.6061 -31.5852 -31.5849 -31.5836 -31.5836 -31.5750 -31.5748
    -8.5092  -8.5092  -7.9463  -7.9462   4.4189   4.4190   4.7512   4.7514
     5.0967   5.0968   6.5484   6.5486   6.5753   6.5753   7.0962   7.0963

          k = 0.0000-0.5000 0.0000 (  5128 PWs)   bands (ev):

   -64.8299 -64.8295 -64.8250 -64.8245 -31.6108 -31.6105 -31.6099 -31.6096
   -31.6020 -31.6020 -31.5918 -31.5917 -31.5804 -31.5802 -31.5798 -31.5796
    -8.6454  -8.6453  -7.8560  -7.8559   4.8477   4.8478   4.8481   4.8482
     5.1233   5.1236   5.9740   5.9743   6.9689   6.9689   6.9690   6.9691

          k = 0.0000-0.5000 0.2500 (  5154 PWs)   bands (ev):

   -64.8292 -64.8288 -64.8257 -64.8252 -31.6175 -31.6174 -31.6104 -31.6103
   -31.6068 -31.6065 -31.5853 -31.5850 -31.5836 -31.5836 -31.5751 -31.5750
    -8.5091  -8.5090  -7.9464  -7.9464   4.4184   4.4185   4.7515   4.7517
     5.0972   5.0973   6.5484   6.5486   6.5763   6.5763   7.0946   7.0946

          k = 0.0000-0.5000-0.5000 (  5180 PWs)   bands (ev):

   -64.8275 -64.8274 -64.8274 -64.8265 -31.6192 -31.6190 -31.6189 -31.6189
   -31.5967 -31.5965 -31.5965 -31.5962 -31.5759 -31.5757 -31.5756 -31.5756
    -8.2049  -8.2048  -8.2048  -8.2048   4.2935   4.2936   4.2936   4.2938
     5.7685   5.7685   5.7688   5.7688   7.0638   7.0640   7.0640   7.0641

          k = 0.2500-0.0023 0.0000 (  5167 PWs)   bands (ev):

   -64.8331 -64.8263 -64.8250 -64.8245 -31.6250 -31.6247 -31.6213 -31.5995
   -31.5983 -31.5931 -31.5929 -31.5890 -31.5886 -31.5797 -31.5715 -31.5705
    -9.1558  -8.1279  -7.8849  -7.8846   4.0487   4.0490   4.0957   5.8523
     5.8586   6.1710   6.1775   6.5433   6.5434   6.6584   7.4505   7.4519

          k = 0.2500-0.0023 0.2500 (  5153 PWs)   bands (ev):

   -64.8319 -64.8263 -64.8259 -64.8249 -31.6212 -31.6210 -31.6199 -31.6069
   -31.5944 -31.5938 -31.5928 -31.5873 -31.5864 -31.5860 -31.5753 -31.5684
    -8.9656  -8.0635  -8.0632  -7.8896   4.1615   4.1621   4.3293   5.0718
     5.8472   6.0530   6.0560   6.4855   6.4890   6.5841   7.1735   7.5068

          k = 0.2500-0.0023-0.5000 (  5148 PWs)   bands (ev):

   -64.8292 -64.8288 -64.8257 -64.8252 -31.6180 -31.6178 -31.6100 -31.6100
   -31.6063 -31.6061 -31.5852 -31.5849 -31.5836 -31.5836 -31.5750 -31.5748
    -8.5092  -8.5092  -7.9463  -7.9462   4.4189   4.4190   4.7512   4.7514
     5.0967   5.0968   6.5484   6.5486   6.5753   6.5753   7.0962   7.0963

          k = 0.2500 0.2477 0.0000 (  5151 PWs)   bands (ev):

   -64.8320 -64.8262 -64.8258 -64.8249 -31.6233 -31.6231 -31.6197 -31.6047
   -31.5940 -31.5940 -31.5897 -31.5887 -31.5846 -31.5844 -31.5755 -31.5712
    -8.9703  -8.0574  -8.0573  -7.8955   4.1597   4.1598   4.3240   5.0430
     5.8315   6.0635   6.0639   6.4753   6.4754   6.6333   7.1645   7.5393

          k = 0.2500 0.2477 0.2500 (  5146 PWs)   bands (ev):

   -64.8310 -64.8263 -64.8262 -64.8255 -31.6277 -31.6275 -31.6242 -31.6044
   -31.5914 -31.5914 -31.5912 -31.5858 -31.5837 -31.5836 -31.5737 -31.5703
    -8.8005  -8.0357  -8.0244  -8.0243   3.9832   4.0052   4.0053   5.0694
     5.8321   5.8406   5.8407   6.7011   6.7013   6.7529   7.3512   7.3918

          k = 0.2500 0.2477-0.5000 (  5128 PWs)   bands (ev):

   -64.8287 -64.8283 -64.8262 -64.8256 -31.6304 -31.6303 -31.6198 -31.6197
   -31.5895 -31.5892 -31.5816 -31.5815 -31.5798 -31.5796 -31.5763 -31.5762
    -8.4037  -8.4036  -7.9909  -7.9908   3.8313   3.8314   4.1766   4.1767
     5.8185   5.8185   6.7361   6.7363   6.8636   6.8638   7.0584   7.0584

          k = 0.2500-0.5023 0.0000 (  5153 PWs)   bands (ev):

   -64.8292 -64.8287 -64.8258 -64.8252 -31.6207 -31.6143 -31.6134 -31.6070
   -31.6069 -31.6066 -31.5860 -31.5850 -31.5847 -31.5813 -31.5773 -31.5731
    -8.5165  -8.5016  -7.9546  -7.9382   4.4084   4.4289   4.7473   4.7558
     5.0883   5.1051   6.5163   6.5646   6.5812   6.5880   7.0705   7.1193

          k = 0.2500-0.5023 0.2500 (  5137 PWs)   bands (ev):

   -64.8287 -64.8282 -64.8263 -64.8257 -31.6302 -31.6261 -31.6237 -31.6184
   -31.5933 -31.5928 -31.5819 -31.5799 -31.5791 -31.5785 -31.5767 -31.5751
    -8.4060  -8.3912  -8.0046  -7.9887   3.8056   3.8380   4.1862   4.2105
     5.8231   5.8380   6.7177   6.7646   6.8521   6.8844   7.0106   7.0252

          k = 0.2500-0.5023-0.5000 (  5144 PWs)   bands (ev):

   -64.8276 -64.8274 -64.8273 -64.8265 -31.6339 -31.6337 -31.6296 -31.6295
   -31.5845 -31.5843 -31.5820 -31.5819 -31.5754 -31.5752 -31.5746 -31.5745
    -8.1749  -8.1748  -8.1598  -8.1597   3.6235   3.6235   3.6579   3.6580
     6.5002   6.5002   6.5496   6.5496   7.0576   7.0578   7.0724   7.0726

          k = 0.2500-0.2523 0.0000 (  5159 PWs)   bands (ev):

   -64.8318 -64.8263 -64.8259 -64.8248 -31.6195 -31.6188 -31.6186 -31.6105
   -31.5947 -31.5943 -31.5942 -31.5882 -31.5880 -31.5856 -31.5757 -31.5667
    -8.9609  -8.0691  -8.0690  -7.8842   4.1642   4.1643   4.3340   5.1005
     5.8639   6.0483   6.0486   6.4952   6.4953   6.5360   7.1825   7.4728

          k = 0.2500-0.2523 0.2500 (  5156 PWs)   bands (ev):

   -64.8308 -64.8263 -64.8262 -64.8255 -31.6261 -31.6230 -31.6229 -31.6073
   -31.5961 -31.5959 -31.5953 -31.5834 -31.5834 -31.5817 -31.5721 -31.5693
    -8.7910  -8.0359  -8.0358  -8.0250   3.9964   3.9965   4.0183   5.1098
     5.8521   5.8522   5.8604   6.6597   6.7106   6.7108   7.3202   7.3602

          k = 0.2500-0.2523-0.5000 (  5152 PWs)   bands (ev):

   -64.8286 -64.8282 -64.8263 -64.8257 -31.6259 -31.6257 -31.6227 -31.6226
   -31.5965 -31.5963 -31.5797 -31.5796 -31.5791 -31.5790 -31.5760 -31.5757
    -8.3938  -8.3937  -8.0023  -8.0022   3.8124   3.8124   4.2199   4.2200
     5.8434   5.8435   6.7452   6.7454   6.8745   6.8746   6.9751   6.9751

          k =-0.5000 0.0046 0.0000 (  5128 PWs)   bands (ev):

   -64.8299 -64.8295 -64.8250 -64.8245 -31.6107 -31.6106 -31.6099 -31.6097
   -31.6020 -31.6019 -31.5918 -31.5917 -31.5804 -31.5802 -31.5798 -31.5796
    -8.6458  -8.6450  -7.8560  -7.8559   4.8470   4.8474   4.8484   4.8489
     5.1232   5.1237   5.9740   5.9743   6.9685   6.9686   6.9693   6.9694

          k =-0.5000 0.0046 0.2500 (  5154 PWs)   bands (ev):

   -64.8292 -64.8288 -64.8257 -64.8252 -31.6175 -31.6174 -31.6104 -31.6103
   -31.6068 -31.6066 -31.5852 -31.5851 -31.5836 -31.5836 -31.5751 -31.5750
    -8.5094  -8.5087  -7.9465  -7.9463   4.4181   4.4188   4.7514   4.7519
     5.0966   5.0980   6.5482   6.5487   6.5758   6.5768   7.0944   7.0947

          k =-0.5000 0.0046-0.5000 (  5180 PWs)   bands (ev):

   -64.8275 -64.8274 -64.8274 -64.8265 -31.6192 -31.6191 -31.6189 -31.6189
   -31.5967 -31.5966 -31.5965 -31.5963 -31.5759 -31.5757 -31.5756 -31.5755
    -8.2051  -8.2050  -8.2046  -8.2046   4.2935   4.2936   4.2936   4.2938
     5.7679   5.7681   5.7692   5.7693   7.0638   7.0638   7.0640   7.0643

          k =-0.5000 0.2547 0.0000 (  5153 PWs)   bands (ev):

   -64.8292 -64.8288 -64.8257 -64.8252 -31.6207 -31.6143 -31.6134 -31.6070
   -31.6069 -31.6066 -31.5860 -31.5850 -31.5848 -31.5813 -31.5773 -31.5731
    -8.5165  -8.5016  -7.9546  -7.9382   4.4084   4.4289   4.7473   4.7559
     5.0882   5.1051   6.5163   6.5646   6.5812   6.5880   7.0705   7.1193

          k =-0.5000 0.2547 0.2500 (  5137 PWs)   bands (ev):

   -64.8287 -64.8283 -64.8262 -64.8257 -31.6302 -31.6261 -31.6237 -31.6184
   -31.5933 -31.5928 -31.5819 -31.5799 -31.5791 -31.5785 -31.5767 -31.5751
    -8.4060  -8.3911  -8.0046  -7.9887   3.8056   3.8380   4.1862   4.2105
     5.8231   5.8380   6.7177   6.7646   6.8521   6.8844   7.0106   7.0252

          k =-0.5000 0.2547-0.5000 (  5144 PWs)   bands (ev):

   -64.8276 -64.8274 -64.8273 -64.8265 -31.6339 -31.6337 -31.6296 -31.6295
   -31.5845 -31.5843 -31.5821 -31.5819 -31.5754 -31.5752 -31.5746 -31.5745
    -8.1749  -8.1748  -8.1598  -8.1597   3.6235   3.6235   3.6579   3.6580
     6.5002   6.5002   6.5496   6.5496   7.0576   7.0578   7.0724   7.0726

          k =-0.5000-0.4954 0.0000 (  5188 PWs)   bands (ev):

   -64.8276 -64.8275 -64.8273 -64.8265 -31.6228 -31.6225 -31.6158 -31.6156
   -31.5970 -31.5969 -31.5968 -31.5966 -31.5775 -31.5773 -31.5741 -31.5739
    -8.2159  -8.2159  -8.1937  -8.1937   4.2870   4.2871   4.2998   4.2999
     5.7541   5.7544   5.7815   5.7818   7.0269   7.0269   7.1021   7.1021

          k =-0.5000-0.4954 0.2500 (  5140 PWs)   bands (ev):

   -64.8276 -64.8275 -64.8273 -64.8265 -31.6339 -31.6337 -31.6295 -31.6293
   -31.5839 -31.5838 -31.5818 -31.5818 -31.5776 -31.5774 -31.5730 -31.5727
    -8.1783  -8.1782  -8.1564  -8.1563   3.6265   3.6266   3.6546   3.6547
     6.5207   6.5210   6.5287   6.5290   7.0280   7.0280   7.1027   7.1027

          k =-0.5000-0.4954-0.5000 (  5136 PWs)   bands (ev):

   -64.8276 -64.8274 -64.8273 -64.8265 -31.6405 -31.6403 -31.6387 -31.6386
   -31.5769 -31.5766 -31.5757 -31.5756 -31.5742 -31.5742 -31.5733 -31.5730
    -8.1401  -8.1400  -8.1184  -8.1183   3.2005   3.2006   3.2351   3.2352
     7.0288   7.0288   7.0643   7.0645   7.0667   7.0669   7.1036   7.1036

          k = 0.0000-0.2500 0.2500 (  5153 PWs)   bands (ev):

   -64.8319 -64.8262 -64.8259 -64.8249 -31.6212 -31.6210 -31.6199 -31.6069
   -31.5944 -31.5938 -31.5928 -31.5873 -31.5864 -31.5860 -31.5753 -31.5684
    -8.9656  -8.0635  -8.0632  -7.8896   4.1615   4.1621   4.3293   5.0718
     5.8472   6.0530   6.0560   6.4855   6.4890   6.5841   7.1735   7.5068

          k =-0.2500 0.0023 0.2500 (  5153 PWs)   bands (ev):

   -64.8319 -64.8263 -64.8259 -64.8249 -31.6212 -31.6210 -31.6199 -31.6069
   -31.5944 -31.5938 -31.5928 -31.5873 -31.5864 -31.5860 -31.5753 -31.5684
    -8.9656  -8.0635  -8.0632  -7.8896   4.1615   4.1621   4.3293   5.0718
     5.8472   6.0530   6.0560   6.4855   6.4890   6.5841   7.1735   7.5068

          k =-0.2500-0.2477 0.2500 (  5146 PWs)   bands (ev):

   -64.8310 -64.8263 -64.8262 -64.8255 -31.6277 -31.6275 -31.6242 -31.6044
   -31.5914 -31.5914 -31.5912 -31.5858 -31.5837 -31.5836 -31.5737 -31.5703
    -8.8005  -8.0357  -8.0244  -8.0243   3.9832   4.0052   4.0053   5.0694
     5.8321   5.8406   5.8407   6.7011   6.7013   6.7529   7.3512   7.3918

          k =-0.2500 0.5023 0.2500 (  5137 PWs)   bands (ev):

   -64.8287 -64.8282 -64.8263 -64.8257 -31.6302 -31.6261 -31.6237 -31.6184
   -31.5933 -31.5928 -31.5819 -31.5799 -31.5791 -31.5785 -31.5767 -31.5751
    -8.4060  -8.3912  -8.0046  -7.9887   3.8056   3.8380   4.1862   4.2105
     5.8231   5.8380   6.7177   6.7646   6.8521   6.8844   7.0106   7.0252

          k =-0.2500 0.2523 0.2500 (  5156 PWs)   bands (ev):

   -64.8308 -64.8263 -64.8262 -64.8255 -31.6261 -31.6230 -31.6229 -31.6073
   -31.5961 -31.5959 -31.5953 -31.5834 -31.5834 -31.5817 -31.5721 -31.5693
    -8.7910  -8.0359  -8.0358  -8.0250   3.9964   3.9965   4.0183   5.1098
     5.8521   5.8522   5.8604   6.6597   6.7106   6.7108   7.3202   7.3602

          k = 0.5000-0.2547 0.2500 (  5137 PWs)   bands (ev):

   -64.8287 -64.8283 -64.8262 -64.8257 -31.6302 -31.6261 -31.6237 -31.6184
   -31.5933 -31.5928 -31.5819 -31.5799 -31.5791 -31.5785 -31.5767 -31.5751
    -8.4060  -8.3911  -8.0046  -7.9887   3.8056   3.8380   4.1862   4.2105
     5.8231   5.8380   6.7177   6.7646   6.8521   6.8844   7.0106   7.0252

     highest occupied level (ev):     7.7067

!    total energy              =    -608.39262790 Ry
     Harris-Foulkes estimate   =    -608.39262790 Ry
     estimated scf accuracy    <          3.7E-11 Ry

     The total energy is the sum of the following terms:

     one-electron contribution =    -303.55085979 Ry
     hartree contribution      =     168.06530240 Ry
     xc contribution           =     -97.84641090 Ry
     ewald contribution        =    -375.06065960 Ry

     convergence has been achieved in   4 iterations

     Forces acting on atoms (cartesian axes, Ry/au):

     atom    1 type  1   force =     0.00002628    0.00000955   -0.00000046
     atom    2 type  1   force =    -0.00002143   -0.00000602    0.00000037
     atom    3 type  1   force =    -0.00000998    0.00000734    0.00000039
     atom    4 type  1   force =     0.00001279   -0.00000806   -0.00000038
     atom    5 type  2   force =     0.00000997    0.00000442   -0.00000097
     atom    6 type  2   force =     0.00001583   -0.00000569   -0.00000090
     atom    7 type  2   force =    -0.00001372    0.00000508    0.00000096
     atom    8 type  2   force =    -0.00001974   -0.00000661    0.00000099

     Total force =     0.000052     Total SCF correction =     0.000017
     SCF correction compared to forces is large: reduce conv_thr to get better values


     Computing stress (Cartesian axis) and pressure

          total   stress  (Ry/bohr**3)                   (kbar)     P=  -68.07
  -0.00046347  -0.00008926  -0.00000000        -68.18    -13.13     -0.00
  -0.00008926  -0.00046182   0.00000000        -13.13    -67.94      0.00
  -0.00000000   0.00000000  -0.00046281         -0.00      0.00    -68.08


     bfgs converged in   9 scf cycles and   8 bfgs steps
     (criteria: energy <  1.0E-05 Ry, force <  1.0E-04 Ry/Bohr)

     End of BFGS Geometry Optimization

     Final energy   =    -608.3926278993 Ry
Begin final coordinates

ATOMIC_POSITIONS (alat)
Mg      -0.002124791   0.000007300  -0.000004620
Mg       0.002311010   0.499991681   0.500005039
Mg       0.497621816   0.000006618   0.500004961
Mg       0.502237642   0.499993245  -0.000005215
O        0.497653268   0.000008782  -0.000005047
O        0.002324552   0.499991978  -0.000005015
O       -0.002293131   0.000009034   0.500004998
O        0.502269633   0.499991362   0.500004899
End final coordinates



     Writing output data file diamond..70.4.save
 
     init_run     :      0.49s CPU      0.51s WALL (       1 calls)
     electrons    :     66.18s CPU     68.56s WALL (       9 calls)
     update_pot   :      0.70s CPU      0.72s WALL (       8 calls)
     forces       :      1.13s CPU      1.14s WALL (       9 calls)
     stress       :      2.80s CPU      2.82s WALL (       9 calls)

     Called by init_run:
     wfcinit      :      0.40s CPU      0.42s WALL (       1 calls)
     potinit      :      0.04s CPU      0.04s WALL (       1 calls)

     Called by electrons:
     c_bands      :     58.30s CPU     60.46s WALL (      53 calls)
     sum_band     :      7.63s CPU      7.82s WALL (      53 calls)
     v_of_rho     :      0.22s CPU      0.22s WALL (      54 calls)
     mix_rho      :      0.02s CPU      0.03s WALL (      53 calls)

     Called by c_bands:
     init_us_2    :      0.82s CPU      0.89s WALL (    4500 calls)
     cegterg      :     54.74s CPU     56.70s WALL (    1908 calls)

     Called by sum_band:

     Called by *egterg:
     h_psi        :     41.00s CPU     42.07s WALL (    6524 calls)
     g_psi        :      0.15s CPU      0.16s WALL (    4580 calls)
     cdiaghg      :      8.07s CPU      8.09s WALL (    5912 calls)

     Called by h_psi:
     h_psi:pot    :     40.78s CPU     41.76s WALL (    6524 calls)
     h_psi:calbec :      1.70s CPU      1.70s WALL (    6524 calls)
     vloc_psi     :     37.67s CPU     38.62s WALL (    6524 calls)
     add_vuspsi   :      1.39s CPU      1.41s WALL (    6524 calls)

     General routines
     calbec       :      2.21s CPU      2.20s WALL (    8144 calls)
     fft          :      0.24s CPU      0.24s WALL (     834 calls)
     fftw         :     42.90s CPU     42.80s WALL (  387010 calls)
     davcio       :      0.00s CPU      0.00s WALL (      36 calls)
 
     Parallel routines
     fft_scatter  :      8.29s CPU      8.81s WALL (  387844 calls)
 
     PWSCF        :  1m11.83s CPU     1m14.52s WALL

 
   This run was terminated on:  18:45: 9  22Apr2018            

=------------------------------------------------------------------------------=
   JOB DONE.
=------------------------------------------------------------------------------=
