
     Program PWSCF v.6.1 (svn rev. 13369) starts on 22Apr2018 at 18:38:42 

     This program is part of the open-source Quantum ESPRESSO suite
     for quantum simulation of materials; please cite
         "P. Giannozzi et al., J. Phys.:Condens. Matter 21 395502 (2009);
          URL http://www.quantum-espresso.org", 
     in publications or presentations arising from this work. More details at
     http://www.quantum-espresso.org/quote

     Parallel version (MPI), running on     8 processors
     R & G space division:  proc/nbgrp/npool/nimage =       8
     Waiting for input...
     Reading input from standard input
Warning: card       &CELL ignored
Warning: card          CELL_DYNAMICS = 'BFGS' ignored
Warning: card          PRESS = 0.0D0 ignored
Warning: card          PRESS_CONV_THR = 0.01D0 ignored
Warning: card       / ignored

     Current dimensions of program PWSCF are:
     Max number of different atomic species (ntypx) = 10
     Max number of k-points (npk) =  40000
     Max angular momentum in pseudopotentials (lmaxx) =  3

     Subspace diagonalization in iterative solution of the eigenvalue problem:
     a serial algorithm will be used

     Found symmetry operation: I + (  0.0000 -0.5000 -0.5000)
     This is a supercell, fractional translations are disabled
 
     Parallelization info
     --------------------
     sticks:   dense  smooth     PW     G-vecs:    dense   smooth      PW
     Min         181     181     52                 5167     5167     824
     Max         182     182     53                 5170     5170     829
     Sum        1449    1449    421                41347    41347    6619
 


     bravais-lattice index     =           12
     lattice parameter (alat)  =       8.0448  a.u.
     unit-cell volume          =     520.6402 (a.u.)^3
     number of atoms/cell      =            8
     number of atomic types    =            2
     number of electrons       =        64.00
     number of Kohn-Sham states=           32
     kinetic-energy cutoff     =      70.0000  Ry
     charge density cutoff     =     280.0000  Ry
     convergence threshold     =      1.0E-08
     mixing beta               =       0.7000
     number of iterations used =            8  plain     mixing
     Exchange-correlation      = PBE ( 1  4  3  4 0 0)
     nstep                     =           50


     celldm(1)=   8.044750  celldm(2)=   1.000000  celldm(3)=   1.000000
     celldm(4)=   0.000000  celldm(5)=   0.000000  celldm(6)=   0.000000

     crystal axes: (cart. coord. in units of alat)
               a(1) = (   1.000000   0.000000   0.000000 )  
               a(2) = (   0.000000   1.000000   0.000000 )  
               a(3) = (   0.000000   0.000000   1.000000 )  

     reciprocal axes: (cart. coord. in units 2 pi/alat)
               b(1) = (  1.000000  0.000000  0.000000 )  
               b(2) = (  0.000000  1.000000  0.000000 )  
               b(3) = (  0.000000  0.000000  1.000000 )  


     PseudoPot. # 1 for Mg read from file:
     ../pseudo/Mg.pbe.UPF
     MD5 check sum: 4c04d8c6e0476e83eaecaf72fa8acc4d
     Pseudo is Norm-conserving, Zval = 10.0
     Generated using ONCVPSP code by D. R. Hamann
     Using radial grid of 1510 points,  4 beta functions with: 
                l(1) =   0
                l(2) =   0
                l(3) =   1
                l(4) =   1

     PseudoPot. # 2 for O  read from file:
     ../pseudo/O.pbe.UPF
     MD5 check sum: 3e3f909f7470e8921608ab6b1f57bbae
     Pseudo is Norm-conserving + core correction, Zval =  6.0
     Generated using ONCVPSP code by D. R. Hamann
     Using radial grid of  936 points,  5 beta functions with: 
                l(1) =   0
                l(2) =   0
                l(3) =   1
                l(4) =   1
                l(5) =   2

     atomic species   valence    mass     pseudopotential
        Mg            10.00    24.30500     Mg( 1.00)
        O              6.00    15.99940     O ( 1.00)

     48 Sym. Ops., with inversion, found



   Cartesian axes

     site n.     atom                  positions (alat units)
         1           Mg  tau(   1) = (   0.0000000   0.0000000   0.0000000  )
         2           Mg  tau(   2) = (   0.0000000   0.5000000   0.5000000  )
         3           Mg  tau(   3) = (   0.5000000   0.0000000   0.5000000  )
         4           Mg  tau(   4) = (   0.5000000   0.5000000   0.0000000  )
         5           O   tau(   5) = (   0.5000000   0.0000000   0.0000000  )
         6           O   tau(   6) = (   0.0000000   0.5000000   0.0000000  )
         7           O   tau(   7) = (   0.0000000   0.0000000   0.5000000  )
         8           O   tau(   8) = (   0.5000000   0.5000000   0.5000000  )

     number of k points=    10
                       cart. coord. in units 2pi/alat
        k(    1) = (   0.0000000   0.0000000   0.0000000), wk =   0.0312500
        k(    2) = (   0.0000000   0.0000000   0.2500000), wk =   0.1875000
        k(    3) = (   0.0000000   0.0000000  -0.5000000), wk =   0.0937500
        k(    4) = (   0.0000000   0.2500000   0.2500000), wk =   0.3750000
        k(    5) = (   0.0000000   0.2500000  -0.5000000), wk =   0.3750000
        k(    6) = (   0.0000000  -0.5000000  -0.5000000), wk =   0.0937500
        k(    7) = (   0.2500000   0.2500000   0.2500000), wk =   0.2500000
        k(    8) = (   0.2500000   0.2500000  -0.5000000), wk =   0.3750000
        k(    9) = (   0.2500000  -0.5000000  -0.5000000), wk =   0.1875000
        k(   10) = (  -0.5000000  -0.5000000  -0.5000000), wk =   0.0312500

     Dense  grid:    41347 G-vectors     FFT dimensions: (  45,  45,  45)

     Estimated max dynamical RAM per process >       9.06MB

     Estimated total allocated dynamical RAM >      72.47MB

     Check: negative/imaginary core charge=   -0.000007    0.000000

     Initial potential from superposition of free atoms

     starting charge   63.99678, renormalised to   64.00000
     Starting wfc are   36 randomized atomic wfcs

     total cpu time spent up to now is        0.4 secs

     per-process dynamical memory:    44.9 Mb

     Self-consistent Calculation

     iteration #  1     ecut=    70.00 Ry     beta=0.70
     Davidson diagonalization with overlap
     ethr =  1.00E-02,  avg # of iterations =  2.0

     total cpu time spent up to now is        0.8 secs

     total energy              =    -607.71853298 Ry
     Harris-Foulkes estimate   =    -608.84377412 Ry
     estimated scf accuracy    <       1.56328504 Ry

     iteration #  2     ecut=    70.00 Ry     beta=0.70
     Davidson diagonalization with overlap
     ethr =  2.44E-03,  avg # of iterations =  2.8

     total cpu time spent up to now is        1.2 secs

     total energy              =    -608.10539454 Ry
     Harris-Foulkes estimate   =    -608.80484536 Ry
     estimated scf accuracy    <       1.45256688 Ry

     iteration #  3     ecut=    70.00 Ry     beta=0.70
     Davidson diagonalization with overlap
     ethr =  2.27E-03,  avg # of iterations =  2.0

     total cpu time spent up to now is        1.5 secs

     total energy              =    -608.39150401 Ry
     Harris-Foulkes estimate   =    -608.39215384 Ry
     estimated scf accuracy    <       0.00674914 Ry

     iteration #  4     ecut=    70.00 Ry     beta=0.70
     Davidson diagonalization with overlap
     ethr =  1.05E-05,  avg # of iterations =  2.0

     total cpu time spent up to now is        1.8 secs

     total energy              =    -608.39297978 Ry
     Harris-Foulkes estimate   =    -608.39302554 Ry
     estimated scf accuracy    <       0.00011360 Ry

     iteration #  5     ecut=    70.00 Ry     beta=0.70
     Davidson diagonalization with overlap
     ethr =  1.78E-07,  avg # of iterations =  1.3

     total cpu time spent up to now is        2.1 secs

     total energy              =    -608.39298710 Ry
     Harris-Foulkes estimate   =    -608.39298569 Ry
     estimated scf accuracy    <       0.00001068 Ry

     iteration #  6     ecut=    70.00 Ry     beta=0.70
     Davidson diagonalization with overlap
     ethr =  1.67E-08,  avg # of iterations =  2.0

     total cpu time spent up to now is        2.5 secs

     total energy              =    -608.39298869 Ry
     Harris-Foulkes estimate   =    -608.39298924 Ry
     estimated scf accuracy    <       0.00000136 Ry

     iteration #  7     ecut=    70.00 Ry     beta=0.70
     Davidson diagonalization with overlap
     ethr =  2.13E-09,  avg # of iterations =  2.4

     total cpu time spent up to now is        2.8 secs

     total energy              =    -608.39298874 Ry
     Harris-Foulkes estimate   =    -608.39298887 Ry
     estimated scf accuracy    <       0.00000033 Ry

     iteration #  8     ecut=    70.00 Ry     beta=0.70
     Davidson diagonalization with overlap
     ethr =  5.13E-10,  avg # of iterations =  2.0

     total cpu time spent up to now is        3.1 secs

     total energy              =    -608.39298874 Ry
     Harris-Foulkes estimate   =    -608.39298877 Ry
     estimated scf accuracy    <       0.00000005 Ry

     iteration #  9     ecut=    70.00 Ry     beta=0.70
     Davidson diagonalization with overlap
     ethr =  8.18E-11,  avg # of iterations =  2.0

     total cpu time spent up to now is        3.5 secs

     End of self-consistent calculation

          k = 0.0000 0.0000 0.0000 (  5137 PWs)   bands (ev):

   -64.8341 -64.8246 -64.8246 -64.8238 -31.6306 -31.6306 -31.6306 -31.5931
   -31.5931 -31.5931 -31.5931 -31.5931 -31.5931 -31.5630 -31.5630 -31.5630
    -9.3647  -7.9138  -7.9137  -7.9137   3.7581   3.7581   3.7581   6.3799
     6.3799   6.3799   6.3802   6.3802   6.3802   7.6725   7.6725   7.6725

          k = 0.0000 0.0000 0.2500 (  5161 PWs)   bands (ev):

   -64.8327 -64.8258 -64.8246 -64.8240 -31.6240 -31.6240 -31.6201 -31.5980
   -31.5980 -31.5936 -31.5936 -31.5887 -31.5887 -31.5779 -31.5711 -31.5711
    -9.1562  -8.1286  -7.8853  -7.8853   4.0484   4.0484   4.0955   5.8581
     5.8581   6.1705   6.1708   6.5427   6.5427   6.6589   7.4502   7.4502

          k = 0.0000 0.0000-0.5000 (  5110 PWs)   bands (ev):

   -64.8295 -64.8290 -64.8246 -64.8240 -31.6091 -31.6091 -31.6089 -31.6089
   -31.6016 -31.6016 -31.5904 -31.5903 -31.5803 -31.5803 -31.5800 -31.5800
    -8.6460  -8.6459  -7.8565  -7.8565   4.8479   4.8479   4.8479   4.8479
     5.1226   5.1229   5.9734   5.9737   6.9683   6.9683   6.9683   6.9683

          k = 0.0000 0.2500 0.2500 (  5169 PWs)   bands (ev):

   -64.8314 -64.8258 -64.8254 -64.8244 -31.6211 -31.6210 -31.6192 -31.6068
   -31.5941 -31.5941 -31.5926 -31.5875 -31.5867 -31.5866 -31.5750 -31.5681
    -8.9661  -8.0639  -8.0639  -7.8903   4.1611   4.1611   4.3286   5.0713
     5.8470   6.0551   6.0554   6.4846   6.4846   6.5834   7.1733   7.5055

          k = 0.0000 0.2500-0.5000 (  5142 PWs)   bands (ev):

   -64.8287 -64.8283 -64.8253 -64.8247 -31.6169 -31.6168 -31.6096 -31.6096
   -31.6064 -31.6062 -31.5844 -31.5842 -31.5832 -31.5832 -31.5748 -31.5747
    -8.5096  -8.5096  -7.9470  -7.9469   4.4184   4.4184   4.7511   4.7513
     5.0964   5.0964   6.5478   6.5480   6.5758   6.5758   7.0941   7.0942

          k = 0.0000-0.5000-0.5000 (  5216 PWs)   bands (ev):

   -64.8270 -64.8270 -64.8270 -64.8260 -31.6191 -31.6189 -31.6188 -31.6188
   -31.5971 -31.5969 -31.5969 -31.5967 -31.5766 -31.5764 -31.5762 -31.5762
    -8.2054  -8.2054  -8.2054  -8.2054   4.2931   4.2933   4.2933   4.2934
     5.7669   5.7669   5.7672   5.7672   7.0631   7.0633   7.0633   7.0634

          k = 0.2500 0.2500 0.2500 (  5166 PWs)   bands (ev):

   -64.8304 -64.8258 -64.8258 -64.8250 -31.6250 -31.6248 -31.6248 -31.6059
   -31.5935 -31.5935 -31.5933 -31.5839 -31.5838 -31.5838 -31.5713 -31.5713
    -8.7963  -8.0308  -8.0307  -8.0307   4.0003   4.0004   4.0004   5.0891
     5.8455   5.8457   5.8457   6.7052   6.7052   6.7054   7.3552   7.3552

          k = 0.2500 0.2500-0.5000 (  5128 PWs)   bands (ev):

   -64.8282 -64.8278 -64.8258 -64.8252 -31.6271 -31.6270 -31.6207 -31.6206
   -31.5925 -31.5922 -31.5800 -31.5800 -31.5776 -31.5774 -31.5773 -31.5773
    -8.3991  -8.3991  -7.9972  -7.9971   3.8215   3.8216   4.1979   4.1980
     5.8304   5.8305   6.7402   6.7404   6.8687   6.8688   7.0159   7.0160

          k = 0.2500-0.5000-0.5000 (  5140 PWs)   bands (ev):

   -64.8270 -64.8270 -64.8270 -64.8260 -31.6313 -31.6310 -31.6310 -31.6310
   -31.5827 -31.5825 -31.5825 -31.5823 -31.5752 -31.5750 -31.5749 -31.5749
    -8.1679  -8.1678  -8.1678  -8.1678   3.6402   3.6404   3.6404   3.6404
     6.5242   6.5243   6.5244   6.5244   7.0642   7.0644   7.0644   7.0645

          k =-0.5000-0.5000-0.5000 (  5232 PWs)   bands (ev):

   -64.8270 -64.8270 -64.8270 -64.8260 -31.6414 -31.6411 -31.6411 -31.6411
   -31.5763 -31.5763 -31.5761 -31.5761 -31.5761 -31.5759 -31.5759 -31.5759
    -8.1300  -8.1299  -8.1299  -8.1299   3.2170   3.2172   3.2172   3.2172
     7.0645   7.0645   7.0647   7.0647   7.0647   7.0649   7.0649   7.0649

     highest occupied level (ev):     7.6725

!    total energy              =    -608.39298875 Ry
     Harris-Foulkes estimate   =    -608.39298875 Ry
     estimated scf accuracy    <          1.9E-09 Ry

     The total energy is the sum of the following terms:

     one-electron contribution =    -303.55850434 Ry
     hartree contribution      =     168.06857709 Ry
     xc contribution           =     -97.84644035 Ry
     ewald contribution        =    -375.05662116 Ry

     convergence has been achieved in   9 iterations

     Forces acting on atoms (cartesian axes, Ry/au):

     atom    1 type  1   force =     0.00000000    0.00000000    0.00000000
     atom    2 type  1   force =     0.00000000    0.00000000    0.00000000
     atom    3 type  1   force =     0.00000000    0.00000000    0.00000000
     atom    4 type  1   force =     0.00000000   -0.00000000    0.00000000
     atom    5 type  2   force =     0.00000000    0.00000000    0.00000000
     atom    6 type  2   force =     0.00000000    0.00000000    0.00000000
     atom    7 type  2   force =     0.00000000    0.00000000    0.00000000
     atom    8 type  2   force =     0.00000000    0.00000000    0.00000000

     Total force =     0.000000     Total SCF correction =     0.000000


     Computing stress (Cartesian axis) and pressure

          total   stress  (Ry/bohr**3)                   (kbar)     P=  -67.75
  -0.00046058   0.00000000   0.00000000        -67.75      0.00      0.00
   0.00000000  -0.00046058   0.00000000          0.00    -67.75      0.00
   0.00000000   0.00000000  -0.00046058          0.00      0.00    -67.75


     BFGS Geometry Optimization

     bfgs converged in   1 scf cycles and   0 bfgs steps
     (criteria: energy <  1.0E-05 Ry, force <  1.0E-04 Ry/Bohr)

     End of BFGS Geometry Optimization

     Final energy   =    -608.3929887516 Ry
Begin final coordinates

ATOMIC_POSITIONS (alat)
Mg       0.000000000   0.000000000   0.000000000
Mg       0.000000000   0.500000000   0.500000000
Mg       0.500000000   0.000000000   0.500000000
Mg       0.500000000   0.500000000   0.000000000
O        0.500000000   0.000000000   0.000000000
O        0.000000000   0.500000000   0.000000000
O        0.000000000   0.000000000   0.500000000
O        0.500000000   0.500000000   0.500000000
End final coordinates



     Writing output data file diamond..70.4.save
 
     init_run     :      0.17s CPU      0.22s WALL (       1 calls)
     electrons    :      2.94s CPU      3.03s WALL (       1 calls)
     forces       :      0.04s CPU      0.04s WALL (       1 calls)
     stress       :      0.08s CPU      0.09s WALL (       1 calls)

     Called by init_run:
     wfcinit      :      0.12s CPU      0.14s WALL (       1 calls)
     potinit      :      0.01s CPU      0.01s WALL (       1 calls)

     Called by electrons:
     c_bands      :      2.53s CPU      2.60s WALL (       9 calls)
     sum_band     :      0.37s CPU      0.37s WALL (       9 calls)
     v_of_rho     :      0.04s CPU      0.04s WALL (      10 calls)
     mix_rho      :      0.01s CPU      0.01s WALL (       9 calls)

     Called by c_bands:
     init_us_2    :      0.04s CPU      0.04s WALL (     210 calls)
     cegterg      :      2.35s CPU      2.42s WALL (      90 calls)

     Called by sum_band:

     Called by *egterg:
     h_psi        :      1.89s CPU      1.94s WALL (     285 calls)
     g_psi        :      0.00s CPU      0.01s WALL (     185 calls)
     cdiaghg      :      0.31s CPU      0.32s WALL (     275 calls)

     Called by h_psi:
     h_psi:pot    :      1.89s CPU      1.92s WALL (     285 calls)
     h_psi:calbec :      0.09s CPU      0.09s WALL (     285 calls)
     vloc_psi     :      1.74s CPU      1.77s WALL (     285 calls)
     add_vuspsi   :      0.06s CPU      0.06s WALL (     285 calls)

     General routines
     calbec       :      0.11s CPU      0.10s WALL (     335 calls)
     fft          :      0.02s CPU      0.05s WALL (     134 calls)
     fftw         :      1.99s CPU      1.97s WALL (   18016 calls)
     davcio       :      0.00s CPU      0.00s WALL (      10 calls)
 
     Parallel routines
     fft_scatter  :      0.35s CPU      0.41s WALL (   18150 calls)
 
     PWSCF        :     3.37s CPU         3.67s WALL

 
   This run was terminated on:  18:38:45  22Apr2018            

=------------------------------------------------------------------------------=
   JOB DONE.
=------------------------------------------------------------------------------=
