
     Program PWSCF v.6.1 (svn rev. 13369) starts on 22Apr2018 at 18:59:48 

     This program is part of the open-source Quantum ESPRESSO suite
     for quantum simulation of materials; please cite
         "P. Giannozzi et al., J. Phys.:Condens. Matter 21 395502 (2009);
          URL http://www.quantum-espresso.org", 
     in publications or presentations arising from this work. More details at
     http://www.quantum-espresso.org/quote

     Parallel version (MPI), running on     8 processors
     R & G space division:  proc/nbgrp/npool/nimage =       8
     Waiting for input...
     Reading input from standard input
Warning: card       &CELL ignored
Warning: card          CELL_DYNAMICS = 'BFGS' ignored
Warning: card          PRESS = 0.0D0 ignored
Warning: card          PRESS_CONV_THR = 0.01D0 ignored
Warning: card       / ignored

     Current dimensions of program PWSCF are:
     Max number of different atomic species (ntypx) = 10
     Max number of k-points (npk) =  40000
     Max angular momentum in pseudopotentials (lmaxx) =  3

     Subspace diagonalization in iterative solution of the eigenvalue problem:
     a serial algorithm will be used

     Found symmetry operation: I + ( -0.5000  0.0000  0.5000)
     This is a supercell, fractional translations are disabled
 
     Parallelization info
     --------------------
     sticks:   dense  smooth     PW     G-vecs:    dense   smooth      PW
     Min         180     180     52                 5150     5150     816
     Max         181     181     53                 5153     5153     819
     Sum        1445    1445    421                41215    41215    6543
 


     bravais-lattice index     =           12
     lattice parameter (alat)  =       8.0448  a.u.
     unit-cell volume          =     520.6385 (a.u.)^3
     number of atoms/cell      =            8
     number of atomic types    =            2
     number of electrons       =        64.00
     number of Kohn-Sham states=           32
     kinetic-energy cutoff     =      70.0000  Ry
     charge density cutoff     =     280.0000  Ry
     convergence threshold     =      1.0E-08
     mixing beta               =       0.7000
     number of iterations used =            8  plain     mixing
     Exchange-correlation      = PBE ( 1  4  3  4 0 0)
     nstep                     =           50


     celldm(1)=   8.044750  celldm(2)=   1.000000  celldm(3)=   1.000003
     celldm(4)=  -0.003571  celldm(5)=   0.000000  celldm(6)=   0.000000

     crystal axes: (cart. coord. in units of alat)
               a(1) = (   1.000000   0.000000   0.000000 )  
               a(2) = (  -0.003571   0.999994   0.000000 )  
               a(3) = (   0.000000   0.000000   1.000003 )  

     reciprocal axes: (cart. coord. in units 2 pi/alat)
               b(1) = (  1.000000  0.003571  0.000000 )  
               b(2) = (  0.000000  1.000006  0.000000 )  
               b(3) = (  0.000000  0.000000  0.999997 )  


     PseudoPot. # 1 for Mg read from file:
     ../pseudo/Mg.pbe.UPF
     MD5 check sum: 4c04d8c6e0476e83eaecaf72fa8acc4d
     Pseudo is Norm-conserving, Zval = 10.0
     Generated using ONCVPSP code by D. R. Hamann
     Using radial grid of 1510 points,  4 beta functions with: 
                l(1) =   0
                l(2) =   0
                l(3) =   1
                l(4) =   1

     PseudoPot. # 2 for O  read from file:
     ../pseudo/O.pbe.UPF
     MD5 check sum: 3e3f909f7470e8921608ab6b1f57bbae
     Pseudo is Norm-conserving + core correction, Zval =  6.0
     Generated using ONCVPSP code by D. R. Hamann
     Using radial grid of  936 points,  5 beta functions with: 
                l(1) =   0
                l(2) =   0
                l(3) =   1
                l(4) =   1
                l(5) =   2

     atomic species   valence    mass     pseudopotential
        Mg            10.00    24.30500     Mg( 1.00)
        O              6.00    15.99940     O ( 1.00)

      2 Sym. Ops. (no inversion) found



   Cartesian axes

     site n.     atom                  positions (alat units)
         1           Mg  tau(   1) = (   0.0000000   0.0000000   0.0000000  )
         2           Mg  tau(   2) = (   0.0000000   0.5000000   0.5000000  )
         3           Mg  tau(   3) = (   0.5000000   0.0000000   0.5000000  )
         4           Mg  tau(   4) = (   0.5000000   0.5000000   0.0000000  )
         5           O   tau(   5) = (   0.5000000   0.0000000   0.0000000  )
         6           O   tau(   6) = (   0.0000000   0.5000000   0.0000000  )
         7           O   tau(   7) = (   0.0000000   0.0000000   0.5000000  )
         8           O   tau(   8) = (   0.5000000   0.5000000   0.5000000  )

     number of k points=    30
                       cart. coord. in units 2pi/alat
        k(    1) = (   0.0000000   0.0000000   0.0000000), wk =   0.0312500
        k(    2) = (   0.0000000   0.0000000   0.2499992), wk =   0.0625000
        k(    3) = (   0.0000000   0.0000000  -0.4999984), wk =   0.0312500
        k(    4) = (   0.0000000   0.2500016   0.0000000), wk =   0.0625000
        k(    5) = (   0.0000000   0.2500016   0.2499992), wk =   0.1250000
        k(    6) = (   0.0000000   0.2500016  -0.4999984), wk =   0.0625000
        k(    7) = (   0.0000000  -0.5000032   0.0000000), wk =   0.0312500
        k(    8) = (   0.0000000  -0.5000032   0.2499992), wk =   0.0625000
        k(    9) = (   0.0000000  -0.5000032  -0.4999984), wk =   0.0312500
        k(   10) = (   0.2500000   0.0008928   0.0000000), wk =   0.0625000
        k(   11) = (   0.2500000   0.0008928   0.2499992), wk =   0.1250000
        k(   12) = (   0.2500000   0.0008928  -0.4999984), wk =   0.0625000
        k(   13) = (   0.2500000   0.2508943   0.0000000), wk =   0.0625000
        k(   14) = (   0.2500000   0.2508943   0.2499992), wk =   0.1250000
        k(   15) = (   0.2500000   0.2508943  -0.4999984), wk =   0.0625000
        k(   16) = (   0.2500000  -0.4991104   0.0000000), wk =   0.0625000
        k(   17) = (   0.2500000  -0.4991104   0.2499992), wk =   0.1250000
        k(   18) = (   0.2500000  -0.4991104  -0.4999984), wk =   0.0625000
        k(   19) = (   0.2500000  -0.2491088   0.0000000), wk =   0.0625000
        k(   20) = (   0.2500000  -0.2491088   0.2499992), wk =   0.1250000
        k(   21) = (   0.2500000  -0.2491088  -0.4999984), wk =   0.0625000
        k(   22) = (  -0.5000000  -0.0017855   0.0000000), wk =   0.0312500
        k(   23) = (  -0.5000000  -0.0017855   0.2499992), wk =   0.0625000
        k(   24) = (  -0.5000000  -0.0017855  -0.4999984), wk =   0.0312500
        k(   25) = (  -0.5000000   0.2482161   0.0000000), wk =   0.0625000
        k(   26) = (  -0.5000000   0.2482161   0.2499992), wk =   0.1250000
        k(   27) = (  -0.5000000   0.2482161  -0.4999984), wk =   0.0625000
        k(   28) = (  -0.5000000  -0.5017887   0.0000000), wk =   0.0312500
        k(   29) = (  -0.5000000  -0.5017887   0.2499992), wk =   0.0625000
        k(   30) = (  -0.5000000  -0.5017887  -0.4999984), wk =   0.0312500

     Dense  grid:    41215 G-vectors     FFT dimensions: (  45,  45,  45)

     Estimated max dynamical RAM per process >      15.33MB

     Estimated total allocated dynamical RAM >     122.65MB

     Check: negative/imaginary core charge=   -0.000007    0.000000

     Initial potential from superposition of free atoms

     starting charge   63.99678, renormalised to   64.00000
     Starting wfc are   36 randomized atomic wfcs

     total cpu time spent up to now is        0.6 secs

     per-process dynamical memory:    51.6 Mb

     Self-consistent Calculation

     iteration #  1     ecut=    70.00 Ry     beta=0.70
     Davidson diagonalization with overlap
     ethr =  1.00E-02,  avg # of iterations =  2.0

     total cpu time spent up to now is        1.6 secs

     total energy              =    -607.72014948 Ry
     Harris-Foulkes estimate   =    -608.84379566 Ry
     estimated scf accuracy    <       1.56131513 Ry

     iteration #  2     ecut=    70.00 Ry     beta=0.70
     Davidson diagonalization with overlap
     ethr =  2.44E-03,  avg # of iterations =  2.9

     total cpu time spent up to now is        2.7 secs

     total energy              =    -608.10588320 Ry
     Harris-Foulkes estimate   =    -608.80344947 Ry
     estimated scf accuracy    <       1.44817453 Ry

     iteration #  3     ecut=    70.00 Ry     beta=0.70
     Davidson diagonalization with overlap
     ethr =  2.26E-03,  avg # of iterations =  2.0

     total cpu time spent up to now is        3.7 secs

     total energy              =    -608.39131128 Ry
     Harris-Foulkes estimate   =    -608.39196964 Ry
     estimated scf accuracy    <       0.00676083 Ry

     iteration #  4     ecut=    70.00 Ry     beta=0.70
     Davidson diagonalization with overlap
     ethr =  1.06E-05,  avg # of iterations =  2.0

     total cpu time spent up to now is        4.7 secs

     total energy              =    -608.39278782 Ry
     Harris-Foulkes estimate   =    -608.39283278 Ry
     estimated scf accuracy    <       0.00011169 Ry

     iteration #  5     ecut=    70.00 Ry     beta=0.70
     Davidson diagonalization with overlap
     ethr =  1.75E-07,  avg # of iterations =  1.5

     total cpu time spent up to now is        5.5 secs

     total energy              =    -608.39279515 Ry
     Harris-Foulkes estimate   =    -608.39279373 Ry
     estimated scf accuracy    <       0.00001034 Ry

     iteration #  6     ecut=    70.00 Ry     beta=0.70
     Davidson diagonalization with overlap
     ethr =  1.62E-08,  avg # of iterations =  2.0

     total cpu time spent up to now is        6.6 secs

     total energy              =    -608.39279672 Ry
     Harris-Foulkes estimate   =    -608.39279715 Ry
     estimated scf accuracy    <       0.00000111 Ry

     iteration #  7     ecut=    70.00 Ry     beta=0.70
     Davidson diagonalization with overlap
     ethr =  1.74E-09,  avg # of iterations =  2.0

     total cpu time spent up to now is        7.5 secs

     total energy              =    -608.39279671 Ry
     Harris-Foulkes estimate   =    -608.39279683 Ry
     estimated scf accuracy    <       0.00000029 Ry

     iteration #  8     ecut=    70.00 Ry     beta=0.70
     Davidson diagonalization with overlap
     ethr =  4.50E-10,  avg # of iterations =  2.0

     total cpu time spent up to now is        8.5 secs

     total energy              =    -608.39279672 Ry
     Harris-Foulkes estimate   =    -608.39279674 Ry
     estimated scf accuracy    <       0.00000004 Ry

     iteration #  9     ecut=    70.00 Ry     beta=0.70
     Davidson diagonalization with overlap
     ethr =  6.87E-11,  avg # of iterations =  2.0

     total cpu time spent up to now is        9.6 secs

     End of self-consistent calculation

          k = 0.0000 0.0000 0.0000 (  5145 PWs)   bands (ev):

   -64.8344 -64.8249 -64.8249 -64.8241 -31.6309 -31.6309 -31.6308 -31.5941
   -31.5933 -31.5932 -31.5932 -31.5932 -31.5924 -31.5644 -31.5635 -31.5633
    -9.3646  -7.9137  -7.9136  -7.9135   3.7581   3.7582   3.7582   6.3594
     6.3800   6.3801   6.3801   6.3804   6.4010   7.6595   7.6725   7.6855

          k = 0.0000 0.0000 0.2500 (  5157 PWs)   bands (ev):

   -64.8329 -64.8261 -64.8249 -64.8243 -31.6241 -31.6241 -31.6203 -31.5979
   -31.5979 -31.5938 -31.5938 -31.5898 -31.5880 -31.5781 -31.5723 -31.5703
    -9.1562  -8.1286  -7.8852  -7.8851   4.0483   4.0487   4.0959   5.8581
     5.8582   6.1706   6.1709   6.5229   6.5628   6.6589   7.4359   7.4648

          k = 0.0000 0.0000-0.5000 (  5110 PWs)   bands (ev):

   -64.8297 -64.8293 -64.8249 -64.8243 -31.6111 -31.6109 -31.6075 -31.6072
   -31.6018 -31.6018 -31.5906 -31.5906 -31.5814 -31.5811 -31.5795 -31.5793
    -8.6460  -8.6458  -7.8564  -7.8563   4.8455   4.8455   4.8503   4.8504
     5.1228   5.1231   5.9735   5.9738   6.9509   6.9510   6.9859   6.9860

          k = 0.0000 0.2500 0.0000 (  5159 PWs)   bands (ev):

   -64.8329 -64.8261 -64.8249 -64.8243 -31.6243 -31.6242 -31.6204 -31.5982
   -31.5982 -31.5937 -31.5933 -31.5889 -31.5888 -31.5782 -31.5713 -31.5711
    -9.1562  -8.1285  -7.8852  -7.8851   4.0484   4.0485   4.0955   5.8569
     5.8582   6.1707   6.1722   6.5428   6.5430   6.6590   7.4503   7.4505

          k = 0.0000 0.2500 0.2500 (  5157 PWs)   bands (ev):

   -64.8317 -64.8261 -64.8257 -64.8247 -31.6211 -31.6207 -31.6195 -31.6069
   -31.5939 -31.5938 -31.5928 -31.5877 -31.5864 -31.5863 -31.5753 -31.5682
    -8.9660  -8.0638  -8.0637  -7.8901   4.1612   4.1616   4.3288   5.0714
     5.8471   6.0552   6.0556   6.4849   6.4855   6.5836   7.1733   7.5058

          k = 0.0000 0.2500-0.5000 (  5152 PWs)   bands (ev):

   -64.8290 -64.8286 -64.8256 -64.8250 -31.6173 -31.6172 -31.6099 -31.6099
   -31.6066 -31.6064 -31.5850 -31.5847 -31.5836 -31.5836 -31.5753 -31.5751
    -8.5096  -8.5095  -7.9468  -7.9468   4.4184   4.4186   4.7511   4.7513
     5.0963   5.0964   6.5478   6.5480   6.5757   6.5758   7.0944   7.0945

          k = 0.0000-0.5000 0.0000 (  5110 PWs)   bands (ev):

   -64.8297 -64.8293 -64.8249 -64.8243 -31.6094 -31.6093 -31.6091 -31.6091
   -31.6019 -31.6018 -31.5905 -31.5904 -31.5805 -31.5804 -31.5802 -31.5801
    -8.6459  -8.6458  -7.8564  -7.8563   4.8476   4.8480   4.8480   4.8481
     5.1228   5.1230   5.9736   5.9742   6.9683   6.9684   6.9685   6.9685

          k = 0.0000-0.5000 0.2500 (  5154 PWs)   bands (ev):

   -64.8290 -64.8286 -64.8256 -64.8250 -31.6173 -31.6172 -31.6100 -31.6099
   -31.6067 -31.6065 -31.5849 -31.5847 -31.5837 -31.5837 -31.5753 -31.5751
    -8.5095  -8.5095  -7.9469  -7.9468   4.4184   4.4185   4.7512   4.7514
     5.0963   5.0964   6.5479   6.5482   6.5758   6.5759   7.0941   7.0943

          k = 0.0000-0.5000-0.5000 (  5204 PWs)   bands (ev):

   -64.8273 -64.8273 -64.8273 -64.8263 -31.6192 -31.6190 -31.6189 -31.6189
   -31.5970 -31.5968 -31.5968 -31.5965 -31.5765 -31.5763 -31.5762 -31.5762
    -8.2054  -8.2053  -8.2052  -8.2052   4.2932   4.2934   4.2934   4.2935
     5.7673   5.7673   5.7676   5.7677   7.0633   7.0634   7.0635   7.0637

          k = 0.2500 0.0009 0.0000 (  5159 PWs)   bands (ev):

   -64.8329 -64.8261 -64.8249 -64.8243 -31.6243 -31.6242 -31.6204 -31.5982
   -31.5982 -31.5937 -31.5933 -31.5889 -31.5888 -31.5782 -31.5713 -31.5711
    -9.1562  -8.1285  -7.8852  -7.8851   4.0484   4.0485   4.0955   5.8573
     5.8582   6.1707   6.1717   6.5428   6.5432   6.6589   7.4503   7.4505

          k = 0.2500 0.0009 0.2500 (  5157 PWs)   bands (ev):

   -64.8317 -64.8261 -64.8257 -64.8247 -31.6211 -31.6207 -31.6195 -31.6069
   -31.5941 -31.5936 -31.5928 -31.5877 -31.5865 -31.5862 -31.5753 -31.5682
    -8.9660  -8.0666  -8.0610  -7.8901   4.1566   4.1663   4.3288   5.0714
     5.8471   6.0484   6.0625   6.4819   6.4884   6.5835   7.1734   7.5057

          k = 0.2500 0.0009-0.5000 (  5152 PWs)   bands (ev):

   -64.8290 -64.8286 -64.8256 -64.8250 -31.6173 -31.6172 -31.6099 -31.6099
   -31.6066 -31.6064 -31.5850 -31.5847 -31.5836 -31.5836 -31.5753 -31.5751
    -8.5096  -8.5095  -7.9468  -7.9467   4.4183   4.4184   4.7512   4.7515
     5.0962   5.0964   6.5478   6.5481   6.5758   6.5759   7.0944   7.0944

          k = 0.2500 0.2509 0.0000 (  5157 PWs)   bands (ev):

   -64.8317 -64.8261 -64.8257 -64.8246 -31.6200 -31.6199 -31.6194 -31.6083
   -31.5941 -31.5941 -31.5940 -31.5869 -31.5868 -31.5867 -31.5752 -31.5672
    -8.9642  -8.0661  -8.0660  -7.8880   4.1623   4.1624   4.3306   5.0824
     5.8533   6.0525   6.0529   6.4888   6.4889   6.5650   7.1769   7.4931

          k = 0.2500 0.2509 0.2500 (  5156 PWs)   bands (ev):

   -64.8307 -64.8261 -64.8261 -64.8253 -31.6253 -31.6240 -31.6238 -31.6063
   -31.5947 -31.5945 -31.5941 -31.5839 -31.5839 -31.5831 -31.5714 -31.5703
    -8.7943  -8.0337  -8.0328  -8.0278   3.9977   3.9988   4.0084   5.0970
     5.8425   5.8480   5.8567   6.6876   6.7072   6.7073   7.3418   7.3571

          k = 0.2500 0.2509-0.5000 (  5144 PWs)   bands (ev):

   -64.8285 -64.8281 -64.8261 -64.8255 -31.6272 -31.6270 -31.6215 -31.6214
   -31.5942 -31.5940 -31.5803 -31.5803 -31.5782 -31.5782 -31.5768 -31.5765
    -8.3972  -8.3971  -7.9993  -7.9992   3.8178   3.8178   4.2063   4.2065
     5.8351   5.8351   6.7419   6.7421   6.8709   6.8710   7.0002   7.0002

          k = 0.2500-0.4991 0.0000 (  5152 PWs)   bands (ev):

   -64.8290 -64.8286 -64.8256 -64.8250 -31.6186 -31.6156 -31.6113 -31.6086
   -31.6068 -31.6065 -31.5849 -31.5847 -31.5844 -31.5828 -31.5760 -31.5744
    -8.5124  -8.5066  -7.9500  -7.9437   4.4146   4.4223   4.7496   4.7529
     5.0932   5.0995   6.5356   6.5606   6.5714   6.5804   7.0848   7.1036

          k = 0.2500-0.4991 0.2500 (  5135 PWs)   bands (ev):

   -64.8285 -64.8281 -64.8261 -64.8255 -31.6284 -31.6271 -31.6218 -31.6198
   -31.5928 -31.5926 -31.5810 -31.5800 -31.5787 -31.5779 -31.5772 -31.5764
    -8.4019  -8.3962  -8.0001  -7.9940   3.8153   3.8278   4.1933   4.2027
     5.8276   5.8332   6.7314   6.7495   6.8625   6.8749   7.0135   7.0191

          k = 0.2500-0.4991-0.5000 (  5140 PWs)   bands (ev):

   -64.8273 -64.8273 -64.8272 -64.8263 -31.6323 -31.6322 -31.6305 -31.6304
   -31.5833 -31.5831 -31.5824 -31.5822 -31.5754 -31.5752 -31.5749 -31.5749
    -8.1707  -8.1706  -8.1649  -8.1648   3.6338   3.6338   3.6470   3.6471
     6.5149   6.5150   6.5340   6.5340   7.0616   7.0618   7.0673   7.0675

          k = 0.2500-0.2491 0.0000 (  5161 PWs)   bands (ev):

   -64.8318 -64.8261 -64.8257 -64.8247 -31.6217 -31.6215 -31.6194 -31.6057
   -31.5943 -31.5942 -31.5916 -31.5886 -31.5860 -31.5858 -31.5753 -31.5694
    -8.9678  -8.0616  -8.0615  -7.8923   4.1607   4.1607   4.3268   5.0603
     5.8410   6.0582   6.0585   6.4809   6.4810   6.6022   7.1698   7.5184

          k = 0.2500-0.2491 0.2500 (  5150 PWs)   bands (ev):

   -64.8308 -64.8261 -64.8261 -64.8253 -31.6260 -31.6258 -31.6245 -31.6053
   -31.5928 -31.5925 -31.5922 -31.5845 -31.5839 -31.5838 -31.5719 -31.5708
    -8.7980  -8.0335  -8.0284  -8.0276   3.9926   4.0022   4.0033   5.0815
     5.8349   5.8437   5.8491   6.7036   6.7038   6.7237   7.3536   7.3692

          k = 0.2500-0.2491-0.5000 (  5132 PWs)   bands (ev):

   -64.8285 -64.8281 -64.8261 -64.8254 -31.6287 -31.6285 -31.6203 -31.6202
   -31.5916 -31.5913 -31.5808 -31.5807 -31.5787 -31.5785 -31.5769 -31.5768
    -8.4010  -8.4009  -7.9949  -7.9948   3.8251   3.8251   4.1897   4.1898
     5.8255   5.8256   6.7385   6.7387   6.8668   6.8669   7.0320   7.0321

          k =-0.5000-0.0018 0.0000 (  5110 PWs)   bands (ev):

   -64.8297 -64.8293 -64.8249 -64.8243 -31.6094 -31.6093 -31.6092 -31.6091
   -31.6019 -31.6018 -31.5905 -31.5904 -31.5805 -31.5803 -31.5802 -31.5801
    -8.6459  -8.6458  -7.8564  -7.8563   4.8480   4.8480   4.8480   4.8480
     5.1228   5.1230   5.9735   5.9738   6.9684   6.9684   6.9685   6.9685

          k =-0.5000-0.0018 0.2500 (  5154 PWs)   bands (ev):

   -64.8290 -64.8286 -64.8256 -64.8250 -31.6173 -31.6172 -31.6100 -31.6099
   -31.6067 -31.6065 -31.5849 -31.5847 -31.5837 -31.5837 -31.5753 -31.5751
    -8.5095  -8.5095  -7.9468  -7.9468   4.4183   4.4183   4.7513   4.7514
     5.0964   5.0964   6.5478   6.5480   6.5760   6.5760   7.0941   7.0942

          k =-0.5000-0.0018-0.5000 (  5204 PWs)   bands (ev):

   -64.8274 -64.8273 -64.8272 -64.8263 -31.6192 -31.6191 -31.6189 -31.6189
   -31.5973 -31.5970 -31.5966 -31.5963 -31.5766 -31.5765 -31.5761 -31.5761
    -8.2091  -8.2090  -8.2015  -8.2014   4.2862   4.2863   4.3003   4.3005
     5.7584   5.7584   5.7767   5.7767   7.0594   7.0596   7.0672   7.0674

          k =-0.5000 0.2482 0.0000 (  5152 PWs)   bands (ev):

   -64.8290 -64.8286 -64.8256 -64.8250 -31.6186 -31.6156 -31.6113 -31.6086
   -31.6068 -31.6065 -31.5849 -31.5847 -31.5844 -31.5828 -31.5760 -31.5744
    -8.5124  -8.5066  -7.9500  -7.9437   4.4146   4.4223   4.7496   4.7529
     5.0932   5.0995   6.5355   6.5605   6.5714   6.5804   7.0849   7.1036

          k =-0.5000 0.2482 0.2500 (  5135 PWs)   bands (ev):

   -64.8285 -64.8281 -64.8261 -64.8255 -31.6284 -31.6271 -31.6218 -31.6198
   -31.5928 -31.5926 -31.5810 -31.5800 -31.5786 -31.5780 -31.5772 -31.5765
    -8.4019  -8.3962  -8.0001  -7.9940   3.8152   3.8278   4.1934   4.2027
     5.8276   5.8332   6.7313   6.7494   6.8626   6.8750   7.0135   7.0191

          k =-0.5000 0.2482-0.5000 (  5140 PWs)   bands (ev):

   -64.8273 -64.8273 -64.8272 -64.8262 -31.6323 -31.6322 -31.6305 -31.6304
   -31.5834 -31.5832 -31.5824 -31.5822 -31.5754 -31.5752 -31.5749 -31.5748
    -8.1718  -8.1717  -8.1638  -8.1637   3.6320   3.6321   3.6487   3.6488
     6.5128   6.5129   6.5361   6.5362   7.0605   7.0606   7.0684   7.0686

          k =-0.5000-0.5018 0.0000 (  5196 PWs)   bands (ev):

   -64.8274 -64.8273 -64.8272 -64.8263 -31.6205 -31.6202 -31.6174 -31.6172
   -31.5973 -31.5971 -31.5971 -31.5968 -31.5762 -31.5759 -31.5757 -31.5754
    -8.2095  -8.2095  -8.2010  -8.2010   4.2909   4.2910   4.2958   4.2958
     5.7618   5.7622   5.7723   5.7727   7.0491   7.0491   7.0782   7.0783

          k =-0.5000-0.5018 0.2500 (  5140 PWs)   bands (ev):

   -64.8273 -64.8273 -64.8272 -64.8262 -31.6322 -31.6321 -31.6305 -31.6304
   -31.5831 -31.5830 -31.5823 -31.5823 -31.5764 -31.5761 -31.5743 -31.5740
    -8.1720  -8.1719  -8.1636  -8.1635   3.6350   3.6350   3.6457   3.6458
     6.5227   6.5229   6.5258   6.5261   7.0503   7.0503   7.0789   7.0789

          k =-0.5000-0.5018-0.5000 (  5136 PWs)   bands (ev):

   -64.8273 -64.8273 -64.8272 -64.8262 -31.6402 -31.6400 -31.6386 -31.6384
   -31.5751 -31.5750 -31.5749 -31.5748 -31.5747 -31.5746 -31.5746 -31.5745
    -8.1339  -8.1338  -8.1254  -8.1253   3.2107   3.2108   3.2244   3.2244
     7.0509   7.0509   7.0649   7.0651   7.0655   7.0657   7.0800   7.0801

     highest occupied level (ev):     7.6855

!    total energy              =    -608.39279673 Ry
     Harris-Foulkes estimate   =    -608.39279673 Ry
     estimated scf accuracy    <          1.3E-09 Ry

     The total energy is the sum of the following terms:

     one-electron contribution =    -303.55651652 Ry
     hartree contribution      =     168.06753053 Ry
     xc contribution           =     -97.84639047 Ry
     ewald contribution        =    -375.05742027 Ry

     convergence has been achieved in   9 iterations

     Forces acting on atoms (cartesian axes, Ry/au):

     atom    1 type  1   force =     0.00084228    0.00001532    0.00000000
     atom    2 type  1   force =    -0.00091249   -0.00001628    0.00000000
     atom    3 type  1   force =     0.00084142    0.00001501    0.00000000
     atom    4 type  1   force =    -0.00073743   -0.00001284    0.00000000
     atom    5 type  2   force =     0.00104923    0.00000757    0.00000000
     atom    6 type  2   force =    -0.00111215   -0.00000816    0.00000000
     atom    7 type  2   force =     0.00104879    0.00000733    0.00000000
     atom    8 type  2   force =    -0.00101965   -0.00000795    0.00000000

     Total force =     0.002697     Total SCF correction =     0.000009


     Computing stress (Cartesian axis) and pressure

          total   stress  (Ry/bohr**3)                   (kbar)     P=  -68.12
  -0.00046358   0.00003514   0.00000000        -68.20      5.17      0.00
   0.00003514  -0.00046319   0.00000000          5.17    -68.14      0.00
   0.00000000   0.00000000  -0.00046237          0.00      0.00    -68.02


     BFGS Geometry Optimization

     number of scf cycles    =   1
     number of bfgs steps    =   0

     energy   new            =    -608.3927967289 Ry

     new trust radius        =       0.0011121819 bohr
     new conv_thr            =       0.0000000100 Ry


ATOMIC_POSITIONS (alat)
Mg       0.000104699   0.000001904   0.000000000
Mg      -0.000113427   0.499997976   0.500000000
Mg       0.500104592   0.000001866   0.500000000
Mg       0.499908334   0.499998404   0.000000000
O        0.500130424   0.000000941   0.000000000
O       -0.000138246   0.499998985   0.000000000
O        0.000130370   0.000000911   0.500000000
O        0.499873253   0.499999012   0.500000000



     Writing output data file diamond..70.4.save
     NEW-OLD atomic charge density approx. for the potential

     Check: negative/imaginary core charge=   -0.000007    0.000000

     total cpu time spent up to now is       10.1 secs

     per-process dynamical memory:    52.3 Mb

     Self-consistent Calculation

     iteration #  1     ecut=    70.00 Ry     beta=0.70
     Davidson diagonalization with overlap
     ethr =  1.00E-06,  avg # of iterations =  2.4

     Threshold (ethr) on eigenvalues was too large:
     Diagonalizing with lowered threshold

     Davidson diagonalization with overlap
     ethr =  5.77E-10,  avg # of iterations =  3.0

     total cpu time spent up to now is       12.5 secs

     total energy              =    -608.39280341 Ry
     Harris-Foulkes estimate   =    -608.39280368 Ry
     estimated scf accuracy    <       0.00000048 Ry

     iteration #  2     ecut=    70.00 Ry     beta=0.70
     Davidson diagonalization with overlap
     ethr =  7.53E-10,  avg # of iterations =  2.0

     total cpu time spent up to now is       13.5 secs

     total energy              =    -608.39280349 Ry
     Harris-Foulkes estimate   =    -608.39280350 Ry
     estimated scf accuracy    <       0.00000001 Ry

     iteration #  3     ecut=    70.00 Ry     beta=0.70
     Davidson diagonalization with overlap
     ethr =  2.29E-11,  avg # of iterations =  2.7

     total cpu time spent up to now is       14.5 secs

     End of self-consistent calculation

          k = 0.0000 0.0000 0.0000 (  5145 PWs)   bands (ev):

   -64.8346 -64.8251 -64.8251 -64.8243 -31.6311 -31.6310 -31.6310 -31.5943
   -31.5935 -31.5934 -31.5934 -31.5933 -31.5926 -31.5646 -31.5637 -31.5635
    -9.3645  -7.9138  -7.9135  -7.9134   3.7582   3.7582   3.7582   6.3594
     6.3800   6.3801   6.3802   6.3804   6.4010   7.6595   7.6725   7.6856

          k = 0.0000 0.0000 0.2500 (  5157 PWs)   bands (ev):

   -64.8331 -64.8263 -64.8251 -64.8245 -31.6243 -31.6242 -31.6205 -31.5981
   -31.5981 -31.5940 -31.5939 -31.5899 -31.5882 -31.5782 -31.5725 -31.5705
    -9.1561  -8.1285  -7.8851  -7.8850   4.0484   4.0487   4.0958   5.8582
     5.8582   6.1706   6.1710   6.5230   6.5628   6.6590   7.4360   7.4649

          k = 0.0000 0.0000-0.5000 (  5110 PWs)   bands (ev):

   -64.8299 -64.8295 -64.8251 -64.8245 -31.6113 -31.6110 -31.6076 -31.6074
   -31.6020 -31.6019 -31.5908 -31.5907 -31.5816 -31.5813 -31.5797 -31.5794
    -8.6459  -8.6458  -7.8563  -7.8562   4.8456   4.8456   4.8504   4.8504
     5.1228   5.1231   5.9735   5.9739   6.9510   6.9511   6.9860   6.9861

          k = 0.0000 0.2500 0.0000 (  5159 PWs)   bands (ev):

   -64.8331 -64.8263 -64.8251 -64.8245 -31.6245 -31.6244 -31.6206 -31.5984
   -31.5984 -31.5939 -31.5935 -31.5891 -31.5889 -31.5784 -31.5715 -31.5713
    -9.1561  -8.1284  -7.8853  -7.8849   4.0485   4.0485   4.0955   5.8571
     5.8582   6.1707   6.1722   6.5429   6.5431   6.6590   7.4503   7.4505

          k = 0.0000 0.2500 0.2500 (  5157 PWs)   bands (ev):

   -64.8319 -64.8263 -64.8259 -64.8248 -31.6212 -31.6208 -31.6197 -31.6071
   -31.5941 -31.5940 -31.5930 -31.5879 -31.5866 -31.5864 -31.5755 -31.5684
    -8.9660  -8.0638  -8.0636  -7.8901   4.1613   4.1617   4.3288   5.0714
     5.8471   6.0552   6.0557   6.4850   6.4855   6.5836   7.1734   7.5058

          k = 0.0000 0.2500-0.5000 (  5152 PWs)   bands (ev):

   -64.8292 -64.8288 -64.8258 -64.8252 -31.6175 -31.6173 -31.6101 -31.6101
   -31.6068 -31.6065 -31.5851 -31.5849 -31.5838 -31.5837 -31.5754 -31.5753
    -8.5095  -8.5094  -7.9468  -7.9467   4.4185   4.4186   4.7512   4.7514
     5.0963   5.0965   6.5479   6.5481   6.5757   6.5759   7.0945   7.0945

          k = 0.0000-0.5000 0.0000 (  5110 PWs)   bands (ev):

   -64.8299 -64.8295 -64.8251 -64.8245 -31.6096 -31.6095 -31.6093 -31.6092
   -31.6021 -31.6020 -31.5907 -31.5906 -31.5806 -31.5805 -31.5804 -31.5803
    -8.6460  -8.6456  -7.8565  -7.8562   4.8477   4.8479   4.8482   4.8482
     5.1227   5.1232   5.9735   5.9742   6.9683   6.9683   6.9686   6.9686

          k = 0.0000-0.5000 0.2500 (  5154 PWs)   bands (ev):

   -64.8292 -64.8288 -64.8258 -64.8252 -31.6175 -31.6173 -31.6101 -31.6101
   -31.6069 -31.6066 -31.5851 -31.5848 -31.5839 -31.5838 -31.5755 -31.5753
    -8.5096  -8.5093  -7.9470  -7.9466   4.4184   4.4185   4.7512   4.7515
     5.0963   5.0965   6.5479   6.5483   6.5758   6.5761   7.0942   7.0943

          k = 0.0000-0.5000-0.5000 (  5204 PWs)   bands (ev):

   -64.8275 -64.8275 -64.8275 -64.8264 -31.6194 -31.6192 -31.6191 -31.6191
   -31.5972 -31.5970 -31.5970 -31.5967 -31.5767 -31.5765 -31.5764 -31.5764
    -8.2055  -8.2052  -8.2051  -8.2050   4.2933   4.2934   4.2934   4.2936
     5.7672   5.7674   5.7676   5.7679   7.0634   7.0634   7.0635   7.0637

          k = 0.2500 0.0009 0.0000 (  5159 PWs)   bands (ev):

   -64.8331 -64.8263 -64.8251 -64.8245 -31.6245 -31.6244 -31.6206 -31.5984
   -31.5984 -31.5939 -31.5935 -31.5891 -31.5889 -31.5784 -31.5715 -31.5713
    -9.1561  -8.1284  -7.8852  -7.8850   4.0485   4.0485   4.0955   5.8573
     5.8583   6.1707   6.1718   6.5429   6.5432   6.6589   7.4503   7.4506

          k = 0.2500 0.0009 0.2500 (  5157 PWs)   bands (ev):

   -64.8319 -64.8263 -64.8259 -64.8248 -31.6212 -31.6208 -31.6197 -31.6071
   -31.5942 -31.5938 -31.5930 -31.5879 -31.5866 -31.5864 -31.5755 -31.5684
    -8.9660  -8.0661  -8.0613  -7.8901   4.1574   4.1655   4.3288   5.0714
     5.8471   6.0496   6.0615   6.4824   6.4880   6.5836   7.1735   7.5058

          k = 0.2500 0.0009-0.5000 (  5152 PWs)   bands (ev):

   -64.8292 -64.8288 -64.8258 -64.8252 -31.6175 -31.6173 -31.6101 -31.6101
   -31.6068 -31.6065 -31.5851 -31.5849 -31.5838 -31.5837 -31.5754 -31.5753
    -8.5095  -8.5094  -7.9468  -7.9467   4.4184   4.4185   4.7512   4.7515
     5.0963   5.0965   6.5479   6.5481   6.5758   6.5759   7.0944   7.0945

          k = 0.2500 0.2509 0.0000 (  5157 PWs)   bands (ev):

   -64.8319 -64.8263 -64.8259 -64.8248 -31.6202 -31.6200 -31.6195 -31.6085
   -31.5943 -31.5942 -31.5942 -31.5871 -31.5870 -31.5869 -31.5754 -31.5673
    -8.9641  -8.0660  -8.0659  -7.8880   4.1624   4.1624   4.3307   5.0824
     5.8534   6.0526   6.0529   6.4888   6.4889   6.5651   7.1769   7.4931

          k = 0.2500 0.2509 0.2500 (  5156 PWs)   bands (ev):

   -64.8309 -64.8263 -64.8263 -64.8255 -31.6254 -31.6241 -31.6240 -31.6065
   -31.5949 -31.5947 -31.5943 -31.5840 -31.5840 -31.5833 -31.5716 -31.5704
    -8.7943  -8.0334  -8.0328  -8.0279   3.9980   3.9988   4.0081   5.0971
     5.8436   5.8480   5.8558   6.6876   6.7072   6.7074   7.3418   7.3572

          k = 0.2500 0.2509-0.5000 (  5144 PWs)   bands (ev):

   -64.8287 -64.8283 -64.8263 -64.8257 -31.6273 -31.6272 -31.6217 -31.6216
   -31.5944 -31.5941 -31.5805 -31.5804 -31.5784 -31.5783 -31.5769 -31.5767
    -8.3971  -8.3970  -7.9992  -7.9991   3.8178   3.8179   4.2063   4.2065
     5.8352   5.8352   6.7419   6.7422   6.8709   6.8711   7.0002   7.0003

          k = 0.2500-0.4991 0.0000 (  5152 PWs)   bands (ev):

   -64.8292 -64.8288 -64.8258 -64.8252 -31.6188 -31.6158 -31.6114 -31.6087
   -31.6069 -31.6066 -31.5851 -31.5848 -31.5845 -31.5830 -31.5762 -31.5746
    -8.5123  -8.5066  -7.9499  -7.9436   4.4146   4.4223   4.7497   4.7530
     5.0932   5.0995   6.5357   6.5606   6.5714   6.5804   7.0849   7.1037

          k = 0.2500-0.4991 0.2500 (  5135 PWs)   bands (ev):

   -64.8287 -64.8283 -64.8263 -64.8256 -31.6285 -31.6272 -31.6220 -31.6199
   -31.5930 -31.5927 -31.5811 -31.5802 -31.5788 -31.5781 -31.5774 -31.5766
    -8.4018  -8.3961  -8.0001  -7.9940   3.8153   3.8279   4.1934   4.2027
     5.8276   5.8333   6.7315   6.7496   6.8626   6.8750   7.0136   7.0191

          k = 0.2500-0.4991-0.5000 (  5140 PWs)   bands (ev):

   -64.8275 -64.8275 -64.8274 -64.8264 -31.6325 -31.6323 -31.6306 -31.6305
   -31.5835 -31.5833 -31.5825 -31.5824 -31.5755 -31.5754 -31.5751 -31.5750
    -8.1706  -8.1705  -8.1648  -8.1647   3.6338   3.6339   3.6470   3.6471
     6.5150   6.5150   6.5340   6.5341   7.0617   7.0618   7.0674   7.0675

          k = 0.2500-0.2491 0.0000 (  5161 PWs)   bands (ev):

   -64.8319 -64.8263 -64.8259 -64.8249 -31.6219 -31.6217 -31.6195 -31.6059
   -31.5944 -31.5944 -31.5917 -31.5887 -31.5862 -31.5860 -31.5755 -31.5695
    -8.9678  -8.0615  -8.0614  -7.8923   4.1607   4.1608   4.3268   5.0604
     5.8410   6.0582   6.0586   6.4810   6.4810   6.6022   7.1699   7.5184

          k = 0.2500-0.2491 0.2500 (  5150 PWs)   bands (ev):

   -64.8309 -64.8263 -64.8262 -64.8254 -31.6262 -31.6260 -31.6247 -31.6055
   -31.5929 -31.5927 -31.5924 -31.5846 -31.5840 -31.5840 -31.5721 -31.5710
    -8.7979  -8.0333  -8.0283  -8.0278   3.9929   4.0022   4.0030   5.0815
     5.8360   5.8437   5.8481   6.7037   6.7039   6.7237   7.3537   7.3693

          k = 0.2500-0.2491-0.5000 (  5132 PWs)   bands (ev):

   -64.8287 -64.8283 -64.8262 -64.8256 -31.6288 -31.6287 -31.6205 -31.6204
   -31.5917 -31.5915 -31.5809 -31.5809 -31.5789 -31.5786 -31.5771 -31.5770
    -8.4009  -8.4008  -7.9948  -7.9948   3.8251   3.8252   4.1897   4.1898
     5.8256   5.8256   6.7385   6.7388   6.8668   6.8670   7.0321   7.0322

          k =-0.5000-0.0018 0.0000 (  5110 PWs)   bands (ev):

   -64.8299 -64.8295 -64.8251 -64.8245 -31.6095 -31.6095 -31.6093 -31.6092
   -31.6020 -31.6020 -31.5907 -31.5906 -31.5806 -31.5805 -31.5804 -31.5803
    -8.6459  -8.6457  -7.8564  -7.8562   4.8479   4.8480   4.8481   4.8481
     5.1228   5.1231   5.9735   5.9739   6.9684   6.9685   6.9685   6.9686

          k =-0.5000-0.0018 0.2500 (  5154 PWs)   bands (ev):

   -64.8292 -64.8288 -64.8258 -64.8252 -31.6175 -31.6173 -31.6101 -31.6101
   -31.6069 -31.6067 -31.5850 -31.5848 -31.5839 -31.5838 -31.5754 -31.5753
    -8.5095  -8.5094  -7.9468  -7.9467   4.4183   4.4184   4.7513   4.7515
     5.0963   5.0965   6.5478   6.5481   6.5759   6.5761   7.0942   7.0942

          k =-0.5000-0.0018-0.5000 (  5204 PWs)   bands (ev):

   -64.8275 -64.8275 -64.8274 -64.8264 -31.6194 -31.6192 -31.6190 -31.6190
   -31.5974 -31.5972 -31.5968 -31.5965 -31.5768 -31.5766 -31.5763 -31.5762
    -8.2085  -8.2084  -8.2020  -8.2019   4.2873   4.2875   4.2993   4.2994
     5.7597   5.7599   5.7753   5.7754   7.0601   7.0602   7.0667   7.0669

          k =-0.5000 0.2482 0.0000 (  5152 PWs)   bands (ev):

   -64.8292 -64.8288 -64.8258 -64.8252 -31.6188 -31.6158 -31.6114 -31.6087
   -31.6069 -31.6066 -31.5851 -31.5848 -31.5845 -31.5830 -31.5762 -31.5746
    -8.5123  -8.5066  -7.9499  -7.9436   4.4146   4.4223   4.7497   4.7530
     5.0932   5.0995   6.5356   6.5606   6.5714   6.5804   7.0849   7.1037

          k =-0.5000 0.2482 0.2500 (  5135 PWs)   bands (ev):

   -64.8287 -64.8283 -64.8263 -64.8256 -31.6285 -31.6272 -31.6220 -31.6199
   -31.5930 -31.5927 -31.5811 -31.5802 -31.5788 -31.5781 -31.5774 -31.5766
    -8.4018  -8.3961  -8.0001  -7.9940   3.8153   3.8278   4.1934   4.2028
     5.8276   5.8333   6.7314   6.7495   6.8626   6.8750   7.0136   7.0191

          k =-0.5000 0.2482-0.5000 (  5140 PWs)   bands (ev):

   -64.8275 -64.8275 -64.8274 -64.8264 -31.6325 -31.6324 -31.6306 -31.6305
   -31.5835 -31.5833 -31.5825 -31.5823 -31.5755 -31.5754 -31.5750 -31.5750
    -8.1714  -8.1713  -8.1640  -8.1639   3.6325   3.6325   3.6483   3.6484
     6.5135   6.5135   6.5356   6.5357   7.0608   7.0610   7.0682   7.0683

          k =-0.5000-0.5018 0.0000 (  5196 PWs)   bands (ev):

   -64.8275 -64.8275 -64.8274 -64.8264 -31.6206 -31.6204 -31.6176 -31.6174
   -31.5974 -31.5973 -31.5972 -31.5970 -31.5763 -31.5761 -31.5758 -31.5756
    -8.2095  -8.2094  -8.2010  -8.2009   4.2909   4.2910   4.2958   4.2959
     5.7619   5.7622   5.7724   5.7727   7.0491   7.0492   7.0783   7.0783

          k =-0.5000-0.5018 0.2500 (  5140 PWs)   bands (ev):

   -64.8275 -64.8275 -64.8274 -64.8264 -31.6324 -31.6322 -31.6307 -31.6305
   -31.5833 -31.5832 -31.5825 -31.5825 -31.5765 -31.5763 -31.5744 -31.5742
    -8.1719  -8.1718  -8.1635  -8.1634   3.6350   3.6351   3.6458   3.6458
     6.5227   6.5230   6.5259   6.5261   7.0503   7.0503   7.0789   7.0790

          k =-0.5000-0.5018-0.5000 (  5136 PWs)   bands (ev):

   -64.8275 -64.8275 -64.8274 -64.8264 -31.6403 -31.6402 -31.6387 -31.6386
   -31.5752 -31.5752 -31.5751 -31.5750 -31.5749 -31.5747 -31.5747 -31.5746
    -8.1339  -8.1338  -8.1254  -8.1253   3.2107   3.2108   3.2244   3.2245
     7.0509   7.0509   7.0650   7.0652   7.0656   7.0658   7.0801   7.0801

     highest occupied level (ev):     7.6856

!    total energy              =    -608.39280349 Ry
     Harris-Foulkes estimate   =    -608.39280349 Ry
     estimated scf accuracy    <          4.1E-09 Ry

     The total energy is the sum of the following terms:

     one-electron contribution =    -303.55670295 Ry
     hartree contribution      =     168.06764776 Ry
     xc contribution           =     -97.84638307 Ry
     ewald contribution        =    -375.05736523 Ry

     convergence has been achieved in   3 iterations

     Forces acting on atoms (cartesian axes, Ry/au):

     atom    1 type  1   force =     0.00075158    0.00000867    0.00000000
     atom    2 type  1   force =    -0.00081041   -0.00000926    0.00000000
     atom    3 type  1   force =     0.00076575    0.00000875    0.00000000
     atom    4 type  1   force =    -0.00069334   -0.00000815    0.00000000
     atom    5 type  2   force =     0.00090241    0.00000605    0.00000000
     atom    6 type  2   force =    -0.00093135   -0.00000563    0.00000000
     atom    7 type  2   force =     0.00089372    0.00000586    0.00000000
     atom    8 type  2   force =    -0.00087835   -0.00000629    0.00000000

     Total force =     0.002354     Total SCF correction =     0.000054


     Computing stress (Cartesian axis) and pressure

          total   stress  (Ry/bohr**3)                   (kbar)     P=  -68.08
  -0.00046333   0.00003514   0.00000000        -68.16      5.17      0.00
   0.00003514  -0.00046298   0.00000000          5.17    -68.11      0.00
   0.00000000   0.00000000  -0.00046212          0.00      0.00    -67.98


     number of scf cycles    =   2
     number of bfgs steps    =   1

     energy   old            =    -608.3927967289 Ry
     energy   new            =    -608.3928034916 Ry

     CASE: energy  _new < energy  _old


     WARNING: bfgs curvature condition failed, Theta= 0.917
     new trust radius        =       0.0012234001 bohr
     new conv_thr            =            1.0E-10 Ry


ATOMIC_POSITIONS (alat)
Mg       0.000226521   0.000003400   0.000000000
Mg      -0.000244853   0.499996380   0.500000000
Mg       0.500228438   0.000003369   0.500000000
Mg       0.499796596   0.499997023   0.000000000
O        0.500277308   0.000001934   0.000000000
O       -0.000290317   0.499998043   0.000000000
O        0.000275997   0.000001874   0.500000000
O        0.499730310   0.499997978   0.500000000



     Writing output data file diamond..70.4.save
     NEW-OLD atomic charge density approx. for the potential

     Check: negative/imaginary core charge=   -0.000007    0.000000

     total cpu time spent up to now is       15.1 secs

     per-process dynamical memory:    52.3 Mb

     Self-consistent Calculation

     iteration #  1     ecut=    70.00 Ry     beta=0.70
     Davidson diagonalization with overlap
     ethr =  1.00E-06,  avg # of iterations =  2.6

     Threshold (ethr) on eigenvalues was too large:
     Diagonalizing with lowered threshold

     Davidson diagonalization with overlap
     ethr =  7.40E-10,  avg # of iterations =  3.0

     total cpu time spent up to now is       17.5 secs

     total energy              =    -608.39280987 Ry
     Harris-Foulkes estimate   =    -608.39281022 Ry
     estimated scf accuracy    <       0.00000060 Ry

     iteration #  2     ecut=    70.00 Ry     beta=0.70
     Davidson diagonalization with overlap
     ethr =  9.41E-10,  avg # of iterations =  2.0

     total cpu time spent up to now is       18.5 secs

     total energy              =    -608.39280997 Ry
     Harris-Foulkes estimate   =    -608.39281000 Ry
     estimated scf accuracy    <       0.00000005 Ry

     iteration #  3     ecut=    70.00 Ry     beta=0.70
     Davidson diagonalization with overlap
     ethr =  7.62E-11,  avg # of iterations =  3.0

     total cpu time spent up to now is       19.6 secs

     total energy              =    -608.39280998 Ry
     Harris-Foulkes estimate   =    -608.39280999 Ry
     estimated scf accuracy    <       0.00000004 Ry

     iteration #  4     ecut=    70.00 Ry     beta=0.70
     Davidson diagonalization with overlap
     ethr =  5.95E-11,  avg # of iterations =  2.7

     total cpu time spent up to now is       20.6 secs

     total energy              =    -608.39280999 Ry
     Harris-Foulkes estimate   =    -608.39280999 Ry
     estimated scf accuracy    <          1.4E-09 Ry

     iteration #  5     ecut=    70.00 Ry     beta=0.70
     Davidson diagonalization with overlap
     ethr =  2.12E-12,  avg # of iterations =  2.9

     total cpu time spent up to now is       21.7 secs

     End of self-consistent calculation

          k = 0.0000 0.0000 0.0000 (  5145 PWs)   bands (ev):

   -64.8345 -64.8251 -64.8251 -64.8243 -31.6310 -31.6310 -31.6310 -31.5942
   -31.5935 -31.5934 -31.5933 -31.5933 -31.5926 -31.5646 -31.5637 -31.5635
    -9.3646  -7.9137  -7.9136  -7.9135   3.7582   3.7582   3.7582   6.3594
     6.3800   6.3801   6.3801   6.3804   6.4010   7.6595   7.6725   7.6855

          k = 0.0000 0.0000 0.2500 (  5157 PWs)   bands (ev):

   -64.8331 -64.8263 -64.8251 -64.8244 -31.6243 -31.6242 -31.6205 -31.5981
   -31.5980 -31.5940 -31.5939 -31.5899 -31.5882 -31.5782 -31.5725 -31.5705
    -9.1561  -8.1285  -7.8852  -7.8851   4.0485   4.0487   4.0957   5.8582
     5.8582   6.1706   6.1710   6.5229   6.5628   6.6590   7.4359   7.4649

          k = 0.0000 0.0000-0.5000 (  5110 PWs)   bands (ev):

   -64.8299 -64.8294 -64.8251 -64.8245 -31.6112 -31.6110 -31.6076 -31.6074
   -31.6020 -31.6019 -31.5908 -31.5907 -31.5815 -31.5813 -31.5796 -31.5794
    -8.6459  -8.6458  -7.8564  -7.8563   4.8456   4.8456   4.8504   4.8504
     5.1228   5.1231   5.9735   5.9739   6.9509   6.9510   6.9860   6.9860

          k = 0.0000 0.2500 0.0000 (  5159 PWs)   bands (ev):

   -64.8331 -64.8263 -64.8251 -64.8244 -31.6245 -31.6244 -31.6206 -31.5984
   -31.5983 -31.5939 -31.5935 -31.5891 -31.5889 -31.5784 -31.5715 -31.5713
    -9.1561  -8.1284  -7.8852  -7.8851   4.0485   4.0485   4.0955   5.8571
     5.8582   6.1707   6.1720   6.5429   6.5431   6.6589   7.4503   7.4505

          k = 0.0000 0.2500 0.2500 (  5157 PWs)   bands (ev):

   -64.8319 -64.8263 -64.8259 -64.8248 -31.6212 -31.6208 -31.6196 -31.6071
   -31.5941 -31.5940 -31.5930 -31.5878 -31.5866 -31.5864 -31.5754 -31.5684
    -8.9660  -8.0638  -8.0637  -7.8901   4.1613   4.1616   4.3288   5.0714
     5.8471   6.0552   6.0557   6.4850   6.4855   6.5836   7.1734   7.5058

          k = 0.0000 0.2500-0.5000 (  5152 PWs)   bands (ev):

   -64.8292 -64.8287 -64.8258 -64.8252 -31.6175 -31.6173 -31.6101 -31.6101
   -31.6067 -31.6065 -31.5851 -31.5849 -31.5837 -31.5837 -31.5754 -31.5753
    -8.5096  -8.5094  -7.9468  -7.9467   4.4185   4.4186   4.7511   4.7513
     5.0963   5.0964   6.5479   6.5481   6.5757   6.5758   7.0944   7.0945

          k = 0.0000-0.5000 0.0000 (  5110 PWs)   bands (ev):

   -64.8299 -64.8294 -64.8250 -64.8245 -31.6095 -31.6094 -31.6093 -31.6092
   -31.6020 -31.6020 -31.5907 -31.5905 -31.5806 -31.5805 -31.5804 -31.5803
    -8.6459  -8.6458  -7.8564  -7.8563   4.8478   4.8480   4.8480   4.8481
     5.1228   5.1231   5.9736   5.9740   6.9684   6.9684   6.9685   6.9685

          k = 0.0000-0.5000 0.2500 (  5154 PWs)   bands (ev):

   -64.8292 -64.8288 -64.8258 -64.8252 -31.6175 -31.6173 -31.6101 -31.6101
   -31.6069 -31.6066 -31.5850 -31.5848 -31.5839 -31.5838 -31.5754 -31.5753
    -8.5095  -8.5094  -7.9469  -7.9468   4.4184   4.4185   4.7512   4.7514
     5.0963   5.0964   6.5479   6.5482   6.5759   6.5759   7.0941   7.0943

          k = 0.0000-0.5000-0.5000 (  5204 PWs)   bands (ev):

   -64.8275 -64.8275 -64.8275 -64.8264 -31.6194 -31.6192 -31.6190 -31.6190
   -31.5972 -31.5970 -31.5970 -31.5967 -31.5767 -31.5765 -31.5763 -31.5763
    -8.2054  -8.2052  -8.2052  -8.2051   4.2933   4.2934   4.2934   4.2935
     5.7673   5.7674   5.7677   5.7677   7.0633   7.0634   7.0635   7.0636

          k = 0.2500 0.0009 0.0000 (  5159 PWs)   bands (ev):

   -64.8331 -64.8263 -64.8251 -64.8244 -31.6245 -31.6244 -31.6206 -31.5984
   -31.5983 -31.5939 -31.5935 -31.5891 -31.5889 -31.5784 -31.5715 -31.5713
    -9.1561  -8.1285  -7.8852  -7.8851   4.0485   4.0485   4.0955   5.8573
     5.8582   6.1707   6.1717   6.5428   6.5431   6.6589   7.4503   7.4505

          k = 0.2500 0.0009 0.2500 (  5157 PWs)   bands (ev):

   -64.8319 -64.8263 -64.8259 -64.8248 -31.6212 -31.6208 -31.6196 -31.6071
   -31.5942 -31.5938 -31.5930 -31.5878 -31.5866 -31.5864 -31.5754 -31.5684
    -8.9660  -8.0657  -8.0618  -7.8901   4.1582   4.1647   4.3288   5.0714
     5.8471   6.0507   6.0603   6.4829   6.4874   6.5835   7.1734   7.5058

          k = 0.2500 0.0009-0.5000 (  5152 PWs)   bands (ev):

   -64.8292 -64.8287 -64.8258 -64.8252 -31.6175 -31.6173 -31.6101 -31.6101
   -31.6068 -31.6065 -31.5851 -31.5848 -31.5837 -31.5837 -31.5754 -31.5753
    -8.5096  -8.5094  -7.9468  -7.9467   4.4184   4.4185   4.7512   4.7514
     5.0963   5.0964   6.5479   6.5481   6.5757   6.5758   7.0944   7.0945

          k = 0.2500 0.2509 0.0000 (  5157 PWs)   bands (ev):

   -64.8319 -64.8263 -64.8259 -64.8248 -31.6202 -31.6200 -31.6195 -31.6085
   -31.5943 -31.5942 -31.5942 -31.5871 -31.5870 -31.5869 -31.5753 -31.5673
    -8.9641  -8.0660  -8.0659  -7.8880   4.1623   4.1624   4.3307   5.0824
     5.8533   6.0526   6.0529   6.4888   6.4889   6.5650   7.1769   7.4931

          k = 0.2500 0.2509 0.2500 (  5156 PWs)   bands (ev):

   -64.8309 -64.8263 -64.8262 -64.8255 -31.6254 -31.6241 -31.6240 -31.6065
   -31.5948 -31.5946 -31.5943 -31.5840 -31.5840 -31.5833 -31.5715 -31.5704
    -8.7943  -8.0332  -8.0328  -8.0282   3.9983   3.9988   4.0078   5.0970
     5.8447   5.8480   5.8547   6.6876   6.7072   6.7074   7.3418   7.3572

          k = 0.2500 0.2509-0.5000 (  5144 PWs)   bands (ev):

   -64.8287 -64.8282 -64.8263 -64.8257 -31.6273 -31.6272 -31.6216 -31.6216
   -31.5944 -31.5941 -31.5804 -31.5804 -31.5784 -31.5783 -31.5769 -31.5767
    -8.3972  -8.3970  -7.9993  -7.9992   3.8178   3.8179   4.2063   4.2065
     5.8352   5.8352   6.7419   6.7422   6.8709   6.8710   7.0002   7.0003

          k = 0.2500-0.4991 0.0000 (  5152 PWs)   bands (ev):

   -64.8292 -64.8287 -64.8258 -64.8252 -31.6188 -31.6157 -31.6114 -31.6087
   -31.6069 -31.6066 -31.5851 -31.5848 -31.5845 -31.5830 -31.5762 -31.5746
    -8.5123  -8.5066  -7.9499  -7.9437   4.4146   4.4223   4.7497   4.7529
     5.0932   5.0995   6.5356   6.5606   6.5714   6.5804   7.0849   7.1036

          k = 0.2500-0.4991 0.2500 (  5135 PWs)   bands (ev):

   -64.8287 -64.8283 -64.8263 -64.8256 -31.6285 -31.6272 -31.6220 -31.6199
   -31.5929 -31.5927 -31.5811 -31.5802 -31.5788 -31.5781 -31.5774 -31.5766
    -8.4018  -8.3961  -8.0001  -7.9940   3.8153   3.8279   4.1934   4.2027
     5.8276   5.8333   6.7314   6.7495   6.8625   6.8749   7.0135   7.0191

          k = 0.2500-0.4991-0.5000 (  5140 PWs)   bands (ev):

   -64.8275 -64.8275 -64.8274 -64.8264 -31.6325 -31.6323 -31.6306 -31.6305
   -31.5835 -31.5833 -31.5825 -31.5824 -31.5755 -31.5754 -31.5751 -31.5750
    -8.1706  -8.1705  -8.1649  -8.1648   3.6338   3.6339   3.6470   3.6471
     6.5150   6.5150   6.5340   6.5341   7.0616   7.0618   7.0673   7.0675

          k = 0.2500-0.2491 0.0000 (  5161 PWs)   bands (ev):

   -64.8319 -64.8262 -64.8259 -64.8249 -31.6219 -31.6217 -31.6195 -31.6059
   -31.5944 -31.5944 -31.5917 -31.5887 -31.5861 -31.5860 -31.5755 -31.5695
    -8.9678  -8.0615  -8.0614  -7.8923   4.1607   4.1608   4.3268   5.0603
     5.8410   6.0582   6.0585   6.4809   6.4810   6.6022   7.1699   7.5184

          k = 0.2500-0.2491 0.2500 (  5150 PWs)   bands (ev):

   -64.8309 -64.8263 -64.8262 -64.8254 -31.6261 -31.6260 -31.6247 -31.6055
   -31.5929 -31.5926 -31.5924 -31.5846 -31.5840 -31.5840 -31.5720 -31.5710
    -8.7980  -8.0331  -8.0284  -8.0280   3.9932   4.0022   4.0027   5.0815
     5.8370   5.8437   5.8470   6.7037   6.7038   6.7237   7.3537   7.3692

          k = 0.2500-0.2491-0.5000 (  5132 PWs)   bands (ev):

   -64.8287 -64.8283 -64.8262 -64.8256 -31.6288 -31.6287 -31.6205 -31.6204
   -31.5917 -31.5915 -31.5809 -31.5809 -31.5789 -31.5786 -31.5771 -31.5770
    -8.4010  -8.4008  -7.9949  -7.9948   3.8251   3.8252   4.1897   4.1898
     5.8256   5.8256   6.7385   6.7388   6.8668   6.8669   7.0321   7.0321

          k =-0.5000-0.0018 0.0000 (  5110 PWs)   bands (ev):

   -64.8299 -64.8295 -64.8250 -64.8245 -31.6095 -31.6094 -31.6093 -31.6092
   -31.6020 -31.6020 -31.5906 -31.5906 -31.5806 -31.5805 -31.5804 -31.5803
    -8.6459  -8.6457  -7.8564  -7.8563   4.8479   4.8479   4.8481   4.8481
     5.1228   5.1230   5.9735   5.9739   6.9684   6.9684   6.9685   6.9685

          k =-0.5000-0.0018 0.2500 (  5154 PWs)   bands (ev):

   -64.8292 -64.8288 -64.8258 -64.8252 -31.6175 -31.6173 -31.6101 -31.6101
   -31.6068 -31.6066 -31.5850 -31.5848 -31.5839 -31.5838 -31.5754 -31.5753
    -8.5096  -8.5094  -7.9468  -7.9468   4.4183   4.4184   4.7512   4.7514
     5.0963   5.0965   6.5478   6.5481   6.5759   6.5760   7.0941   7.0942

          k =-0.5000-0.0018-0.5000 (  5204 PWs)   bands (ev):

   -64.8275 -64.8275 -64.8274 -64.8264 -31.6194 -31.6192 -31.6190 -31.6190
   -31.5973 -31.5971 -31.5968 -31.5965 -31.5767 -31.5766 -31.5763 -31.5763
    -8.2079  -8.2077  -8.2026  -8.2026   4.2885   4.2887   4.2981   4.2982
     5.7612   5.7614   5.7737   5.7739   7.0607   7.0608   7.0660   7.0662

          k =-0.5000 0.2482 0.0000 (  5152 PWs)   bands (ev):

   -64.8292 -64.8288 -64.8258 -64.8252 -31.6188 -31.6157 -31.6114 -31.6087
   -31.6069 -31.6066 -31.5851 -31.5848 -31.5845 -31.5830 -31.5762 -31.5746
    -8.5123  -8.5066  -7.9499  -7.9437   4.4146   4.4223   4.7497   4.7529
     5.0932   5.0995   6.5356   6.5605   6.5714   6.5804   7.0849   7.1036

          k =-0.5000 0.2482 0.2500 (  5135 PWs)   bands (ev):

   -64.8287 -64.8283 -64.8263 -64.8256 -31.6285 -31.6272 -31.6220 -31.6199
   -31.5929 -31.5927 -31.5811 -31.5802 -31.5788 -31.5781 -31.5774 -31.5766
    -8.4018  -8.3961  -8.0001  -7.9940   3.8153   3.8278   4.1934   4.2027
     5.8276   5.8333   6.7314   6.7495   6.8626   6.8750   7.0135   7.0191

          k =-0.5000 0.2482-0.5000 (  5140 PWs)   bands (ev):

   -64.8275 -64.8275 -64.8274 -64.8264 -31.6325 -31.6323 -31.6306 -31.6305
   -31.5835 -31.5833 -31.5825 -31.5823 -31.5755 -31.5754 -31.5750 -31.5750
    -8.1712  -8.1711  -8.1643  -8.1642   3.6329   3.6330   3.6478   3.6479
     6.5140   6.5140   6.5350   6.5351   7.0611   7.0612   7.0679   7.0680

          k =-0.5000-0.5018 0.0000 (  5196 PWs)   bands (ev):

   -64.8275 -64.8275 -64.8274 -64.8264 -31.6206 -31.6204 -31.6176 -31.6173
   -31.5974 -31.5972 -31.5972 -31.5969 -31.5763 -31.5760 -31.5758 -31.5756
    -8.2095  -8.2094  -8.2010  -8.2009   4.2909   4.2910   4.2957   4.2959
     5.7618   5.7622   5.7723   5.7727   7.0491   7.0491   7.0782   7.0783

          k =-0.5000-0.5018 0.2500 (  5140 PWs)   bands (ev):

   -64.8275 -64.8275 -64.8274 -64.8264 -31.6324 -31.6322 -31.6307 -31.6305
   -31.5832 -31.5832 -31.5825 -31.5825 -31.5765 -31.5762 -31.5744 -31.5742
    -8.1720  -8.1719  -8.1635  -8.1634   3.6350   3.6351   3.6457   3.6458
     6.5227   6.5230   6.5259   6.5261   7.0503   7.0503   7.0789   7.0789

          k =-0.5000-0.5018-0.5000 (  5136 PWs)   bands (ev):

   -64.8275 -64.8275 -64.8274 -64.8264 -31.6403 -31.6402 -31.6387 -31.6386
   -31.5752 -31.5752 -31.5751 -31.5750 -31.5749 -31.5747 -31.5747 -31.5746
    -8.1339  -8.1338  -8.1254  -8.1253   3.2107   3.2108   3.2244   3.2245
     7.0509   7.0509   7.0649   7.0652   7.0656   7.0658   7.0801   7.0801

     highest occupied level (ev):     7.6855

!    total energy              =    -608.39280999 Ry
     Harris-Foulkes estimate   =    -608.39280999 Ry
     estimated scf accuracy    <          4.4E-11 Ry

     The total energy is the sum of the following terms:

     one-electron contribution =    -303.55684804 Ry
     hartree contribution      =     168.06775510 Ry
     xc contribution           =     -97.84640438 Ry
     ewald contribution        =    -375.05731266 Ry

     convergence has been achieved in   5 iterations

     Forces acting on atoms (cartesian axes, Ry/au):

     atom    1 type  1   force =     0.00061556    0.00000461    0.00000000
     atom    2 type  1   force =    -0.00067122   -0.00000519    0.00000000
     atom    3 type  1   force =     0.00065622    0.00000489    0.00000000
     atom    4 type  1   force =    -0.00059582   -0.00000440    0.00000000
     atom    5 type  2   force =     0.00071306    0.00000221    0.00000000
     atom    6 type  2   force =    -0.00072297   -0.00000196    0.00000000
     atom    7 type  2   force =     0.00069810    0.00000189    0.00000000
     atom    8 type  2   force =    -0.00069294   -0.00000205    0.00000000

     Total force =     0.001901     Total SCF correction =     0.000008


     Computing stress (Cartesian axis) and pressure

          total   stress  (Ry/bohr**3)                   (kbar)     P=  -68.07
  -0.00046326   0.00003514   0.00000000        -68.15      5.17      0.00
   0.00003514  -0.00046294   0.00000000          5.17    -68.10      0.00
   0.00000000   0.00000000  -0.00046203          0.00      0.00    -67.97


     number of scf cycles    =   3
     number of bfgs steps    =   2

     energy   old            =    -608.3928034916 Ry
     energy   new            =    -608.3928099859 Ry

     CASE: energy  _new < energy  _old

     new trust radius        =       0.0018351001 bohr
     new conv_thr            =            1.0E-10 Ry


ATOMIC_POSITIONS (alat)
Mg       0.000416766   0.000005153   0.000000000
Mg      -0.000451872   0.499994449   0.500000000
Mg       0.500428713   0.000005182   0.500000000
Mg       0.499615508   0.499995401   0.000000000
O        0.500500560   0.000002835   0.000000000
O       -0.000518427   0.499997198   0.000000000
O        0.000495436   0.000002687   0.500000000
O        0.499513316   0.499997097   0.500000000



     Writing output data file diamond..70.4.save
     NEW-OLD atomic charge density approx. for the potential

     Check: negative/imaginary core charge=   -0.000007    0.000000

     total cpu time spent up to now is       22.2 secs

     per-process dynamical memory:    52.3 Mb

     Self-consistent Calculation

     iteration #  1     ecut=    70.00 Ry     beta=0.70
     Davidson diagonalization with overlap
     ethr =  1.00E-06,  avg # of iterations =  3.0

     Threshold (ethr) on eigenvalues was too large:
     Diagonalizing with lowered threshold

     Davidson diagonalization with overlap
     ethr =  1.95E-09,  avg # of iterations =  2.7

     total cpu time spent up to now is       24.6 secs

     total energy              =    -608.39281725 Ry
     Harris-Foulkes estimate   =    -608.39281798 Ry
     estimated scf accuracy    <       0.00000132 Ry

     iteration #  2     ecut=    70.00 Ry     beta=0.70
     Davidson diagonalization with overlap
     ethr =  2.05E-09,  avg # of iterations =  2.0

     total cpu time spent up to now is       25.6 secs

     total energy              =    -608.39281747 Ry
     Harris-Foulkes estimate   =    -608.39281748 Ry
     estimated scf accuracy    <       0.00000003 Ry

     iteration #  3     ecut=    70.00 Ry     beta=0.70
     Davidson diagonalization with overlap
     ethr =  5.09E-11,  avg # of iterations =  2.0

     total cpu time spent up to now is       26.6 secs

     total energy              =    -608.39281747 Ry
     Harris-Foulkes estimate   =    -608.39281747 Ry
     estimated scf accuracy    <          2.1E-09 Ry

     iteration #  4     ecut=    70.00 Ry     beta=0.70
     Davidson diagonalization with overlap
     ethr =  3.25E-12,  avg # of iterations =  2.1

     total cpu time spent up to now is       27.6 secs

     total energy              =    -608.39281747 Ry
     Harris-Foulkes estimate   =    -608.39281747 Ry
     estimated scf accuracy    <          2.6E-10 Ry

     iteration #  5     ecut=    70.00 Ry     beta=0.70
     Davidson diagonalization with overlap
     ethr =  4.02E-13,  avg # of iterations =  3.0

     total cpu time spent up to now is       28.6 secs

     End of self-consistent calculation

          k = 0.0000 0.0000 0.0000 (  5145 PWs)   bands (ev):

   -64.8345 -64.8251 -64.8250 -64.8243 -31.6310 -31.6310 -31.6310 -31.5942
   -31.5934 -31.5934 -31.5933 -31.5933 -31.5926 -31.5646 -31.5636 -31.5634
    -9.3646  -7.9137  -7.9136  -7.9136   3.7581   3.7582   3.7582   6.3594
     6.3800   6.3801   6.3801   6.3804   6.4010   7.6595   7.6725   7.6855

          k = 0.0000 0.0000 0.2500 (  5157 PWs)   bands (ev):

   -64.8331 -64.8263 -64.8250 -64.8244 -31.6242 -31.6242 -31.6204 -31.5981
   -31.5980 -31.5940 -31.5939 -31.5899 -31.5882 -31.5782 -31.5724 -31.5704
    -9.1562  -8.1285  -7.8852  -7.8851   4.0486   4.0487   4.0956   5.8582
     5.8582   6.1706   6.1709   6.5229   6.5628   6.6589   7.4359   7.4648

          k = 0.0000 0.0000-0.5000 (  5110 PWs)   bands (ev):

   -64.8299 -64.8294 -64.8250 -64.8245 -31.6112 -31.6110 -31.6076 -31.6074
   -31.6020 -31.6019 -31.5908 -31.5907 -31.5815 -31.5813 -31.5796 -31.5794
    -8.6459  -8.6458  -7.8564  -7.8563   4.8456   4.8456   4.8504   4.8504
     5.1227   5.1230   5.9735   5.9738   6.9509   6.9510   6.9859   6.9860

          k = 0.0000 0.2500 0.0000 (  5159 PWs)   bands (ev):

   -64.8331 -64.8263 -64.8250 -64.8244 -31.6245 -31.6244 -31.6206 -31.5984
   -31.5983 -31.5938 -31.5935 -31.5890 -31.5889 -31.5783 -31.5715 -31.5713
    -9.1561  -8.1285  -7.8852  -7.8851   4.0485   4.0485   4.0955   5.8572
     5.8582   6.1707   6.1718   6.5428   6.5431   6.6589   7.4503   7.4505

          k = 0.0000 0.2500 0.2500 (  5157 PWs)   bands (ev):

   -64.8319 -64.8262 -64.8259 -64.8248 -31.6212 -31.6208 -31.6196 -31.6071
   -31.5940 -31.5940 -31.5930 -31.5878 -31.5866 -31.5864 -31.5754 -31.5683
    -8.9660  -8.0638  -8.0637  -7.8901   4.1613   4.1616   4.3288   5.0714
     5.8471   6.0552   6.0557   6.4849   6.4855   6.5835   7.1734   7.5058

          k = 0.0000 0.2500-0.5000 (  5152 PWs)   bands (ev):

   -64.8292 -64.8287 -64.8257 -64.8251 -31.6175 -31.6173 -31.6101 -31.6100
   -31.6067 -31.6065 -31.5851 -31.5848 -31.5837 -31.5837 -31.5754 -31.5752
    -8.5096  -8.5094  -7.9468  -7.9468   4.4184   4.4186   4.7511   4.7513
     5.0963   5.0964   6.5479   6.5481   6.5757   6.5758   7.0944   7.0944

          k = 0.0000-0.5000 0.0000 (  5110 PWs)   bands (ev):

   -64.8299 -64.8294 -64.8250 -64.8245 -31.6095 -31.6094 -31.6093 -31.6092
   -31.6020 -31.6020 -31.5906 -31.5905 -31.5806 -31.5805 -31.5804 -31.5803
    -8.6459  -8.6458  -7.8564  -7.8563   4.8478   4.8480   4.8480   4.8481
     5.1227   5.1230   5.9735   5.9739   6.9684   6.9684   6.9685   6.9685

          k = 0.0000-0.5000 0.2500 (  5154 PWs)   bands (ev):

   -64.8292 -64.8287 -64.8257 -64.8251 -31.6175 -31.6173 -31.6101 -31.6101
   -31.6068 -31.6066 -31.5850 -31.5848 -31.5839 -31.5838 -31.5754 -31.5753
    -8.5095  -8.5094  -7.9469  -7.9468   4.4184   4.4185   4.7512   4.7514
     5.0963   5.0964   6.5478   6.5481   6.5759   6.5759   7.0941   7.0942

          k = 0.0000-0.5000-0.5000 (  5204 PWs)   bands (ev):

   -64.8275 -64.8275 -64.8274 -64.8264 -31.6193 -31.6191 -31.6190 -31.6190
   -31.5971 -31.5969 -31.5969 -31.5967 -31.5767 -31.5765 -31.5763 -31.5763
    -8.2054  -8.2052  -8.2052  -8.2052   4.2933   4.2933   4.2933   4.2935
     5.7673   5.7674   5.7677   5.7677   7.0633   7.0634   7.0634   7.0636

          k = 0.2500 0.0009 0.0000 (  5159 PWs)   bands (ev):

   -64.8331 -64.8263 -64.8250 -64.8244 -31.6245 -31.6244 -31.6206 -31.5983
   -31.5983 -31.5939 -31.5935 -31.5890 -31.5889 -31.5784 -31.5715 -31.5713
    -9.1561  -8.1285  -7.8852  -7.8851   4.0485   4.0485   4.0955   5.8573
     5.8582   6.1707   6.1717   6.5428   6.5431   6.6589   7.4503   7.4505

          k = 0.2500 0.0009 0.2500 (  5157 PWs)   bands (ev):

   -64.8319 -64.8263 -64.8259 -64.8248 -31.6212 -31.6208 -31.6196 -31.6071
   -31.5941 -31.5939 -31.5930 -31.5878 -31.5866 -31.5864 -31.5754 -31.5683
    -8.9660  -8.0650  -8.0626  -7.8901   4.1594   4.1635   4.3288   5.0714
     5.8471   6.0525   6.0585   6.4837   6.4866   6.5835   7.1734   7.5058

          k = 0.2500 0.0009-0.5000 (  5152 PWs)   bands (ev):

   -64.8292 -64.8287 -64.8257 -64.8251 -31.6175 -31.6173 -31.6101 -31.6100
   -31.6067 -31.6065 -31.5851 -31.5848 -31.5837 -31.5837 -31.5754 -31.5752
    -8.5096  -8.5094  -7.9468  -7.9468   4.4184   4.4185   4.7511   4.7514
     5.0962   5.0964   6.5479   6.5481   6.5757   6.5758   7.0944   7.0944

          k = 0.2500 0.2509 0.0000 (  5157 PWs)   bands (ev):

   -64.8319 -64.8263 -64.8259 -64.8248 -31.6202 -31.6200 -31.6195 -31.6085
   -31.5942 -31.5942 -31.5942 -31.5870 -31.5870 -31.5869 -31.5753 -31.5673
    -8.9642  -8.0661  -8.0660  -7.8880   4.1623   4.1624   4.3306   5.0824
     5.8533   6.0525   6.0529   6.4888   6.4888   6.5650   7.1769   7.4931

          k = 0.2500 0.2509 0.2500 (  5156 PWs)   bands (ev):

   -64.8309 -64.8263 -64.8262 -64.8254 -31.6254 -31.6241 -31.6240 -31.6065
   -31.5948 -31.5946 -31.5943 -31.5840 -31.5840 -31.5832 -31.5715 -31.5704
    -8.7943  -8.0330  -8.0328  -8.0284   3.9986   3.9988   4.0075   5.0970
     5.8462   5.8480   5.8531   6.6876   6.7072   6.7073   7.3417   7.3571

          k = 0.2500 0.2509-0.5000 (  5144 PWs)   bands (ev):

   -64.8286 -64.8282 -64.8263 -64.8256 -31.6273 -31.6272 -31.6216 -31.6215
   -31.5943 -31.5941 -31.5804 -31.5804 -31.5784 -31.5783 -31.5769 -31.5767
    -8.3972  -8.3971  -7.9993  -7.9992   3.8178   3.8179   4.2063   4.2064
     5.8352   5.8352   6.7419   6.7421   6.8708   6.8710   7.0002   7.0002

          k = 0.2500-0.4991 0.0000 (  5152 PWs)   bands (ev):

   -64.8292 -64.8287 -64.8257 -64.8251 -31.6187 -31.6157 -31.6114 -31.6087
   -31.6069 -31.6066 -31.5851 -31.5848 -31.5845 -31.5829 -31.5762 -31.5746
    -8.5123  -8.5066  -7.9500  -7.9437   4.4146   4.4223   4.7496   4.7529
     5.0932   5.0995   6.5356   6.5605   6.5714   6.5804   7.0848   7.1036

          k = 0.2500-0.4991 0.2500 (  5135 PWs)   bands (ev):

   -64.8287 -64.8283 -64.8262 -64.8256 -31.6285 -31.6272 -31.6220 -31.6199
   -31.5929 -31.5927 -31.5811 -31.5802 -31.5788 -31.5781 -31.5773 -31.5766
    -8.4019  -8.3962  -8.0001  -7.9940   3.8153   3.8278   4.1933   4.2027
     5.8276   5.8333   6.7314   6.7495   6.8625   6.8749   7.0135   7.0191

          k = 0.2500-0.4991-0.5000 (  5140 PWs)   bands (ev):

   -64.8275 -64.8274 -64.8274 -64.8264 -31.6325 -31.6323 -31.6306 -31.6305
   -31.5835 -31.5832 -31.5825 -31.5823 -31.5755 -31.5753 -31.5750 -31.5750
    -8.1707  -8.1706  -8.1649  -8.1648   3.6338   3.6338   3.6470   3.6471
     6.5149   6.5150   6.5340   6.5341   7.0616   7.0618   7.0673   7.0674

          k = 0.2500-0.2491 0.0000 (  5161 PWs)   bands (ev):

   -64.8319 -64.8262 -64.8259 -64.8248 -31.6218 -31.6217 -31.6195 -31.6059
   -31.5944 -31.5944 -31.5917 -31.5887 -31.5861 -31.5860 -31.5755 -31.5695
    -8.9678  -8.0616  -8.0615  -7.8923   4.1606   4.1608   4.3268   5.0603
     5.8410   6.0581   6.0585   6.4809   6.4810   6.6022   7.1698   7.5183

          k = 0.2500-0.2491 0.2500 (  5150 PWs)   bands (ev):

   -64.8309 -64.8263 -64.8262 -64.8254 -31.6261 -31.6260 -31.6246 -31.6055
   -31.5929 -31.5926 -31.5924 -31.5846 -31.5840 -31.5839 -31.5720 -31.5710
    -8.7980  -8.0329  -8.0284  -8.0282   3.9935   4.0022   4.0024   5.0815
     5.8386   5.8437   5.8454   6.7036   6.7038   6.7236   7.3536   7.3692

          k = 0.2500-0.2491-0.5000 (  5132 PWs)   bands (ev):

   -64.8287 -64.8283 -64.8262 -64.8256 -31.6288 -31.6286 -31.6204 -31.6204
   -31.5917 -31.5915 -31.5809 -31.5809 -31.5789 -31.5786 -31.5771 -31.5770
    -8.4010  -8.4009  -7.9949  -7.9948   3.8251   3.8252   4.1896   4.1898
     5.8256   5.8256   6.7385   6.7387   6.8667   6.8669   7.0320   7.0321

          k =-0.5000-0.0018 0.0000 (  5110 PWs)   bands (ev):

   -64.8299 -64.8294 -64.8250 -64.8245 -31.6095 -31.6094 -31.6093 -31.6092
   -31.6020 -31.6020 -31.5906 -31.5906 -31.5806 -31.5805 -31.5804 -31.5803
    -8.6460  -8.6457  -7.8564  -7.8563   4.8478   4.8478   4.8482   4.8482
     5.1227   5.1231   5.9735   5.9739   6.9683   6.9683   6.9685   6.9686

          k =-0.5000-0.0018 0.2500 (  5154 PWs)   bands (ev):

   -64.8292 -64.8287 -64.8257 -64.8252 -31.6174 -31.6173 -31.6101 -31.6101
   -31.6068 -31.6066 -31.5850 -31.5848 -31.5839 -31.5838 -31.5754 -31.5753
    -8.5096  -8.5094  -7.9469  -7.9468   4.4183   4.4185   4.7512   4.7514
     5.0962   5.0966   6.5478   6.5481   6.5758   6.5761   7.0941   7.0942

          k =-0.5000-0.0018-0.5000 (  5204 PWs)   bands (ev):

   -64.8275 -64.8275 -64.8274 -64.8264 -31.6193 -31.6192 -31.6190 -31.6190
   -31.5973 -31.5970 -31.5968 -31.5966 -31.5767 -31.5765 -31.5763 -31.5763
    -8.2070  -8.2068  -8.2036  -8.2036   4.2903   4.2904   4.2962   4.2964
     5.7634   5.7638   5.7713   5.7716   7.0617   7.0618   7.0650   7.0653

          k =-0.5000 0.2482 0.0000 (  5152 PWs)   bands (ev):

   -64.8292 -64.8287 -64.8257 -64.8251 -31.6187 -31.6157 -31.6114 -31.6087
   -31.6069 -31.6066 -31.5850 -31.5848 -31.5845 -31.5829 -31.5762 -31.5746
    -8.5123  -8.5066  -7.9500  -7.9437   4.4146   4.4223   4.7496   4.7529
     5.0932   5.0995   6.5355   6.5605   6.5714   6.5804   7.0848   7.1036

          k =-0.5000 0.2482 0.2500 (  5135 PWs)   bands (ev):

   -64.8287 -64.8283 -64.8262 -64.8256 -31.6285 -31.6272 -31.6220 -31.6199
   -31.5929 -31.5927 -31.5811 -31.5802 -31.5788 -31.5781 -31.5773 -31.5766
    -8.4019  -8.3962  -8.0001  -7.9940   3.8153   3.8278   4.1933   4.2027
     5.8276   5.8333   6.7313   6.7494   6.8625   6.8749   7.0135   7.0191

          k =-0.5000 0.2482-0.5000 (  5140 PWs)   bands (ev):

   -64.8275 -64.8274 -64.8274 -64.8264 -31.6325 -31.6323 -31.6306 -31.6305
   -31.5835 -31.5833 -31.5825 -31.5823 -31.5755 -31.5754 -31.5750 -31.5750
    -8.1709  -8.1708  -8.1646  -8.1646   3.6334   3.6335   3.6473   3.6474
     6.5145   6.5146   6.5344   6.5345   7.0614   7.0615   7.0675   7.0677

          k =-0.5000-0.5018 0.0000 (  5196 PWs)   bands (ev):

   -64.8275 -64.8275 -64.8274 -64.8264 -31.6206 -31.6203 -31.6176 -31.6173
   -31.5974 -31.5972 -31.5972 -31.5969 -31.5763 -31.5760 -31.5758 -31.5756
    -8.2096  -8.2094  -8.2010  -8.2009   4.2909   4.2910   4.2957   4.2959
     5.7618   5.7622   5.7723   5.7727   7.0490   7.0491   7.0782   7.0783

          k =-0.5000-0.5018 0.2500 (  5140 PWs)   bands (ev):

   -64.8275 -64.8274 -64.8274 -64.8264 -31.6324 -31.6322 -31.6306 -31.6305
   -31.5832 -31.5832 -31.5825 -31.5824 -31.5765 -31.5762 -31.5744 -31.5742
    -8.1720  -8.1719  -8.1636  -8.1634   3.6349   3.6350   3.6457   3.6458
     6.5227   6.5230   6.5258   6.5261   7.0502   7.0503   7.0788   7.0789

          k =-0.5000-0.5018-0.5000 (  5136 PWs)   bands (ev):

   -64.8275 -64.8274 -64.8274 -64.8264 -31.6403 -31.6401 -31.6387 -31.6386
   -31.5752 -31.5752 -31.5751 -31.5750 -31.5748 -31.5747 -31.5747 -31.5746
    -8.1339  -8.1338  -8.1254  -8.1253   3.2107   3.2108   3.2244   3.2244
     7.0509   7.0509   7.0649   7.0652   7.0655   7.0658   7.0800   7.0800

     highest occupied level (ev):     7.6855

!    total energy              =    -608.39281747 Ry
     Harris-Foulkes estimate   =    -608.39281747 Ry
     estimated scf accuracy    <          3.2E-11 Ry

     The total energy is the sum of the following terms:

     one-electron contribution =    -303.55700259 Ry
     hartree contribution      =     168.06785911 Ry
     xc contribution           =     -97.84642138 Ry
     ewald contribution        =    -375.05725261 Ry

     convergence has been achieved in   5 iterations

     Forces acting on atoms (cartesian axes, Ry/au):

     atom    1 type  1   force =     0.00042119   -0.00000255    0.00000000
     atom    2 type  1   force =    -0.00045894    0.00000224    0.00000000
     atom    3 type  1   force =     0.00048081   -0.00000234    0.00000000
     atom    4 type  1   force =    -0.00045751    0.00000224    0.00000000
     atom    5 type  2   force =     0.00044707   -0.00000094    0.00000000
     atom    6 type  2   force =    -0.00042641    0.00000133    0.00000000
     atom    7 type  2   force =     0.00042723   -0.00000106    0.00000000
     atom    8 type  2   force =    -0.00043344    0.00000107    0.00000000

     Total force =     0.001257     Total SCF correction =     0.000014


     Computing stress (Cartesian axis) and pressure

          total   stress  (Ry/bohr**3)                   (kbar)     P=  -68.07
  -0.00046321   0.00003514   0.00000000        -68.14      5.17      0.00
   0.00003514  -0.00046293   0.00000000          5.17    -68.10      0.00
   0.00000000   0.00000000  -0.00046196          0.00      0.00    -67.96


     number of scf cycles    =   4
     number of bfgs steps    =   3

     energy   old            =    -608.3928099859 Ry
     energy   new            =    -608.3928174737 Ry

     CASE: energy  _new < energy  _old

     new trust radius        =       0.0027526502 bohr
     new conv_thr            =            1.0E-10 Ry


ATOMIC_POSITIONS (alat)
Mg       0.000718506   0.000006266   0.000000000
Mg      -0.000780127   0.499993077   0.500000000
Mg       0.500755668   0.000006397   0.500000000
Mg       0.499313729   0.499994364   0.000000000
O        0.500842727   0.000003547   0.000000000
O       -0.000860291   0.499996638   0.000000000
O        0.000828751   0.000003289   0.500000000
O        0.499181037   0.499996422   0.500000000



     Writing output data file diamond..70.4.save
     NEW-OLD atomic charge density approx. for the potential

     Check: negative/imaginary core charge=   -0.000007    0.000000

     total cpu time spent up to now is       29.2 secs

     per-process dynamical memory:    52.3 Mb

     Self-consistent Calculation

     iteration #  1     ecut=    70.00 Ry     beta=0.70
     Davidson diagonalization with overlap
     ethr =  1.00E-06,  avg # of iterations =  3.0

     Threshold (ethr) on eigenvalues was too large:
     Diagonalizing with lowered threshold

     Davidson diagonalization with overlap
     ethr =  4.53E-09,  avg # of iterations =  2.4

     total cpu time spent up to now is       31.5 secs

     total energy              =    -608.39282256 Ry
     Harris-Foulkes estimate   =    -608.39282420 Ry
     estimated scf accuracy    <       0.00000297 Ry

     iteration #  2     ecut=    70.00 Ry     beta=0.70
     Davidson diagonalization with overlap
     ethr =  4.64E-09,  avg # of iterations =  2.0

     total cpu time spent up to now is       32.5 secs

     total energy              =    -608.39282306 Ry
     Harris-Foulkes estimate   =    -608.39282308 Ry
     estimated scf accuracy    <       0.00000007 Ry

     iteration #  3     ecut=    70.00 Ry     beta=0.70
     Davidson diagonalization with overlap
     ethr =  1.17E-10,  avg # of iterations =  2.0

     total cpu time spent up to now is       33.5 secs

     total energy              =    -608.39282307 Ry
     Harris-Foulkes estimate   =    -608.39282307 Ry
     estimated scf accuracy    <          4.9E-09 Ry

     iteration #  4     ecut=    70.00 Ry     beta=0.70
     Davidson diagonalization with overlap
     ethr =  7.72E-12,  avg # of iterations =  2.4

     total cpu time spent up to now is       34.5 secs

     total energy              =    -608.39282307 Ry
     Harris-Foulkes estimate   =    -608.39282307 Ry
     estimated scf accuracy    <          8.5E-10 Ry

     iteration #  5     ecut=    70.00 Ry     beta=0.70
     Davidson diagonalization with overlap
     ethr =  1.33E-12,  avg # of iterations =  3.0

     total cpu time spent up to now is       35.6 secs

     End of self-consistent calculation

          k = 0.0000 0.0000 0.0000 (  5145 PWs)   bands (ev):

   -64.8345 -64.8250 -64.8250 -64.8243 -31.6310 -31.6310 -31.6309 -31.5942
   -31.5934 -31.5934 -31.5933 -31.5933 -31.5925 -31.5646 -31.5636 -31.5634
    -9.3646  -7.9137  -7.9136  -7.9136   3.7581   3.7582   3.7582   6.3594
     6.3800   6.3801   6.3801   6.3803   6.4010   7.6595   7.6725   7.6855

          k = 0.0000 0.0000 0.2500 (  5157 PWs)   bands (ev):

   -64.8331 -64.8263 -64.8250 -64.8244 -31.6242 -31.6242 -31.6204 -31.5980
   -31.5980 -31.5940 -31.5939 -31.5899 -31.5881 -31.5782 -31.5724 -31.5704
    -9.1562  -8.1285  -7.8852  -7.8851   4.0487   4.0487   4.0955   5.8582
     5.8582   6.1706   6.1709   6.5229   6.5628   6.6589   7.4359   7.4648

          k = 0.0000 0.0000-0.5000 (  5110 PWs)   bands (ev):

   -64.8299 -64.8294 -64.8250 -64.8245 -31.6112 -31.6110 -31.6076 -31.6074
   -31.6019 -31.6019 -31.5907 -31.5907 -31.5815 -31.5813 -31.5796 -31.5794
    -8.6459  -8.6458  -7.8564  -7.8563   4.8456   4.8456   4.8504   4.8504
     5.1227   5.1230   5.9735   5.9738   6.9509   6.9510   6.9859   6.9860

          k = 0.0000 0.2500 0.0000 (  5159 PWs)   bands (ev):

   -64.8331 -64.8263 -64.8250 -64.8244 -31.6244 -31.6244 -31.6205 -31.5983
   -31.5983 -31.5938 -31.5935 -31.5890 -31.5889 -31.5783 -31.5715 -31.5713
    -9.1561  -8.1285  -7.8852  -7.8851   4.0485   4.0485   4.0955   5.8573
     5.8582   6.1707   6.1717   6.5428   6.5431   6.6589   7.4503   7.4505

          k = 0.0000 0.2500 0.2500 (  5157 PWs)   bands (ev):

   -64.8319 -64.8262 -64.8259 -64.8248 -31.6212 -31.6208 -31.6196 -31.6071
   -31.5940 -31.5939 -31.5930 -31.5878 -31.5866 -31.5864 -31.5754 -31.5683
    -8.9660  -8.0638  -8.0638  -7.8902   4.1613   4.1616   4.3288   5.0714
     5.8471   6.0552   6.0557   6.4849   6.4854   6.5835   7.1734   7.5058

          k = 0.0000 0.2500-0.5000 (  5152 PWs)   bands (ev):

   -64.8292 -64.8287 -64.8257 -64.8251 -31.6175 -31.6173 -31.6101 -31.6100
   -31.6067 -31.6065 -31.5851 -31.5848 -31.5837 -31.5837 -31.5754 -31.5752
    -8.5096  -8.5094  -7.9469  -7.9468   4.4184   4.4186   4.7511   4.7513
     5.0963   5.0964   6.5479   6.5481   6.5757   6.5758   7.0944   7.0944

          k = 0.0000-0.5000 0.0000 (  5110 PWs)   bands (ev):

   -64.8299 -64.8294 -64.8250 -64.8245 -31.6095 -31.6094 -31.6093 -31.6092
   -31.6020 -31.6020 -31.5906 -31.5906 -31.5806 -31.5805 -31.5804 -31.5803
    -8.6459  -8.6458  -7.8564  -7.8564   4.8479   4.8480   4.8480   4.8481
     5.1228   5.1230   5.9735   5.9739   6.9684   6.9684   6.9684   6.9684

          k = 0.0000-0.5000 0.2500 (  5154 PWs)   bands (ev):

   -64.8292 -64.8287 -64.8257 -64.8251 -31.6174 -31.6173 -31.6101 -31.6101
   -31.6068 -31.6066 -31.5850 -31.5848 -31.5838 -31.5838 -31.5754 -31.5753
    -8.5095  -8.5095  -7.9469  -7.9468   4.4184   4.4185   4.7512   4.7514
     5.0963   5.0964   6.5478   6.5481   6.5759   6.5759   7.0941   7.0942

          k = 0.0000-0.5000-0.5000 (  5204 PWs)   bands (ev):

   -64.8274 -64.8274 -64.8274 -64.8264 -31.6193 -31.6191 -31.6190 -31.6190
   -31.5971 -31.5969 -31.5969 -31.5967 -31.5766 -31.5764 -31.5763 -31.5763
    -8.2054  -8.2053  -8.2052  -8.2052   4.2932   4.2933   4.2933   4.2935
     5.7673   5.7674   5.7677   5.7677   7.0633   7.0634   7.0634   7.0636

          k = 0.2500 0.0009 0.0000 (  5159 PWs)   bands (ev):

   -64.8331 -64.8263 -64.8250 -64.8244 -31.6244 -31.6244 -31.6205 -31.5983
   -31.5983 -31.5938 -31.5935 -31.5890 -31.5889 -31.5783 -31.5715 -31.5713
    -9.1561  -8.1285  -7.8852  -7.8852   4.0485   4.0485   4.0955   5.8573
     5.8582   6.1707   6.1717   6.5428   6.5431   6.6589   7.4503   7.4505

          k = 0.2500 0.0009 0.2500 (  5157 PWs)   bands (ev):

   -64.8319 -64.8262 -64.8259 -64.8248 -31.6212 -31.6208 -31.6196 -31.6071
   -31.5940 -31.5939 -31.5930 -31.5878 -31.5866 -31.5864 -31.5754 -31.5683
    -8.9660  -8.0639  -8.0637  -7.8902   4.1612   4.1617   4.3288   5.0714
     5.8471   6.0551   6.0558   6.4848   6.4855   6.5835   7.1734   7.5058

          k = 0.2500 0.0009-0.5000 (  5152 PWs)   bands (ev):

   -64.8292 -64.8287 -64.8257 -64.8251 -31.6175 -31.6173 -31.6101 -31.6100
   -31.6067 -31.6065 -31.5851 -31.5848 -31.5837 -31.5837 -31.5754 -31.5752
    -8.5096  -8.5094  -7.9469  -7.9468   4.4184   4.4186   4.7511   4.7513
     5.0963   5.0964   6.5479   6.5481   6.5757   6.5758   7.0944   7.0944

          k = 0.2500 0.2509 0.0000 (  5157 PWs)   bands (ev):

   -64.8319 -64.8263 -64.8259 -64.8248 -31.6201 -31.6200 -31.6195 -31.6085
   -31.5942 -31.5942 -31.5942 -31.5870 -31.5870 -31.5869 -31.5753 -31.5673
    -8.9642  -8.0661  -8.0660  -7.8880   4.1623   4.1624   4.3306   5.0824
     5.8533   6.0525   6.0529   6.4888   6.4888   6.5650   7.1769   7.4930

          k = 0.2500 0.2509 0.2500 (  5156 PWs)   bands (ev):

   -64.8308 -64.8263 -64.8262 -64.8254 -31.6254 -31.6241 -31.6239 -31.6065
   -31.5947 -31.5946 -31.5943 -31.5840 -31.5840 -31.5832 -31.5715 -31.5704
    -8.7943  -8.0329  -8.0328  -8.0286   3.9988   3.9989   4.0072   5.0970
     5.8479   5.8481   5.8513   6.6876   6.7072   6.7073   7.3417   7.3571

          k = 0.2500 0.2509-0.5000 (  5144 PWs)   bands (ev):

   -64.8286 -64.8282 -64.8263 -64.8256 -31.6273 -31.6271 -31.6216 -31.6215
   -31.5943 -31.5941 -31.5804 -31.5804 -31.5784 -31.5783 -31.5769 -31.5767
    -8.3972  -8.3971  -7.9993  -7.9992   3.8178   3.8179   4.2063   4.2064
     5.8352   5.8352   6.7419   6.7421   6.8708   6.8710   7.0001   7.0002

          k = 0.2500-0.4991 0.0000 (  5152 PWs)   bands (ev):

   -64.8292 -64.8287 -64.8257 -64.8251 -31.6187 -31.6157 -31.6114 -31.6087
   -31.6069 -31.6066 -31.5850 -31.5848 -31.5845 -31.5829 -31.5761 -31.5746
    -8.5123  -8.5066  -7.9500  -7.9437   4.4146   4.4223   4.7496   4.7529
     5.0932   5.0995   6.5355   6.5605   6.5714   6.5804   7.0848   7.1036

          k = 0.2500-0.4991 0.2500 (  5135 PWs)   bands (ev):

   -64.8287 -64.8282 -64.8262 -64.8256 -31.6285 -31.6272 -31.6219 -31.6199
   -31.5929 -31.5927 -31.5811 -31.5801 -31.5788 -31.5781 -31.5773 -31.5766
    -8.4019  -8.3962  -8.0001  -7.9940   3.8153   3.8278   4.1933   4.2027
     5.8276   5.8333   6.7313   6.7494   6.8625   6.8749   7.0135   7.0190

          k = 0.2500-0.4991-0.5000 (  5140 PWs)   bands (ev):

   -64.8275 -64.8274 -64.8274 -64.8264 -31.6325 -31.6323 -31.6306 -31.6305
   -31.5835 -31.5832 -31.5825 -31.5823 -31.5755 -31.5753 -31.5750 -31.5750
    -8.1707  -8.1706  -8.1649  -8.1648   3.6338   3.6338   3.6470   3.6470
     6.5149   6.5150   6.5340   6.5341   7.0616   7.0618   7.0673   7.0674

          k = 0.2500-0.2491 0.0000 (  5161 PWs)   bands (ev):

   -64.8319 -64.8262 -64.8258 -64.8248 -31.6218 -31.6217 -31.6195 -31.6058
   -31.5944 -31.5944 -31.5917 -31.5887 -31.5861 -31.5860 -31.5754 -31.5695
    -8.9678  -8.0616  -8.0615  -7.8923   4.1606   4.1608   4.3268   5.0604
     5.8410   6.0581   6.0585   6.4809   6.4809   6.6022   7.1698   7.5183

          k = 0.2500-0.2491 0.2500 (  5150 PWs)   bands (ev):

   -64.8309 -64.8262 -64.8262 -64.8254 -31.6261 -31.6259 -31.6246 -31.6055
   -31.5928 -31.5927 -31.5924 -31.5846 -31.5840 -31.5839 -31.5720 -31.5710
    -8.7980  -8.0327  -8.0285  -8.0284   3.9937   4.0021   4.0022   5.0815
     5.8403   5.8436   5.8438   6.7036   6.7038   6.7236   7.3536   7.3692

          k = 0.2500-0.2491-0.5000 (  5132 PWs)   bands (ev):

   -64.8287 -64.8283 -64.8262 -64.8256 -31.6288 -31.6286 -31.6204 -31.6204
   -31.5917 -31.5915 -31.5809 -31.5809 -31.5789 -31.5786 -31.5771 -31.5770
    -8.4010  -8.4009  -7.9949  -7.9948   3.8251   3.8252   4.1896   4.1897
     5.8256   5.8256   6.7385   6.7387   6.8667   6.8669   7.0320   7.0321

          k =-0.5000-0.0018 0.0000 (  5110 PWs)   bands (ev):

   -64.8299 -64.8294 -64.8250 -64.8245 -31.6095 -31.6094 -31.6093 -31.6092
   -31.6020 -31.6020 -31.5906 -31.5906 -31.5806 -31.5805 -31.5804 -31.5803
[...]
   -31.5974 -31.5972 -31.5972 -31.5969 -31.5763 -31.5760 -31.5758 -31.5756
    -8.2096  -8.2095  -8.2010  -8.2009   4.2909   4.2910   4.2957   4.2958
     5.7618   5.7622   5.7723   5.7727   7.0490   7.0491   7.0782   7.0782

          k =-0.5000-0.5018 0.2500 (  5140 PWs)   bands (ev):

   -64.8275 -64.8274 -64.8274 -64.8264 -31.6324 -31.6322 -31.6306 -31.6305
   -31.5832 -31.5831 -31.5825 -31.5824 -31.5765 -31.5762 -31.5744 -31.5742
    -8.1720  -8.1719  -8.1636  -8.1635   3.6349   3.6350   3.6457   3.6458
     6.5227   6.5230   6.5259   6.5261   7.0502   7.0502   7.0788   7.0789

          k =-0.5000-0.5018-0.5000 (  5136 PWs)   bands (ev):

   -64.8275 -64.8274 -64.8274 -64.8264 -31.6403 -31.6401 -31.6387 -31.6386
   -31.5752 -31.5752 -31.5751 -31.5750 -31.5748 -31.5747 -31.5747 -31.5746
    -8.1339  -8.1338  -8.1254  -8.1253   3.2107   3.2108   3.2244   3.2244
     7.0508   7.0509   7.0649   7.0652   7.0655   7.0658   7.0800   7.0800

     highest occupied level (ev):     7.6855

!    total energy              =    -608.39282336 Ry
     Harris-Foulkes estimate   =    -608.39282336 Ry
     estimated scf accuracy    <          2.2E-12 Ry

     The total energy is the sum of the following terms:

     one-electron contribution =    -303.55709587 Ry
     hartree contribution      =     168.06790567 Ry
     xc contribution           =     -97.84642254 Ry
     ewald contribution        =    -375.05721062 Ry

     convergence has been achieved in   5 iterations

     Forces acting on atoms (cartesian axes, Ry/au):

     atom    1 type  1   force =     0.00001887   -0.00000806    0.00000000
     atom    2 type  1   force =    -0.00002829    0.00000871    0.00000000
     atom    3 type  1   force =     0.00009418   -0.00000836    0.00000000
     atom    4 type  1   force =    -0.00011902    0.00000757    0.00000000
     atom    5 type  2   force =    -0.00004554   -0.00000358    0.00000000
     atom    6 type  2   force =     0.00008770    0.00000371    0.00000000
     atom    7 type  2   force =    -0.00005779   -0.00000343    0.00000000
     atom    8 type  2   force =     0.00004990    0.00000346    0.00000000

     Total force =     0.000200     Total SCF correction =     0.000005


     Computing stress (Cartesian axis) and pressure

          total   stress  (Ry/bohr**3)                   (kbar)     P=  -68.07
  -0.00046321   0.00003514   0.00000000        -68.14      5.17      0.00
   0.00003514  -0.00046296   0.00000000          5.17    -68.10      0.00
   0.00000000   0.00000000  -0.00046196          0.00      0.00    -67.96


     number of scf cycles    =   6
     number of bfgs steps    =   5

     energy   old            =    -608.3928230691 Ry
     energy   new            =    -608.3928233618 Ry

     CASE: energy  _new < energy  _old

     new trust radius        =       0.0002015635 bohr
     new conv_thr            =            1.0E-10 Ry


ATOMIC_POSITIONS (alat)
Mg       0.000809805   0.000004003   0.000000000
Mg      -0.000881105   0.499995428   0.500000000
Mg       0.500875687   0.000004096   0.500000000
Mg       0.499192854   0.499996480   0.000000000
O        0.500925144   0.000002584   0.000000000
O       -0.000929238   0.499997700   0.000000000
O        0.000904490   0.000002328   0.500000000
O        0.499102363   0.499997380   0.500000000



     Writing output data file diamond..70.4.save
     NEW-OLD atomic charge density approx. for the potential

     Check: negative/imaginary core charge=   -0.000007    0.000000

     total cpu time spent up to now is       43.1 secs

     per-process dynamical memory:    52.3 Mb

     Self-consistent Calculation

     iteration #  1     ecut=    70.00 Ry     beta=0.70
     Davidson diagonalization with overlap
     ethr =  1.00E-06,  avg # of iterations =  1.7

     Threshold (ethr) on eigenvalues was too large:
     Diagonalizing with lowered threshold

     Davidson diagonalization with overlap
     ethr =  8.71E-12,  avg # of iterations =  3.0

     total cpu time spent up to now is       45.5 secs

     total energy              =    -608.39282340 Ry
     Harris-Foulkes estimate   =    -608.39282340 Ry
     estimated scf accuracy    <          1.2E-09 Ry

     iteration #  2     ecut=    70.00 Ry     beta=0.70
     Davidson diagonalization with overlap
     ethr =  1.92E-12,  avg # of iterations =  2.0

     total cpu time spent up to now is       46.4 secs

     End of self-consistent calculation

          k = 0.0000 0.0000 0.0000 (  5145 PWs)   bands (ev):

   -64.8345 -64.8250 -64.8250 -64.8243 -31.6310 -31.6310 -31.6309 -31.5942
   -31.5934 -31.5934 -31.5933 -31.5933 -31.5925 -31.5646 -31.5636 -31.5634
    -9.3646  -7.9137  -7.9136  -7.9136   3.7581   3.7582   3.7582   6.3594
     6.3800   6.3801   6.3801   6.3803   6.4010   7.6595   7.6725   7.6855

          k = 0.0000 0.0000 0.2500 (  5157 PWs)   bands (ev):

   -64.8331 -64.8263 -64.8250 -64.8244 -31.6242 -31.6242 -31.6204 -31.5980
   -31.5980 -31.5940 -31.5939 -31.5899 -31.5881 -31.5782 -31.5724 -31.5704
    -9.1562  -8.1285  -7.8852  -7.8851   4.0487   4.0487   4.0955   5.8582
     5.8582   6.1706   6.1709   6.5229   6.5628   6.6589   7.4359   7.4648

          k = 0.0000 0.0000-0.5000 (  5110 PWs)   bands (ev):

   -64.8299 -64.8294 -64.8250 -64.8245 -31.6112 -31.6110 -31.6076 -31.6074
   -31.6019 -31.6019 -31.5907 -31.5907 -31.5815 -31.5813 -31.5796 -31.5794
    -8.6460  -8.6458  -7.8564  -7.8563   4.8456   4.8456   4.8504   4.8504
     5.1227   5.1230   5.9735   5.9738   6.9509   6.9510   6.9859   6.9860

          k = 0.0000 0.2500 0.0000 (  5159 PWs)   bands (ev):

   -64.8331 -64.8263 -64.8250 -64.8244 -31.6244 -31.6244 -31.6205 -31.5983
   -31.5983 -31.5938 -31.5935 -31.5890 -31.5889 -31.5783 -31.5715 -31.5713
    -9.1561  -8.1285  -7.8852  -7.8851   4.0485   4.0485   4.0955   5.8573
     5.8582   6.1707   6.1717   6.5428   6.5431   6.6589   7.4503   7.4505

          k = 0.0000 0.2500 0.2500 (  5157 PWs)   bands (ev):

   -64.8319 -64.8262 -64.8259 -64.8248 -31.6212 -31.6208 -31.6196 -31.6071
   -31.5940 -31.5939 -31.5930 -31.5878 -31.5866 -31.5864 -31.5754 -31.5683
    -8.9660  -8.0638  -8.0637  -7.8902   4.1613   4.1616   4.3288   5.0714
     5.8471   6.0552   6.0557   6.4849   6.4854   6.5835   7.1734   7.5058

          k = 0.0000 0.2500-0.5000 (  5152 PWs)   bands (ev):

   -64.8292 -64.8287 -64.8257 -64.8251 -31.6175 -31.6173 -31.6101 -31.6100
   -31.6067 -31.6065 -31.5851 -31.5848 -31.5837 -31.5837 -31.5754 -31.5752
    -8.5096  -8.5094  -7.9469  -7.9468   4.4184   4.4186   4.7511   4.7513
     5.0962   5.0964   6.5479   6.5481   6.5757   6.5758   7.0944   7.0944

          k = 0.0000-0.5000 0.0000 (  5110 PWs)   bands (ev):

   -64.8299 -64.8294 -64.8250 -64.8245 -31.6095 -31.6094 -31.6093 -31.6092
   -31.6020 -31.6020 -31.5906 -31.5906 -31.5806 -31.5805 -31.5804 -31.5803
    -8.6459  -8.6458  -7.8564  -7.8563   4.8479   4.8480   4.8480   4.8480
     5.1227   5.1230   5.9735   5.9739   6.9684   6.9684   6.9684   6.9684

          k = 0.0000-0.5000 0.2500 (  5154 PWs)   bands (ev):

   -64.8292 -64.8287 -64.8257 -64.8251 -31.6174 -31.6173 -31.6101 -31.6101
   -31.6068 -31.6066 -31.5850 -31.5848 -31.5838 -31.5838 -31.5754 -31.5753
    -8.5095  -8.5094  -7.9469  -7.9468   4.4184   4.4184   4.7512   4.7514
     5.0964   5.0964   6.5478   6.5481   6.5759   6.5759   7.0941   7.0942

          k = 0.0000-0.5000-0.5000 (  5204 PWs)   bands (ev):

   -64.8274 -64.8274 -64.8274 -64.8264 -31.6193 -31.6191 -31.6190 -31.6190
   -31.5971 -31.5969 -31.5969 -31.5967 -31.5766 -31.5764 -31.5763 -31.5763
    -8.2054  -8.2052  -8.2052  -8.2052   4.2932   4.2933   4.2933   4.2935
     5.7673   5.7674   5.7677   5.7677   7.0633   7.0634   7.0634   7.0636

          k = 0.2500 0.0009 0.0000 (  5159 PWs)   bands (ev):

   -64.8331 -64.8263 -64.8250 -64.8244 -31.6244 -31.6244 -31.6205 -31.5983
   -31.5983 -31.5938 -31.5935 -31.5890 -31.5889 -31.5783 -31.5715 -31.5713
    -9.1561  -8.1285  -7.8852  -7.8851   4.0485   4.0485   4.0955   5.8573
     5.8582   6.1707   6.1717   6.5428   6.5431   6.6589   7.4503   7.4505

          k = 0.2500 0.0009 0.2500 (  5157 PWs)   bands (ev):

   -64.8319 -64.8262 -64.8259 -64.8248 -31.6212 -31.6208 -31.6196 -31.6071
   -31.5940 -31.5939 -31.5930 -31.5878 -31.5866 -31.5864 -31.5754 -31.5683
    -8.9660  -8.0639  -8.0637  -7.8902   4.1612   4.1617   4.3288   5.0714
     5.8471   6.0551   6.0558   6.4849   6.4854   6.5835   7.1734   7.5058

          k = 0.2500 0.0009-0.5000 (  5152 PWs)   bands (ev):

   -64.8292 -64.8287 -64.8257 -64.8251 -31.6175 -31.6173 -31.6101 -31.6100
   -31.6067 -31.6065 -31.5851 -31.5848 -31.5837 -31.5837 -31.5754 -31.5752
    -8.5096  -8.5094  -7.9469  -7.9468   4.4184   4.4186   4.7511   4.7513
     5.0962   5.0964   6.5479   6.5481   6.5757   6.5758   7.0944   7.0944

          k = 0.2500 0.2509 0.0000 (  5157 PWs)   bands (ev):

   -64.8319 -64.8263 -64.8259 -64.8248 -31.6201 -31.6200 -31.6195 -31.6084
   -31.5942 -31.5942 -31.5942 -31.5870 -31.5870 -31.5869 -31.5753 -31.5673
    -8.9642  -8.0661  -8.0660  -7.8880   4.1623   4.1624   4.3306   5.0824
     5.8533   6.0525   6.0529   6.4888   6.4888   6.5650   7.1769   7.4930

          k = 0.2500 0.2509 0.2500 (  5156 PWs)   bands (ev):

   -64.8308 -64.8263 -64.8262 -64.8254 -31.6254 -31.6241 -31.6239 -31.6065
   -31.5947 -31.5946 -31.5943 -31.5840 -31.5840 -31.5832 -31.5715 -31.5704
    -8.7943  -8.0329  -8.0328  -8.0286   3.9988   3.9988   4.0072   5.0970
     5.8479   5.8481   5.8513   6.6875   6.7071   6.7073   7.3417   7.3571

          k = 0.2500 0.2509-0.5000 (  5144 PWs)   bands (ev):

   -64.8286 -64.8282 -64.8263 -64.8256 -31.6273 -31.6271 -31.6216 -31.6215
   -31.5943 -31.5941 -31.5804 -31.5804 -31.5784 -31.5783 -31.5769 -31.5767
    -8.3972  -8.3971  -7.9993  -7.9992   3.8178   3.8179   4.2063   4.2064
     5.8352   5.8352   6.7419   6.7421   6.8708   6.8710   7.0001   7.0002

          k = 0.2500-0.4991 0.0000 (  5152 PWs)   bands (ev):

   -64.8292 -64.8287 -64.8257 -64.8251 -31.6187 -31.6157 -31.6114 -31.6087
   -31.6069 -31.6066 -31.5850 -31.5848 -31.5845 -31.5829 -31.5761 -31.5746
    -8.5124  -8.5066  -7.9500  -7.9437   4.4146   4.4223   4.7496   4.7529
     5.0932   5.0995   6.5355   6.5605   6.5714   6.5804   7.0848   7.1036

          k = 0.2500-0.4991 0.2500 (  5135 PWs)   bands (ev):

   -64.8287 -64.8282 -64.8262 -64.8256 -31.6285 -31.6272 -31.6219 -31.6199
   -31.5929 -31.5927 -31.5811 -31.5801 -31.5788 -31.5781 -31.5773 -31.5766
    -8.4019  -8.3962  -8.0001  -7.9940   3.8153   3.8278   4.1933   4.2027
     5.8276   5.8333   6.7313   6.7494   6.8625   6.8749   7.0135   7.0190

          k = 0.2500-0.4991-0.5000 (  5140 PWs)   bands (ev):

   -64.8275 -64.8274 -64.8274 -64.8264 -31.6325 -31.6323 -31.6306 -31.6305
   -31.5835 -31.5832 -31.5825 -31.5823 -31.5755 -31.5753 -31.5750 -31.5750
    -8.1707  -8.1706  -8.1649  -8.1648   3.6338   3.6338   3.6470   3.6470
     6.5149   6.5150   6.5340   6.5341   7.0616   7.0618   7.0673   7.0674

          k = 0.2500-0.2491 0.0000 (  5161 PWs)   bands (ev):

   -64.8319 -64.8262 -64.8258 -64.8248 -31.6218 -31.6217 -31.6195 -31.6058
   -31.5944 -31.5944 -31.5917 -31.5887 -31.5861 -31.5860 -31.5754 -31.5695
    -8.9678  -8.0616  -8.0615  -7.8923   4.1607   4.1607   4.3268   5.0604
     5.8410   6.0582   6.0585   6.4809   6.4809   6.6022   7.1698   7.5183

          k = 0.2500-0.2491 0.2500 (  5150 PWs)   bands (ev):

   -64.8309 -64.8262 -64.8262 -64.8254 -31.6261 -31.6259 -31.6246 -31.6055
   -31.5928 -31.5927 -31.5924 -31.5846 -31.5840 -31.5839 -31.5720 -31.5710
    -8.7980  -8.0327  -8.0285  -8.0284   3.9937   4.0021   4.0022   5.0815
     5.8403   5.8436   5.8438   6.7036   6.7038   6.7236   7.3536   7.3692

          k = 0.2500-0.2491-0.5000 (  5132 PWs)   bands (ev):

   -64.8287 -64.8283 -64.8262 -64.8256 -31.6288 -31.6286 -31.6204 -31.6204
   -31.5917 -31.5915 -31.5809 -31.5809 -31.5789 -31.5786 -31.5770 -31.5770
    -8.4010  -8.4009  -7.9949  -7.9948   3.8251   3.8252   4.1896   4.1897
     5.8256   5.8256   6.7385   6.7387   6.8667   6.8669   7.0320   7.0321

          k =-0.5000-0.0018 0.0000 (  5110 PWs)   bands (ev):

   -64.8299 -64.8294 -64.8250 -64.8245 -31.6095 -31.6094 -31.6093 -31.6092
   -31.6020 -31.6020 -31.5906 -31.5906 -31.5806 -31.5805 -31.5804 -31.5803
    -8.6460  -8.6456  -7.8564  -7.8563   4.8476   4.8477   4.8483   4.8483
     5.1227   5.1231   5.9735   5.9739   6.9682   6.9682   6.9686   6.9686

          k =-0.5000-0.0018 0.2500 (  5154 PWs)   bands (ev):

   -64.8292 -64.8287 -64.8257 -64.8251 -31.6174 -31.6173 -31.6101 -31.6101
   -31.6068 -31.6066 -31.5850 -31.5848 -31.5838 -31.5838 -31.5754 -31.5753
    -8.5097  -8.5093  -7.9469  -7.9468   4.4183   4.4186   4.7511   4.7514
     5.0961   5.0967   6.5478   6.5481   6.5757   6.5761   7.0941   7.0942

          k =-0.5000-0.0018-0.5000 (  5204 PWs)   bands (ev):

   -64.8274 -64.8274 -64.8274 -64.8264 -31.6193 -31.6192 -31.6190 -31.6190
   -31.5971 -31.5969 -31.5969 -31.5967 -31.5766 -31.5765 -31.5763 -31.5763
    -8.2055  -8.2054  -8.2052  -8.2050   4.2930   4.2931   4.2936   4.2937
     5.7669   5.7673   5.7677   5.7682   7.0631   7.0634   7.0635   7.0636

          k =-0.5000 0.2482 0.0000 (  5152 PWs)   bands (ev):

   -64.8292 -64.8287 -64.8257 -64.8251 -31.6187 -31.6157 -31.6114 -31.6087
   -31.6069 -31.6066 -31.5850 -31.5848 -31.5845 -31.5829 -31.5761 -31.5746
    -8.5124  -8.5066  -7.9500  -7.9437   4.4146   4.4223   4.7496   4.7529
     5.0932   5.0995   6.5355   6.5605   6.5714   6.5804   7.0848   7.1036

          k =-0.5000 0.2482 0.2500 (  5135 PWs)   bands (ev):

   -64.8287 -64.8283 -64.8262 -64.8256 -31.6285 -31.6272 -31.6219 -31.6199
   -31.5929 -31.5927 -31.5811 -31.5801 -31.5788 -31.5781 -31.5773 -31.5766
    -8.4019  -8.3962  -8.0001  -7.9940   3.8153   3.8278   4.1933   4.2027
     5.8276   5.8333   6.7313   6.7494   6.8625   6.8749   7.0135   7.0190

          k =-0.5000 0.2482-0.5000 (  5140 PWs)   bands (ev):

   -64.8275 -64.8274 -64.8274 -64.8264 -31.6325 -31.6323 -31.6306 -31.6305
   -31.5835 -31.5832 -31.5825 -31.5823 -31.5755 -31.5753 -31.5750 -31.5750
    -8.1707  -8.1706  -8.1649  -8.1648   3.6337   3.6338   3.6470   3.6470
     6.5149   6.5150   6.5340   6.5341   7.0616   7.0618   7.0673   7.0674

          k =-0.5000-0.5018 0.0000 (  5196 PWs)   bands (ev):

   -64.8275 -64.8274 -64.8274 -64.8264 -31.6206 -31.6203 -31.6176 -31.6173
   -31.5974 -31.5972 -31.5972 -31.5969 -31.5763 -31.5760 -31.5758 -31.5756
    -8.2096  -8.2095  -8.2010  -8.2009   4.2909   4.2910   4.2957   4.2958
     5.7618   5.7622   5.7723   5.7727   7.0490   7.0491   7.0782   7.0782

          k =-0.5000-0.5018 0.2500 (  5140 PWs)   bands (ev):

   -64.8275 -64.8274 -64.8274 -64.8264 -31.6324 -31.6322 -31.6306 -31.6305
   -31.5832 -31.5831 -31.5825 -31.5824 -31.5765 -31.5762 -31.5744 -31.5742
    -8.1720  -8.1719  -8.1635  -8.1635   3.6350   3.6350   3.6457   3.6458
     6.5227   6.5230   6.5259   6.5261   7.0502   7.0502   7.0788   7.0789

          k =-0.5000-0.5018-0.5000 (  5136 PWs)   bands (ev):

   -64.8275 -64.8274 -64.8274 -64.8264 -31.6403 -31.6401 -31.6387 -31.6386
   -31.5752 -31.5752 -31.5751 -31.5750 -31.5748 -31.5747 -31.5747 -31.5746
    -8.1339  -8.1338  -8.1254  -8.1253   3.2107   3.2108   3.2244   3.2244
     7.0508   7.0509   7.0649   7.0652   7.0655   7.0658   7.0800   7.0800

     highest occupied level (ev):     7.6855

!    total energy              =    -608.39282340 Ry
     Harris-Foulkes estimate   =    -608.39282340 Ry
     estimated scf accuracy    <          5.9E-11 Ry

     The total energy is the sum of the following terms:

     one-electron contribution =    -303.55709046 Ry
     hartree contribution      =     168.06790309 Ry
     xc contribution           =     -97.84642250 Ry
     ewald contribution        =    -375.05721353 Ry

     convergence has been achieved in   2 iterations

     Forces acting on atoms (cartesian axes, Ry/au):

     atom    1 type  1   force =     0.00000505   -0.00000636    0.00000000
     atom    2 type  1   force =    -0.00001143    0.00000740    0.00000000
     atom    3 type  1   force =     0.00006823   -0.00000642    0.00000000
     atom    4 type  1   force =    -0.00008936    0.00000566    0.00000000
     atom    5 type  2   force =    -0.00004179   -0.00000168    0.00000000
     atom    6 type  2   force =     0.00006915    0.00000197    0.00000000
     atom    7 type  2   force =    -0.00004743   -0.00000171    0.00000000
     atom    8 type  2   force =     0.00004759    0.00000115    0.00000000

     Total force =     0.000155     Total SCF correction =     0.000044
     SCF correction compared to forces is large: reduce conv_thr to get better values


     Computing stress (Cartesian axis) and pressure

          total   stress  (Ry/bohr**3)                   (kbar)     P=  -68.07
  -0.00046321   0.00003514   0.00000000        -68.14      5.17      0.00
   0.00003514  -0.00046296   0.00000000          5.17    -68.10      0.00
   0.00000000   0.00000000  -0.00046196          0.00      0.00    -67.96


     bfgs converged in   7 scf cycles and   6 bfgs steps
     (criteria: energy <  1.0E-05 Ry, force <  1.0E-04 Ry/Bohr)

     End of BFGS Geometry Optimization

     Final energy   =    -608.3928234017 Ry
Begin final coordinates

ATOMIC_POSITIONS (alat)
Mg       0.000809805   0.000004003   0.000000000
Mg      -0.000881105   0.499995428   0.500000000
Mg       0.500875687   0.000004096   0.500000000
Mg       0.499192854   0.499996480   0.000000000
O        0.500925144   0.000002584   0.000000000
O       -0.000929238   0.499997700   0.000000000
O        0.000904490   0.000002328   0.500000000
O        0.499102363   0.499997380   0.500000000
End final coordinates



     Writing output data file diamond..70.4.save
 
     init_run     :      0.43s CPU      0.45s WALL (       1 calls)
     electrons    :     41.16s CPU     42.63s WALL (       7 calls)
     update_pot   :      0.52s CPU      0.53s WALL (       6 calls)
     forces       :      0.80s CPU      0.81s WALL (       7 calls)
     stress       :      1.87s CPU      1.89s WALL (       7 calls)

     Called by init_run:
     wfcinit      :      0.35s CPU      0.36s WALL (       1 calls)
     potinit      :      0.04s CPU      0.04s WALL (       1 calls)

     Called by electrons:
     c_bands      :     36.14s CPU     37.47s WALL (      40 calls)
     sum_band     :      4.83s CPU      4.95s WALL (      40 calls)
     v_of_rho     :      0.16s CPU      0.17s WALL (      41 calls)
     mix_rho      :      0.02s CPU      0.03s WALL (      40 calls)

     Called by c_bands:
     init_us_2    :      0.50s CPU      0.55s WALL (    2850 calls)
     cegterg      :     33.95s CPU     35.14s WALL (    1200 calls)

     Called by sum_band:

     Called by *egterg:
     h_psi        :     25.55s CPU     26.17s WALL (    4113 calls)
     g_psi        :      0.09s CPU      0.10s WALL (    2883 calls)
     cdiaghg      :      4.98s CPU      4.99s WALL (    3723 calls)

     Called by h_psi:
     h_psi:pot    :     25.42s CPU     25.98s WALL (    4113 calls)
     h_psi:calbec :      1.08s CPU      1.07s WALL (    4113 calls)
     vloc_psi     :     23.47s CPU     24.03s WALL (    4113 calls)
     add_vuspsi   :      0.86s CPU      0.87s WALL (    4113 calls)

     General routines
     calbec       :      1.42s CPU      1.40s WALL (    5163 calls)
     fft          :      0.15s CPU      0.15s WALL (     637 calls)
     fftw         :     26.84s CPU     26.68s WALL (  242508 calls)
     davcio       :      0.00s CPU      0.00s WALL (      30 calls)
 
     Parallel routines
     fft_scatter  :      5.09s CPU      5.54s WALL (  243145 calls)
 
     PWSCF        :    45.18s CPU        46.89s WALL

 
   This run was terminated on:  19: 0:35  22Apr2018            

=------------------------------------------------------------------------------=
   JOB DONE.
=------------------------------------------------------------------------------=
