
     Program PWSCF v.6.1 (svn rev. 13369) starts on 22Apr2018 at 19: 2:37 

     This program is part of the open-source Quantum ESPRESSO suite
     for quantum simulation of materials; please cite
         "P. Giannozzi et al., J. Phys.:Condens. Matter 21 395502 (2009);
          URL http://www.quantum-espresso.org", 
     in publications or presentations arising from this work. More details at
     http://www.quantum-espresso.org/quote

     Parallel version (MPI), running on     8 processors
     R & G space division:  proc/nbgrp/npool/nimage =       8
     Waiting for input...
     Reading input from standard input
Warning: card       &CELL ignored
Warning: card          CELL_DYNAMICS = 'BFGS' ignored
Warning: card          PRESS = 0.0D0 ignored
Warning: card          PRESS_CONV_THR = 0.01D0 ignored
Warning: card       / ignored

     Current dimensions of program PWSCF are:
     Max number of different atomic species (ntypx) = 10
     Max number of k-points (npk) =  40000
     Max angular momentum in pseudopotentials (lmaxx) =  3

     Subspace diagonalization in iterative solution of the eigenvalue problem:
     a serial algorithm will be used

 
     Parallelization info
     --------------------
     sticks:   dense  smooth     PW     G-vecs:    dense   smooth      PW
     Min         180     180     52                 5150     5150     816
     Max         182     182     53                 5151     5151     819
     Sum        1449    1449    421                41203    41203    6543
 


     bravais-lattice index     =           12
     lattice parameter (alat)  =       8.0448  a.u.
     unit-cell volume          =     520.6321 (a.u.)^3
     number of atoms/cell      =            8
     number of atomic types    =            2
     number of electrons       =        64.00
     number of Kohn-Sham states=           32
     kinetic-energy cutoff     =      70.0000  Ry
     charge density cutoff     =     280.0000  Ry
     convergence threshold     =      1.0E-08
     mixing beta               =       0.7000
     number of iterations used =            8  plain     mixing
     Exchange-correlation      = PBE ( 1  4  3  4 0 0)
     nstep                     =           50


     celldm(1)=   8.044750  celldm(2)=   1.000000  celldm(3)=   1.000015
     celldm(4)=  -0.007857  celldm(5)=   0.000000  celldm(6)=   0.000000

     crystal axes: (cart. coord. in units of alat)
               a(1) = (   1.000000   0.000000   0.000000 )  
               a(2) = (  -0.007857   0.999969   0.000000 )  
               a(3) = (   0.000000   0.000000   1.000015 )  

     reciprocal axes: (cart. coord. in units 2 pi/alat)
               b(1) = (  1.000000  0.007857  0.000000 )  
               b(2) = (  0.000000  1.000031  0.000000 )  
               b(3) = (  0.000000  0.000000  0.999985 )  


     PseudoPot. # 1 for Mg read from file:
     ../pseudo/Mg.pbe.UPF
     MD5 check sum: 4c04d8c6e0476e83eaecaf72fa8acc4d
     Pseudo is Norm-conserving, Zval = 10.0
     Generated using ONCVPSP code by D. R. Hamann
     Using radial grid of 1510 points,  4 beta functions with: 
                l(1) =   0
                l(2) =   0
                l(3) =   1
                l(4) =   1

     PseudoPot. # 2 for O  read from file:
     ../pseudo/O.pbe.UPF
     MD5 check sum: 3e3f909f7470e8921608ab6b1f57bbae
     Pseudo is Norm-conserving + core correction, Zval =  6.0
     Generated using ONCVPSP code by D. R. Hamann
     Using radial grid of  936 points,  5 beta functions with: 
                l(1) =   0
                l(2) =   0
                l(3) =   1
                l(4) =   1
                l(5) =   2

     atomic species   valence    mass     pseudopotential
        Mg            10.00    24.30500     Mg( 1.00)
        O              6.00    15.99940     O ( 1.00)

     No symmetry found



   Cartesian axes

     site n.     atom                  positions (alat units)
         1           Mg  tau(   1) = (   0.0000000   0.0000000   0.0000000  )
         2           Mg  tau(   2) = (   0.0000000   0.5000000   0.5000000  )
         3           Mg  tau(   3) = (   0.5000000   0.0000000   0.5000000  )
         4           Mg  tau(   4) = (   0.5000000   0.5000000   0.0000000  )
         5           O   tau(   5) = (   0.5000000   0.0000000   0.0000000  )
         6           O   tau(   6) = (   0.0000000   0.5000000   0.0000000  )
         7           O   tau(   7) = (   0.0000000   0.0000000   0.5000000  )
         8           O   tau(   8) = (   0.5000000   0.5000000   0.5000000  )

     number of k points=    36
                       cart. coord. in units 2pi/alat
        k(    1) = (   0.0000000   0.0000000   0.0000000), wk =   0.0312500
        k(    2) = (   0.0000000   0.0000000   0.2499961), wk =   0.0625000
        k(    3) = (   0.0000000   0.0000000  -0.4999923), wk =   0.0312500
        k(    4) = (   0.0000000   0.2500077   0.0000000), wk =   0.0625000
        k(    5) = (   0.0000000   0.2500077   0.2499961), wk =   0.0625000
        k(    6) = (   0.0000000   0.2500077  -0.4999923), wk =   0.0625000
        k(    7) = (   0.0000000  -0.5000154   0.0000000), wk =   0.0312500
        k(    8) = (   0.0000000  -0.5000154   0.2499961), wk =   0.0625000
        k(    9) = (   0.0000000  -0.5000154  -0.4999923), wk =   0.0312500
        k(   10) = (   0.2500000   0.0019643   0.0000000), wk =   0.0625000
        k(   11) = (   0.2500000   0.0019643   0.2499961), wk =   0.0625000
        k(   12) = (   0.2500000   0.0019643  -0.4999923), wk =   0.0625000
        k(   13) = (   0.2500000   0.2519720   0.0000000), wk =   0.0625000
        k(   14) = (   0.2500000   0.2519720   0.2499961), wk =   0.0625000
        k(   15) = (   0.2500000   0.2519720  -0.4999923), wk =   0.0625000
        k(   16) = (   0.2500000  -0.4980511   0.0000000), wk =   0.0625000
        k(   17) = (   0.2500000  -0.4980511   0.2499961), wk =   0.0625000
        k(   18) = (   0.2500000  -0.4980511  -0.4999923), wk =   0.0625000
        k(   19) = (   0.2500000  -0.2480434   0.0000000), wk =   0.0625000
        k(   20) = (   0.2500000  -0.2480434   0.2499961), wk =   0.0625000
        k(   21) = (   0.2500000  -0.2480434  -0.4999923), wk =   0.0625000
        k(   22) = (  -0.5000000  -0.0039286   0.0000000), wk =   0.0312500
        k(   23) = (  -0.5000000  -0.0039286   0.2499961), wk =   0.0625000
        k(   24) = (  -0.5000000  -0.0039286  -0.4999923), wk =   0.0312500
        k(   25) = (  -0.5000000   0.2460791   0.0000000), wk =   0.0625000
        k(   26) = (  -0.5000000   0.2460791   0.2499961), wk =   0.0625000
        k(   27) = (  -0.5000000   0.2460791  -0.4999923), wk =   0.0625000
        k(   28) = (  -0.5000000  -0.5039441   0.0000000), wk =   0.0312500
        k(   29) = (  -0.5000000  -0.5039441   0.2499961), wk =   0.0625000
        k(   30) = (  -0.5000000  -0.5039441  -0.4999923), wk =   0.0312500
        k(   31) = (   0.0000000  -0.2500077   0.2499961), wk =   0.0625000
        k(   32) = (  -0.2500000  -0.0019643   0.2499961), wk =   0.0625000
        k(   33) = (  -0.2500000  -0.2519720   0.2499961), wk =   0.0625000
        k(   34) = (  -0.2500000   0.4980511   0.2499961), wk =   0.0625000
        k(   35) = (  -0.2500000   0.2480434   0.2499961), wk =   0.0625000
        k(   36) = (   0.5000000  -0.2460791   0.2499961), wk =   0.0625000

     Dense  grid:    41203 G-vectors     FFT dimensions: (  45,  45,  45)

     Estimated max dynamical RAM per process >      17.21MB

     Estimated total allocated dynamical RAM >     137.71MB

     Check: negative/imaginary core charge=   -0.000007    0.000000

     Initial potential from superposition of free atoms

     starting charge   63.99678, renormalised to   64.00000
     Starting wfc are   36 randomized atomic wfcs

     total cpu time spent up to now is        0.6 secs

     per-process dynamical memory:    52.0 Mb

     Self-consistent Calculation

     iteration #  1     ecut=    70.00 Ry     beta=0.70
     Davidson diagonalization with overlap
     ethr =  1.00E-02,  avg # of iterations =  2.0

     total cpu time spent up to now is        1.8 secs

     total energy              =    -607.72006165 Ry
     Harris-Foulkes estimate   =    -608.84362295 Ry
     estimated scf accuracy    <       1.56126231 Ry

     iteration #  2     ecut=    70.00 Ry     beta=0.70
     Davidson diagonalization with overlap
     ethr =  2.44E-03,  avg # of iterations =  2.9

     total cpu time spent up to now is        3.1 secs

     total energy              =    -608.10564594 Ry
     Harris-Foulkes estimate   =    -608.80311849 Ry
     estimated scf accuracy    <       1.44796269 Ry

     iteration #  3     ecut=    70.00 Ry     beta=0.70
     Davidson diagonalization with overlap
     ethr =  2.26E-03,  avg # of iterations =  2.0

     total cpu time spent up to now is        4.3 secs

     total energy              =    -608.39107647 Ry
     Harris-Foulkes estimate   =    -608.39173851 Ry
     estimated scf accuracy    <       0.00675464 Ry

     iteration #  4     ecut=    70.00 Ry     beta=0.70
     Davidson diagonalization with overlap
     ethr =  1.06E-05,  avg # of iterations =  2.0

     total cpu time spent up to now is        5.5 secs

     total energy              =    -608.39255504 Ry
     Harris-Foulkes estimate   =    -608.39259907 Ry
     estimated scf accuracy    <       0.00011010 Ry

     iteration #  5     ecut=    70.00 Ry     beta=0.70
     Davidson diagonalization with overlap
     ethr =  1.72E-07,  avg # of iterations =  1.6

     total cpu time spent up to now is        6.5 secs

     total energy              =    -608.39256238 Ry
     Harris-Foulkes estimate   =    -608.39256090 Ry
     estimated scf accuracy    <       0.00001033 Ry

     iteration #  6     ecut=    70.00 Ry     beta=0.70
     Davidson diagonalization with overlap
     ethr =  1.61E-08,  avg # of iterations =  2.0

     total cpu time spent up to now is        7.8 secs

     total energy              =    -608.39256398 Ry
     Harris-Foulkes estimate   =    -608.39256437 Ry
     estimated scf accuracy    <       0.00000100 Ry

     iteration #  7     ecut=    70.00 Ry     beta=0.70
     Davidson diagonalization with overlap
     ethr =  1.56E-09,  avg # of iterations =  2.0

     total cpu time spent up to now is        8.9 secs

     total energy              =    -608.39256396 Ry
     Harris-Foulkes estimate   =    -608.39256406 Ry
     estimated scf accuracy    <       0.00000024 Ry

     iteration #  8     ecut=    70.00 Ry     beta=0.70
     Davidson diagonalization with overlap
     ethr =  3.80E-10,  avg # of iterations =  2.0

     total cpu time spent up to now is       10.1 secs

     total energy              =    -608.39256397 Ry
     Harris-Foulkes estimate   =    -608.39256399 Ry
     estimated scf accuracy    <       0.00000004 Ry

     iteration #  9     ecut=    70.00 Ry     beta=0.70
     Davidson diagonalization with overlap
     ethr =  6.36E-11,  avg # of iterations =  2.0

     total cpu time spent up to now is       11.5 secs

     End of self-consistent calculation

          k = 0.0000 0.0000 0.0000 (  5141 PWs)   bands (ev):

   -64.8345 -64.8250 -64.8250 -64.8242 -31.6308 -31.6308 -31.6307 -31.5944
   -31.5934 -31.5933 -31.5928 -31.5927 -31.5916 -31.5662 -31.5639 -31.5635
    -9.3643  -7.9135  -7.9130  -7.9129   3.7584   3.7590   3.7591   6.3350
     6.3803   6.3804   6.3805   6.3809   6.4265   7.6444   7.6724   7.7015

          k = 0.0000 0.0000 0.2500 (  5153 PWs)   bands (ev):

   -64.8331 -64.8263 -64.8250 -64.8244 -31.6250 -31.6249 -31.6204 -31.5978
   -31.5977 -31.5941 -31.5939 -31.5904 -31.5869 -31.5781 -31.5729 -31.5692
    -9.1559  -8.1283  -7.8846  -7.8845   4.0472   4.0491   4.0976   5.8583
     5.8583   6.1709   6.1714   6.4999   6.5878   6.6592   7.4192   7.4834

          k = 0.0000 0.0000-0.5000 (  5122 PWs)   bands (ev):

   -64.8299 -64.8294 -64.8250 -64.8244 -31.6134 -31.6131 -31.6071 -31.6068
   -31.6018 -31.6017 -31.5910 -31.5909 -31.5824 -31.5821 -31.5785 -31.5782
    -8.6457  -8.6456  -7.8558  -7.8557   4.8424   4.8424   4.8530   4.8530
     5.1236   5.1239   5.9739   5.9742   6.9305   6.9306   7.0078   7.0079

          k = 0.0000 0.2500 0.0000 (  5164 PWs)   bands (ev):

   -64.8331 -64.8263 -64.8250 -64.8244 -31.6249 -31.6244 -31.6213 -31.5992
   -31.5983 -31.5934 -31.5929 -31.5890 -31.5888 -31.5792 -31.5715 -31.5708
    -9.1558  -8.1279  -7.8850  -7.8845   4.0487   4.0489   4.0957   5.8521
     5.8585   6.1710   6.1779   6.5432   6.5434   6.6591   7.4504   7.4513

          k = 0.0000 0.2500 0.2500 (  5156 PWs)   bands (ev):

   -64.8319 -64.8262 -64.8259 -64.8248 -31.6210 -31.6209 -31.6199 -31.6071
   -31.5944 -31.5939 -31.5930 -31.5874 -31.5864 -31.5861 -31.5755 -31.5686
    -8.9657  -8.0636  -8.0632  -7.8896   4.1615   4.1622   4.3292   5.0716
     5.8473   6.0537   6.0558   6.4855   6.4883   6.5843   7.1733   7.5066

          k = 0.0000 0.2500-0.5000 (  5148 PWs)   bands (ev):

   -64.8292 -64.8287 -64.8257 -64.8251 -31.6178 -31.6176 -31.6101 -31.6101
   -31.6064 -31.6061 -31.5852 -31.5849 -31.5836 -31.5836 -31.5751 -31.5749
    -8.5093  -8.5092  -7.9463  -7.9462   4.4189   4.4190   4.7512   4.7514
     5.0967   5.0968   6.5480   6.5483   6.5757   6.5758   7.0961   7.0961

          k = 0.0000-0.5000 0.0000 (  5124 PWs)   bands (ev):

   -64.8299 -64.8294 -64.8250 -64.8245 -31.6109 -31.6102 -31.6098 -31.6096
   -31.6021 -31.6016 -31.5916 -31.5913 -31.5804 -31.5802 -31.5800 -31.5797
    -8.6456  -8.6452  -7.8563  -7.8557   4.8462   4.8481   4.8482   4.8483
     5.1233   5.1238   5.9736   5.9762   6.9686   6.9688   6.9691   6.9692

          k = 0.0000-0.5000 0.2500 (  5156 PWs)   bands (ev):

   -64.8292 -64.8287 -64.8257 -64.8251 -31.6177 -31.6173 -31.6104 -31.6101
   -31.6069 -31.6067 -31.5851 -31.5848 -31.5840 -31.5838 -31.5753 -31.5750
    -8.5093  -8.5089  -7.9467  -7.9462   4.4183   4.4187   4.7516   4.7520
     5.0967   5.0969   6.5481   6.5494   6.5761   6.5764   7.0944   7.0950

          k = 0.0000-0.5000-0.5000 (  5184 PWs)   bands (ev):

   -64.8275 -64.8274 -64.8274 -64.8264 -31.6193 -31.6191 -31.6190 -31.6189
   -31.5969 -31.5967 -31.5967 -31.5964 -31.5759 -31.5757 -31.5756 -31.5756
    -8.2051  -8.2050  -8.2047  -8.2046   4.2935   4.2936   4.2938   4.2939
     5.7679   5.7680   5.7682   5.7683   7.0637   7.0639   7.0645   7.0647

          k = 0.2500 0.0020 0.0000 (  5164 PWs)   bands (ev):

   -64.8331 -64.8263 -64.8250 -64.8244 -31.6249 -31.6244 -31.6213 -31.5992
   -31.5983 -31.5933 -31.5931 -31.5890 -31.5888 -31.5792 -31.5715 -31.5708
    -9.1558  -8.1280  -7.8848  -7.8846   4.0487   4.0489   4.0957   5.8539
     5.8586   6.1709   6.1753   6.5432   6.5437   6.6586   7.4504   7.4517

          k = 0.2500 0.0020 0.2500 (  5156 PWs)   bands (ev):

   -64.8319 -64.8262 -64.8258 -64.8248 -31.6211 -31.6208 -31.6199 -31.6071
   -31.5947 -31.5936 -31.5931 -31.5874 -31.5865 -31.5860 -31.5755 -31.5686
    -8.9657  -8.0696  -8.0571  -7.8896   4.1512   4.1724   4.3291   5.0715
     5.8472   6.0396   6.0705   6.4794   6.4937   6.5840   7.1737   7.5064

          k = 0.2500 0.0020-0.5000 (  5148 PWs)   bands (ev):

   -64.8292 -64.8287 -64.8257 -64.8251 -31.6178 -31.6176 -31.6101 -31.6101
   -31.6065 -31.6061 -31.5852 -31.5849 -31.5836 -31.5836 -31.5751 -31.5749
    -8.5093  -8.5092  -7.9462  -7.9461   4.4182   4.4183   4.7518   4.7521
     5.0965   5.0967   6.5482   6.5485   6.5760   6.5761   7.0957   7.0959

          k = 0.2500 0.2520 0.0000 (  5159 PWs)   bands (ev):

   -64.8318 -64.8263 -64.8259 -64.8248 -31.6195 -31.6190 -31.6189 -31.6100
   -31.5946 -31.5943 -31.5942 -31.5879 -31.5877 -31.5859 -31.5758 -31.5671
    -8.9616  -8.0683  -8.0682  -7.8850   4.1639   4.1639   4.3332   5.0958
     5.8613   6.0494   6.0498   6.4937   6.4941   6.5436   7.1809   7.4780

          k = 0.2500 0.2520 0.2500 (  5154 PWs)   bands (ev):

   -64.8308 -64.8263 -64.8262 -64.8254 -31.6259 -31.6232 -31.6230 -31.6070
   -31.5961 -31.5956 -31.5949 -31.5835 -31.5835 -31.5822 -31.5720 -31.5697
    -8.7918  -8.0369  -8.0350  -8.0239   3.9945   3.9971   4.0181   5.1068
     5.8390   5.8511   5.8703   6.6669   6.7100   6.7102   7.3257   7.3595

          k = 0.2500 0.2520-0.5000 (  5148 PWs)   bands (ev):

   -64.8286 -64.8282 -64.8263 -64.8256 -31.6264 -31.6262 -31.6224 -31.6223
   -31.5960 -31.5957 -31.5799 -31.5798 -31.5788 -31.5787 -31.5761 -31.5758
    -8.3946  -8.3945  -8.0013  -8.0013   3.8135   3.8136   4.2168   4.2170
     5.8413   5.8413   6.7444   6.7446   6.8739   6.8741   6.9815   6.9816

          k = 0.2500-0.4981 0.0000 (  5153 PWs)   bands (ev):

   -64.8292 -64.8287 -64.8257 -64.8251 -31.6202 -31.6148 -31.6128 -31.6075
   -31.6070 -31.6066 -31.5856 -31.5850 -31.5848 -31.5817 -31.5770 -31.5735
    -8.5154  -8.5028  -7.9533  -7.9395   4.4098   4.4272   4.7480   4.7553
     5.0895   5.1037   6.5216   6.5664   6.5766   6.5862   7.0742   7.1156

          k = 0.2500-0.4981 0.2500 (  5138 PWs)   bands (ev):

   -64.8287 -64.8282 -64.8262 -64.8256 -31.6299 -31.6265 -31.6232 -31.6188
   -31.5933 -31.5928 -31.5818 -31.5797 -31.5795 -31.5782 -31.5770 -31.5754
    -8.4049  -8.3923  -8.0034  -7.9900   3.8080   3.8355   4.1881   4.2087
     5.8240   5.8367   6.7215   6.7613   6.8548   6.8821   7.0115   7.0238

          k = 0.2500-0.4981-0.5000 (  5144 PWs)   bands (ev):

   -64.8275 -64.8274 -64.8274 -64.8264 -31.6336 -31.6335 -31.6300 -31.6298
   -31.5842 -31.5840 -31.5822 -31.5821 -31.5753 -31.5752 -31.5748 -31.5747
    -8.1738  -8.1737  -8.1610  -8.1609   3.6261   3.6262   3.6552   3.6553
     6.5038   6.5039   6.5456   6.5457   7.0589   7.0591   7.0714   7.0716

          k = 0.2500-0.2480 0.0000 (  5155 PWs)   bands (ev):

   -64.8319 -64.8262 -64.8258 -64.8249 -31.6232 -31.6230 -31.6197 -31.6052
   -31.5941 -31.5940 -31.5902 -31.5883 -31.5850 -31.5848 -31.5755 -31.5708
    -8.9697  -8.0584  -8.0583  -7.8945   4.1599   4.1599   4.3247   5.0471
     5.8340   6.0623   6.0627   6.4768   6.4772   6.6259   7.1658   7.5343

          k = 0.2500-0.2480 0.2500 (  5146 PWs)   bands (ev):

   -64.8309 -64.8263 -64.8262 -64.8254 -31.6273 -31.6271 -31.6242 -31.6046
   -31.5922 -31.5917 -31.5912 -31.5857 -31.5838 -31.5837 -31.5733 -31.5704
    -8.7999  -8.0365  -8.0252  -8.0236   3.9834   4.0045   4.0070   5.0726
     5.8223   5.8414   5.8534   6.7019   6.7021   6.7458   7.3519   7.3864

          k = 0.2500-0.2480-0.5000 (  5124 PWs)   bands (ev):

   -64.8287 -64.8283 -64.8262 -64.8255 -31.6300 -31.6298 -31.6199 -31.6199
   -31.5901 -31.5898 -31.5814 -31.5814 -31.5794 -31.5791 -31.5763 -31.5762
    -8.4030  -8.4029  -7.9917  -7.9916   3.8295   3.8296   4.1802   4.1804
     5.8202   5.8202   6.7367   6.7370   6.8648   6.8650   7.0521   7.0522

          k =-0.5000-0.0039 0.0000 (  5124 PWs)   bands (ev):

   -64.8299 -64.8294 -64.8250 -64.8245 -31.6106 -31.6105 -31.6098 -31.6096
   -31.6018 -31.6018 -31.5915 -31.5915 -31.5804 -31.5802 -31.5799 -31.5798
    -8.6455  -8.6454  -7.8559  -7.8559   4.8478   4.8478   4.8482   4.8482
     5.1233   5.1235   5.9737   5.9739   6.9688   6.9688   6.9693   6.9693

          k =-0.5000-0.0039 0.2500 (  5156 PWs)   bands (ev):

   -64.8291 -64.8287 -64.8257 -64.8251 -31.6175 -31.6174 -31.6103 -31.6102
   -31.6069 -31.6068 -31.5850 -31.5849 -31.5839 -31.5839 -31.5752 -31.5751
    -8.5092  -8.5091  -7.9463  -7.9463   4.4180   4.4181   4.7519   4.7521
     5.0969   5.0969   6.5480   6.5482   6.5768   6.5768   7.0945   7.0946

          k =-0.5000-0.0039-0.5000 (  5184 PWs)   bands (ev):

   -64.8276 -64.8274 -64.8273 -64.8264 -31.6193 -31.6192 -31.6189 -31.6189
   -31.5976 -31.5973 -31.5961 -31.5957 -31.5761 -31.5761 -31.5753 -31.5753
    -8.2133  -8.2132  -8.1965  -8.1964   4.2779   4.2781   4.3090   4.3091
     5.7483   5.7484   5.7886   5.7886   7.0553   7.0555   7.0725   7.0727

          k =-0.5000 0.2461 0.0000 (  5153 PWs)   bands (ev):

   -64.8292 -64.8287 -64.8257 -64.8251 -31.6202 -31.6149 -31.6128 -31.6074
   -31.6069 -31.6066 -31.5856 -31.5850 -31.5848 -31.5817 -31.5770 -31.5735
    -8.5154  -8.5028  -7.9533  -7.9395   4.4099   4.4272   4.7480   4.7552
     5.0896   5.1037   6.5212   6.5663   6.5761   6.5861   7.0745   7.1158

          k =-0.5000 0.2461 0.2500 (  5138 PWs)   bands (ev):

   -64.8287 -64.8282 -64.8262 -64.8256 -31.6299 -31.6265 -31.6232 -31.6188
   -31.5933 -31.5928 -31.5818 -31.5796 -31.5795 -31.5783 -31.5770 -31.5754
    -8.4049  -8.3924  -8.0033  -7.9899   3.8079   3.8353   4.1882   4.2088
     5.8242   5.8368   6.7210   6.7608   6.8552   6.8824   7.0115   7.0238

          k =-0.5000 0.2461-0.5000 (  5144 PWs)   bands (ev):

   -64.8276 -64.8274 -64.8273 -64.8264 -31.6337 -31.6335 -31.6299 -31.6298
   -31.5843 -31.5841 -31.5822 -31.5820 -31.5754 -31.5753 -31.5746 -31.5746
    -8.1761  -8.1761  -8.1586  -8.1585   3.6221   3.6223   3.6591   3.6592
     6.4994   6.4994   6.5505   6.5506   7.0562   7.0564   7.0736   7.0738

          k =-0.5000-0.5039 0.0000 (  5188 PWs)   bands (ev):

   -64.8276 -64.8274 -64.8273 -64.8264 -31.6222 -31.6219 -31.6165 -31.6162
   -31.5970 -31.5969 -31.5968 -31.5965 -31.5772 -31.5768 -31.5745 -31.5742
    -8.2143  -8.2142  -8.1955  -8.1954   4.2880   4.2880   4.2989   4.2989
     5.7562   5.7565   5.7793   5.7797   7.0327   7.0327   7.0964   7.0964

          k =-0.5000-0.5039 0.2500 (  5140 PWs)   bands (ev):

   -64.8276 -64.8274 -64.8273 -64.8264 -31.6337 -31.6335 -31.6299 -31.6298
   -31.5836 -31.5836 -31.5820 -31.5820 -31.5773 -31.5770 -31.5732 -31.5729
    -8.1766  -8.1766  -8.1581  -8.1580   3.6287   3.6288   3.6524   3.6525
     6.5212   6.5215   6.5280   6.5282   7.0339   7.0339   7.0971   7.0971

          k =-0.5000-0.5039-0.5000 (  5136 PWs)   bands (ev):

   -64.8276 -64.8274 -64.8273 -64.8264 -31.6401 -31.6399 -31.6391 -31.6390
   -31.5765 -31.5762 -31.5755 -31.5754 -31.5744 -31.5744 -31.5737 -31.5734
    -8.1385  -8.1384  -8.1200  -8.1200   3.2031   3.2032   3.2325   3.2326
     7.0346   7.0346   7.0645   7.0647   7.0664   7.0667   7.0980   7.0980

          k = 0.0000-0.2500 0.2500 (  5156 PWs)   bands (ev):

   -64.8319 -64.8262 -64.8259 -64.8248 -31.6210 -31.6209 -31.6199 -31.6071
   -31.5944 -31.5939 -31.5930 -31.5874 -31.5864 -31.5861 -31.5755 -31.5686
    -8.9657  -8.0636  -8.0632  -7.8896   4.1615   4.1622   4.3292   5.0716
     5.8473   6.0537   6.0558   6.4855   6.4883   6.5843   7.1733   7.5066

          k =-0.2500-0.0020 0.2500 (  5156 PWs)   bands (ev):

   -64.8319 -64.8262 -64.8258 -64.8248 -31.6211 -31.6208 -31.6199 -31.6071
   -31.5947 -31.5936 -31.5931 -31.5874 -31.5865 -31.5860 -31.5755 -31.5686
    -8.9657  -8.0696  -8.0571  -7.8896   4.1512   4.1724   4.3291   5.0715
     5.8472   6.0396   6.0705   6.4794   6.4937   6.5840   7.1737   7.5064

          k =-0.2500-0.2520 0.2500 (  5154 PWs)   bands (ev):

   -64.8308 -64.8263 -64.8262 -64.8254 -31.6259 -31.6232 -31.6230 -31.6070
   -31.5961 -31.5956 -31.5949 -31.5835 -31.5835 -31.5822 -31.5720 -31.5697
    -8.7918  -8.0369  -8.0350  -8.0239   3.9945   3.9971   4.0181   5.1068
     5.8390   5.8511   5.8703   6.6669   6.7100   6.7102   7.3257   7.3595

          k =-0.2500 0.4981 0.2500 (  5138 PWs)   bands (ev):

   -64.8287 -64.8282 -64.8262 -64.8256 -31.6299 -31.6265 -31.6232 -31.6188
   -31.5933 -31.5928 -31.5818 -31.5797 -31.5795 -31.5782 -31.5770 -31.5754
    -8.4049  -8.3923  -8.0034  -7.9900   3.8080   3.8355   4.1881   4.2087
     5.8240   5.8367   6.7215   6.7613   6.8548   6.8821   7.0115   7.0238

          k =-0.2500 0.2480 0.2500 (  5146 PWs)   bands (ev):

   -64.8309 -64.8263 -64.8262 -64.8254 -31.6273 -31.6271 -31.6242 -31.6046
   -31.5922 -31.5917 -31.5912 -31.5857 -31.5838 -31.5837 -31.5733 -31.5704
    -8.7999  -8.0365  -8.0252  -8.0236   3.9834   4.0045   4.0070   5.0726
     5.8223   5.8414   5.8534   6.7019   6.7021   6.7458   7.3519   7.3864

          k = 0.5000-0.2461 0.2500 (  5138 PWs)   bands (ev):

   -64.8287 -64.8282 -64.8262 -64.8256 -31.6299 -31.6265 -31.6232 -31.6188
   -31.5933 -31.5928 -31.5818 -31.5796 -31.5795 -31.5783 -31.5770 -31.5754
    -8.4049  -8.3924  -8.0033  -7.9899   3.8079   3.8353   4.1882   4.2088
     5.8242   5.8368   6.7210   6.7608   6.8552   6.8824   7.0115   7.0238

     highest occupied level (ev):     7.7015

!    total energy              =    -608.39256398 Ry
     Harris-Foulkes estimate   =    -608.39256398 Ry
     estimated scf accuracy    <          1.3E-09 Ry

     The total energy is the sum of the following terms:

     one-electron contribution =    -303.55063753 Ry
     hartree contribution      =     168.06488430 Ry
     xc contribution           =     -97.84632246 Ry
     ewald contribution        =    -375.06048828 Ry

     convergence has been achieved in   9 iterations

     Forces acting on atoms (cartesian axes, Ry/au):

     atom    1 type  1   force =     0.00185598    0.00007641   -0.00000755
     atom    2 type  1   force =    -0.00198500   -0.00007967    0.00000785
     atom    3 type  1   force =     0.00185358    0.00007650    0.00000736
     atom    4 type  1   force =    -0.00166059   -0.00007139   -0.00000759
     atom    5 type  2   force =     0.00231028    0.00003800   -0.00000873
     atom    6 type  2   force =    -0.00242914   -0.00003988   -0.00000899
     atom    7 type  2   force =     0.00231178    0.00003784    0.00000859
     atom    8 type  2   force =    -0.00225689   -0.00003781    0.00000907

     Total force =     0.005940     Total SCF correction =     0.000018


     Computing stress (Cartesian axis) and pressure

          total   stress  (Ry/bohr**3)                   (kbar)     P=  -68.12
  -0.00046394   0.00007551   0.00000000        -68.25     11.11      0.00
   0.00007551  -0.00046207   0.00000000         11.11    -67.97      0.00
   0.00000000   0.00000000  -0.00046312          0.00      0.00    -68.13


     BFGS Geometry Optimization

     number of scf cycles    =   1
     number of bfgs steps    =   0

     energy   new            =    -608.3925639753 Ry

     new trust radius        =       0.0024294888 bohr
     new conv_thr            =       0.0000000100 Ry


ATOMIC_POSITIONS (alat)
Mg       0.000230707   0.000009498  -0.000000938
Mg      -0.000246745   0.499990097   0.500000975
Mg       0.500230409   0.000009509   0.500000915
Mg       0.499793581   0.499991126  -0.000000943
O        0.500287179   0.000004723  -0.000001086
O       -0.000301954   0.499995043  -0.000001117
O        0.000287365   0.000004704   0.500001067
O        0.499719459   0.499995299   0.500001127



     Writing output data file diamond..70.4.save
     NEW-OLD atomic charge density approx. for the potential

     Check: negative/imaginary core charge=   -0.000007    0.000000

     total cpu time spent up to now is       12.1 secs

     per-process dynamical memory:    52.8 Mb

     Self-consistent Calculation

     iteration #  1     ecut=    70.00 Ry     beta=0.70
     Davidson diagonalization with overlap
     ethr =  1.00E-06,  avg # of iterations =  3.0

     Threshold (ethr) on eigenvalues was too large:
     Diagonalizing with lowered threshold

     Davidson diagonalization with overlap
     ethr =  3.50E-09,  avg # of iterations =  2.4

     total cpu time spent up to now is       14.9 secs

     total energy              =    -608.39259640 Ry
     Harris-Foulkes estimate   =    -608.39259770 Ry
     estimated scf accuracy    <       0.00000230 Ry

     iteration #  2     ecut=    70.00 Ry     beta=0.70
     Davidson diagonalization with overlap
     ethr =  3.60E-09,  avg # of iterations =  2.0

     total cpu time spent up to now is       16.1 secs

     total energy              =    -608.39259679 Ry
     Harris-Foulkes estimate   =    -608.39259681 Ry
     estimated scf accuracy    <       0.00000006 Ry

     iteration #  3     ecut=    70.00 Ry     beta=0.70
     Davidson diagonalization with overlap
     ethr =  9.06E-11,  avg # of iterations =  2.0

     total cpu time spent up to now is       17.3 secs

     End of self-consistent calculation

          k = 0.0000 0.0000 0.0000 (  5141 PWs)   bands (ev):

   -64.8347 -64.8252 -64.8252 -64.8244 -31.6310 -31.6309 -31.6309 -31.5946
   -31.5936 -31.5935 -31.5929 -31.5929 -31.5917 -31.5664 -31.5640 -31.5636
    -9.3643  -7.9135  -7.9130  -7.9129   3.7585   3.7590   3.7591   6.3350
     6.3803   6.3804   6.3805   6.3809   6.4266   7.6444   7.6726   7.7015

          k = 0.0000 0.0000 0.2500 (  5153 PWs)   bands (ev):

   -64.8333 -64.8264 -64.8252 -64.8246 -31.6251 -31.6250 -31.6205 -31.5980
   -31.5979 -31.5942 -31.5941 -31.5905 -31.5870 -31.5782 -31.5730 -31.5694
    -9.1558  -8.1283  -7.8845  -7.8845   4.0477   4.0491   4.0971   5.8583
     5.8584   6.1710   6.1714   6.4999   6.5878   6.6592   7.4192   7.4834

          k = 0.0000 0.0000-0.5000 (  5122 PWs)   bands (ev):

   -64.8301 -64.8296 -64.8252 -64.8246 -31.6136 -31.6133 -31.6072 -31.6069
   -31.6019 -31.6018 -31.5912 -31.5910 -31.5825 -31.5822 -31.5787 -31.5784
    -8.6456  -8.6455  -7.8557  -7.8557   4.8425   4.8425   4.8531   4.8531
     5.1234   5.1237   5.9739   5.9743   6.9305   6.9306   7.0078   7.0079

          k = 0.0000 0.2500 0.0000 (  5164 PWs)   bands (ev):

   -64.8333 -64.8264 -64.8252 -64.8246 -31.6250 -31.6245 -31.6214 -31.5994
   -31.5984 -31.5935 -31.5931 -31.5892 -31.5889 -31.5793 -31.5716 -31.5710
    -9.1558  -8.1279  -7.8850  -7.8844   4.0487   4.0489   4.0957   5.8526
     5.8586   6.1710   6.1774   6.5433   6.5434   6.6590   7.4505   7.4514

          k = 0.0000 0.2500 0.2500 (  5156 PWs)   bands (ev):

   -64.8320 -64.8264 -64.8260 -64.8250 -31.6212 -31.6211 -31.6200 -31.6072
   -31.5945 -31.5941 -31.5931 -31.5876 -31.5865 -31.5862 -31.5757 -31.5687
    -8.9657  -8.0635  -8.0632  -7.8896   4.1615   4.1622   4.3292   5.0716
     5.8473   6.0538   6.0559   6.4855   6.4882   6.5842   7.1733   7.5066

          k = 0.0000 0.2500-0.5000 (  5148 PWs)   bands (ev):

   -64.8293 -64.8289 -64.8259 -64.8253 -31.6180 -31.6177 -31.6102 -31.6102
   -31.6065 -31.6063 -31.5853 -31.5851 -31.5837 -31.5837 -31.5753 -31.5751
    -8.5092  -8.5092  -7.9462  -7.9462   4.4189   4.4190   4.7512   4.7514
     5.0967   5.0968   6.5482   6.5484   6.5757   6.5758   7.0960   7.0961

          k = 0.0000-0.5000 0.0000 (  5124 PWs)   bands (ev):

   -64.8300 -64.8296 -64.8252 -64.8246 -31.6110 -31.6104 -31.6100 -31.6097
   -31.6022 -31.6018 -31.5917 -31.5915 -31.5806 -31.5803 -31.5801 -31.5798
    -8.6456  -8.6452  -7.8562  -7.8557   4.8464   4.8481   4.8483   4.8484
     5.1232   5.1238   5.9736   5.9758   6.9686   6.9689   6.9692   6.9693

          k = 0.0000-0.5000 0.2500 (  5156 PWs)   bands (ev):

   -64.8293 -64.8289 -64.8259 -64.8253 -31.6178 -31.6175 -31.6105 -31.6103
   -31.6071 -31.6068 -31.5852 -31.5850 -31.5841 -31.5839 -31.5754 -31.5752
    -8.5092  -8.5089  -7.9467  -7.9461   4.4184   4.4187   4.7515   4.7520
     5.0967   5.0971   6.5481   6.5492   6.5762   6.5764   7.0944   7.0949

          k = 0.0000-0.5000-0.5000 (  5184 PWs)   bands (ev):

   -64.8276 -64.8276 -64.8276 -64.8266 -31.6194 -31.6193 -31.6191 -31.6191
   -31.5970 -31.5968 -31.5968 -31.5965 -31.5760 -31.5758 -31.5758 -31.5757
    -8.2051  -8.2050  -8.2046  -8.2046   4.2935   4.2936   4.2938   4.2939
     5.7679   5.7680   5.7683   5.7685   7.0638   7.0639   7.0644   7.0646

          k = 0.2500 0.0020 0.0000 (  5164 PWs)   bands (ev):

   -64.8333 -64.8264 -64.8252 -64.8246 -31.6250 -31.6245 -31.6214 -31.5994
   -31.5984 -31.5934 -31.5932 -31.5892 -31.5889 -31.5793 -31.5716 -31.5710
    -9.1558  -8.1280  -7.8848  -7.8846   4.0487   4.0489   4.0957   5.8540
     5.8586   6.1710   6.1755   6.5433   6.5436   6.6587   7.4505   7.4517

          k = 0.2500 0.0020 0.2500 (  5156 PWs)   bands (ev):

   -64.8320 -64.8264 -64.8260 -64.8250 -31.6212 -31.6210 -31.6200 -31.6072
   -31.5948 -31.5937 -31.5932 -31.5876 -31.5866 -31.5862 -31.5757 -31.5687
    -8.9657  -8.0686  -8.0580  -7.8896   4.1529   4.1708   4.3291   5.0716
     5.8473   6.0419   6.0681   6.4805   6.4927   6.5841   7.1737   7.5064

          k = 0.2500 0.0020-0.5000 (  5148 PWs)   bands (ev):

   -64.8293 -64.8289 -64.8259 -64.8253 -31.6179 -31.6178 -31.6102 -31.6102
   -31.6066 -31.6063 -31.5853 -31.5850 -31.5837 -31.5837 -31.5752 -31.5751
    -8.5093  -8.5092  -7.9462  -7.9461   4.4184   4.4185   4.7517   4.7519
     5.0966   5.0967   6.5483   6.5485   6.5759   6.5759   7.0958   7.0959

          k = 0.2500 0.2520 0.0000 (  5159 PWs)   bands (ev):

   -64.8320 -64.8265 -64.8260 -64.8249 -31.6197 -31.6191 -31.6190 -31.6101
   -31.5947 -31.5945 -31.5944 -31.5880 -31.5879 -31.5861 -31.5760 -31.5672
    -8.9616  -8.0682  -8.0681  -7.8850   4.1638   4.1639   4.3332   5.0959
     5.8613   6.0494   6.0498   6.4937   6.4940   6.5435   7.1809   7.4780

          k = 0.2500 0.2520 0.2500 (  5154 PWs)   bands (ev):

   -64.8310 -64.8265 -64.8264 -64.8256 -31.6261 -31.6233 -31.6231 -31.6072
   -31.5962 -31.5957 -31.5951 -31.5836 -31.5836 -31.5823 -31.5721 -31.5699
    -8.7917  -8.0364  -8.0349  -8.0243   3.9952   3.9971   4.0175   5.1068
     5.8413   5.8512   5.8681   6.6668   6.7100   6.7102   7.3257   7.3596

          k = 0.2500 0.2520-0.5000 (  5148 PWs)   bands (ev):

   -64.8288 -64.8283 -64.8265 -64.8258 -31.6265 -31.6263 -31.6225 -31.6224
   -31.5962 -31.5959 -31.5800 -31.5800 -31.5789 -31.5788 -31.5762 -31.5759
    -8.3945  -8.3945  -8.0013  -8.0013   3.8136   3.8137   4.2168   4.2169
     5.8413   5.8413   6.7444   6.7447   6.8739   6.8740   6.9815   6.9816

          k = 0.2500-0.4981 0.0000 (  5153 PWs)   bands (ev):

   -64.8293 -64.8289 -64.8259 -64.8253 -31.6203 -31.6150 -31.6130 -31.6076
   -31.6071 -31.6067 -31.5857 -31.5852 -31.5849 -31.5819 -31.5771 -31.5736
    -8.5153  -8.5028  -7.9533  -7.9395   4.4099   4.4272   4.7480   4.7553
     5.0896   5.1037   6.5215   6.5664   6.5765   6.5862   7.0742   7.1156

          k = 0.2500-0.4981 0.2500 (  5138 PWs)   bands (ev):

   -64.8288 -64.8284 -64.8264 -64.8258 -31.6301 -31.6266 -31.6233 -31.6189
   -31.5934 -31.5929 -31.5819 -31.5798 -31.5796 -31.5784 -31.5771 -31.5755
    -8.4048  -8.3923  -8.0033  -7.9899   3.8081   3.8355   4.1881   4.2087
     5.8241   5.8368   6.7214   6.7612   6.8549   6.8822   7.0115   7.0238

          k = 0.2500-0.4981-0.5000 (  5144 PWs)   bands (ev):

   -64.8277 -64.8276 -64.8275 -64.8266 -31.6338 -31.6336 -31.6301 -31.6300
   -31.5844 -31.5841 -31.5824 -31.5822 -31.5755 -31.5753 -31.5749 -31.5748
    -8.1737  -8.1736  -8.1609  -8.1609   3.6261   3.6262   3.6552   3.6553
     6.5039   6.5040   6.5457   6.5458   7.0589   7.0591   7.0714   7.0715

          k = 0.2500-0.2480 0.0000 (  5155 PWs)   bands (ev):

   -64.8321 -64.8263 -64.8260 -64.8250 -31.6234 -31.6231 -31.6198 -31.6053
   -31.5943 -31.5942 -31.5904 -31.5884 -31.5852 -31.5850 -31.5757 -31.5709
    -8.9696  -8.0584  -8.0583  -7.8945   4.1598   4.1600   4.3248   5.0472
     5.8340   6.0623   6.0627   6.4768   6.4771   6.6259   7.1659   7.5343

          k = 0.2500-0.2480 0.2500 (  5146 PWs)   bands (ev):

   -64.8311 -64.8264 -64.8263 -64.8256 -31.6274 -31.6272 -31.6243 -31.6047
   -31.5923 -31.5918 -31.5914 -31.5858 -31.5840 -31.5839 -31.5734 -31.5706
    -8.7998  -8.0361  -8.0252  -8.0240   3.9841   4.0046   4.0064   5.0726
     5.8245   5.8415   5.8512   6.7019   6.7021   6.7458   7.3519   7.3864

          k = 0.2500-0.2480-0.5000 (  5124 PWs)   bands (ev):

   -64.8289 -64.8284 -64.8263 -64.8257 -31.6301 -31.6299 -31.6201 -31.6200
   -31.5902 -31.5900 -31.5815 -31.5815 -31.5795 -31.5792 -31.5764 -31.5763
    -8.4029  -8.4028  -7.9917  -7.9916   3.8296   3.8297   4.1802   4.1803
     5.8202   5.8203   6.7368   6.7370   6.8648   6.8650   7.0521   7.0522

          k =-0.5000-0.0039 0.0000 (  5124 PWs)   bands (ev):

   -64.8300 -64.8296 -64.8252 -64.8246 -31.6108 -31.6106 -31.6099 -31.6098
   -31.6020 -31.6020 -31.5917 -31.5916 -31.5805 -31.5804 -31.5800 -31.5799
    -8.6455  -8.6453  -7.8559  -7.8558   4.8477   4.8479   4.8481   4.8483
     5.1233   5.1235   5.9738   5.9740   6.9688   6.9690   6.9692   6.9693

          k =-0.5000-0.0039 0.2500 (  5156 PWs)   bands (ev):

   -64.8293 -64.8289 -64.8259 -64.8253 -31.6177 -31.6176 -31.6104 -31.6104
   -31.6070 -31.6069 -31.5851 -31.5850 -31.5841 -31.5840 -31.5753 -31.5752
    -8.5092  -8.5090  -7.9464  -7.9463   4.4181   4.4183   4.7518   4.7520
     5.0968   5.0971   6.5481   6.5483   6.5766   6.5768   7.0946   7.0946

          k =-0.5000-0.0039-0.5000 (  5184 PWs)   bands (ev):

   -64.8277 -64.8276 -64.8275 -64.8266 -31.6195 -31.6193 -31.6191 -31.6190
   -31.5977 -31.5973 -31.5963 -31.5960 -31.5762 -31.5762 -31.5755 -31.5754
    -8.2120  -8.2119  -8.1977  -8.1976   4.2804   4.2805   4.3066   4.3068
     5.7513   5.7515   5.7854   5.7856   7.0566   7.0568   7.0712   7.0715

          k =-0.5000 0.2461 0.0000 (  5153 PWs)   bands (ev):

   -64.8293 -64.8289 -64.8259 -64.8253 -31.6203 -31.6150 -31.6130 -31.6076
   -31.6071 -31.6068 -31.5857 -31.5851 -31.5849 -31.5819 -31.5771 -31.5736
    -8.5154  -8.5028  -7.9533  -7.9394   4.4099   4.4273   4.7480   4.7552
     5.0896   5.1038   6.5212   6.5664   6.5761   6.5862   7.0744   7.1157

          k =-0.5000 0.2461 0.2500 (  5138 PWs)   bands (ev):

   -64.8288 -64.8284 -64.8264 -64.8258 -31.6301 -31.6267 -31.6233 -31.6189
   -31.5934 -31.5929 -31.5819 -31.5798 -31.5796 -31.5784 -31.5771 -31.5755
    -8.4049  -8.3923  -8.0033  -7.9899   3.8079   3.8354   4.1882   4.2088
     5.8242   5.8368   6.7211   6.7608   6.8551   6.8824   7.0115   7.0238

          k =-0.5000 0.2461-0.5000 (  5144 PWs)   bands (ev):

   -64.8277 -64.8276 -64.8275 -64.8266 -31.6338 -31.6336 -31.6301 -31.6300
   -31.5845 -31.5842 -31.5823 -31.5821 -31.5755 -31.5754 -31.5748 -31.5748
    -8.1755  -8.1754  -8.1591  -8.1591   3.6232   3.6233   3.6581   3.6582
     6.5006   6.5007   6.5493   6.5494   7.0569   7.0571   7.0730   7.0733

          k =-0.5000-0.5039 0.0000 (  5188 PWs)   bands (ev):

   -64.8277 -64.8276 -64.8275 -64.8266 -31.6223 -31.6220 -31.6166 -31.6164
   -31.5971 -31.5971 -31.5969 -31.5967 -31.5773 -31.5770 -31.5747 -31.5744
    -8.2142  -8.2142  -8.1954  -8.1954   4.2880   4.2881   4.2989   4.2990
     5.7562   5.7566   5.7793   5.7797   7.0327   7.0327   7.0964   7.0964

          k =-0.5000-0.5039 0.2500 (  5140 PWs)   bands (ev):

   -64.8277 -64.8276 -64.8275 -64.8266 -31.6338 -31.6336 -31.6301 -31.6299
   -31.5838 -31.5838 -31.5822 -31.5822 -31.5774 -31.5771 -31.5734 -31.5731
    -8.1766  -8.1765  -8.1580  -8.1580   3.6287   3.6288   3.6524   3.6525
     6.5213   6.5216   6.5280   6.5283   7.0339   7.0339   7.0970   7.0971

          k =-0.5000-0.5039-0.5000 (  5136 PWs)   bands (ev):

   -64.8277 -64.8276 -64.8275 -64.8265 -31.6403 -31.6401 -31.6393 -31.6391
   -31.5766 -31.5763 -31.5756 -31.5756 -31.5746 -31.5746 -31.5738 -31.5736
    -8.1384  -8.1384  -8.1200  -8.1199   3.2031   3.2032   3.2325   3.2326
     7.0345   7.0346   7.0645   7.0648   7.0665   7.0667   7.0980   7.0980

          k = 0.0000-0.2500 0.2500 (  5156 PWs)   bands (ev):

   -64.8320 -64.8264 -64.8260 -64.8250 -31.6212 -31.6211 -31.6200 -31.6072
   -31.5945 -31.5941 -31.5931 -31.5876 -31.5865 -31.5862 -31.5757 -31.5687
    -8.9657  -8.0635  -8.0632  -7.8896   4.1615   4.1622   4.3292   5.0716
     5.8473   6.0538   6.0559   6.4855   6.4882   6.5842   7.1733   7.5066

          k =-0.2500-0.0020 0.2500 (  5156 PWs)   bands (ev):

   -64.8320 -64.8264 -64.8260 -64.8250 -31.6212 -31.6210 -31.6200 -31.6072
   -31.5948 -31.5937 -31.5932 -31.5876 -31.5866 -31.5862 -31.5757 -31.5687
    -8.9657  -8.0686  -8.0580  -7.8896   4.1529   4.1708   4.3291   5.0716
     5.8473   6.0419   6.0681   6.4805   6.4927   6.5841   7.1737   7.5064

          k =-0.2500-0.2520 0.2500 (  5154 PWs)   bands (ev):

   -64.8310 -64.8265 -64.8264 -64.8256 -31.6261 -31.6233 -31.6231 -31.6072
   -31.5962 -31.5957 -31.5951 -31.5836 -31.5836 -31.5823 -31.5721 -31.5699
    -8.7917  -8.0364  -8.0349  -8.0243   3.9952   3.9971   4.0175   5.1068
     5.8413   5.8512   5.8681   6.6668   6.7100   6.7102   7.3257   7.3596

          k =-0.2500 0.4981 0.2500 (  5138 PWs)   bands (ev):

   -64.8288 -64.8284 -64.8264 -64.8258 -31.6301 -31.6266 -31.6233 -31.6189
   -31.5934 -31.5929 -31.5819 -31.5798 -31.5796 -31.5784 -31.5771 -31.5755
    -8.4048  -8.3923  -8.0033  -7.9899   3.8081   3.8355   4.1881   4.2087
     5.8241   5.8368   6.7214   6.7612   6.8549   6.8822   7.0115   7.0238

          k =-0.2500 0.2480 0.2500 (  5146 PWs)   bands (ev):

   -64.8311 -64.8264 -64.8263 -64.8256 -31.6274 -31.6272 -31.6243 -31.6047
   -31.5923 -31.5918 -31.5914 -31.5858 -31.5840 -31.5839 -31.5734 -31.5706
    -8.7998  -8.0361  -8.0252  -8.0240   3.9841   4.0046   4.0064   5.0726
     5.8245   5.8415   5.8512   6.7019   6.7021   6.7458   7.3519   7.3864

          k = 0.5000-0.2461 0.2500 (  5138 PWs)   bands (ev):

   -64.8288 -64.8284 -64.8264 -64.8258 -31.6301 -31.6267 -31.6233 -31.6189
   -31.5934 -31.5929 -31.5819 -31.5798 -31.5796 -31.5784 -31.5771 -31.5755
    -8.4049  -8.3923  -8.0033  -7.9899   3.8079   3.8354   4.1882   4.2088
     5.8242   5.8368   6.7211   6.7608   6.8551   6.8824   7.0115   7.0238

     highest occupied level (ev):     7.7015

!    total energy              =    -608.39259680 Ry
     Harris-Foulkes estimate   =    -608.39259680 Ry
     estimated scf accuracy    <          5.5E-09 Ry

     The total energy is the sum of the following terms:

     one-electron contribution =    -303.55128539 Ry
     hartree contribution      =     168.06524191 Ry
     xc contribution           =     -97.84633076 Ry
     ewald contribution        =    -375.06022256 Ry

     convergence has been achieved in   3 iterations

     Forces acting on atoms (cartesian axes, Ry/au):

     atom    1 type  1   force =     0.00165184    0.00004066   -0.00000503
     atom    2 type  1   force =    -0.00177073   -0.00004422    0.00000478
     atom    3 type  1   force =     0.00168748    0.00004085    0.00000484
     atom    4 type  1   force =    -0.00154702   -0.00003881   -0.00000517
     atom    5 type  2   force =     0.00198020    0.00002537   -0.00000730
     atom    6 type  2   force =    -0.00204307   -0.00002551   -0.00000703
     atom    7 type  2   force =     0.00196707    0.00002657    0.00000767
     atom    8 type  2   force =    -0.00192578   -0.00002491    0.00000724

     Total force =     0.005176     Total SCF correction =     0.000115


     Computing stress (Cartesian axis) and pressure

          total   stress  (Ry/bohr**3)                   (kbar)     P=  -68.08
  -0.00046365   0.00007551  -0.00000000        -68.21     11.11     -0.00
   0.00007551  -0.00046197   0.00000000         11.11    -67.96      0.00
  -0.00000000   0.00000000  -0.00046279         -0.00      0.00    -68.08


     number of scf cycles    =   2
     number of bfgs steps    =   1

     energy   old            =    -608.3925639753 Ry
     energy   new            =    -608.3925967965 Ry

     CASE: energy  _new < energy  _old


     WARNING: bfgs curvature condition failed, Theta= 0.919
     new trust radius        =       0.0026724377 bohr
     new conv_thr            =       0.0000000003 Ry


ATOMIC_POSITIONS (alat)
Mg       0.000497571   0.000016549  -0.000001781
Mg      -0.000532745   0.499982482   0.500001786
Mg       0.500502364   0.000016590   0.500001726
Mg       0.499544870   0.499984420  -0.000001806
O        0.500608431   0.000008971  -0.000002273
O       -0.000634121   0.499990745  -0.000002270
O        0.000606752   0.000009122   0.500002306
O        0.499406877   0.499991121   0.500002311



     Writing output data file diamond..70.4.save
     NEW-OLD atomic charge density approx. for the potential

     Check: negative/imaginary core charge=   -0.000007    0.000000

     total cpu time spent up to now is       17.9 secs

     per-process dynamical memory:    52.8 Mb

     Self-consistent Calculation

     iteration #  1     ecut=    70.00 Ry     beta=0.70
     Davidson diagonalization with overlap
     ethr =  1.00E-06,  avg # of iterations =  3.0

     Threshold (ethr) on eigenvalues was too large:
     Diagonalizing with lowered threshold

     Davidson diagonalization with overlap
     ethr =  4.24E-09,  avg # of iterations =  2.3

     total cpu time spent up to now is       20.7 secs

     total energy              =    -608.39262766 Ry
     Harris-Foulkes estimate   =    -608.39262923 Ry
     estimated scf accuracy    <       0.00000278 Ry

     iteration #  2     ecut=    70.00 Ry     beta=0.70
     Davidson diagonalization with overlap
     ethr =  4.34E-09,  avg # of iterations =  2.0

     total cpu time spent up to now is       21.9 secs

     total energy              =    -608.39262813 Ry
     Harris-Foulkes estimate   =    -608.39262816 Ry
     estimated scf accuracy    <       0.00000008 Ry

     iteration #  3     ecut=    70.00 Ry     beta=0.70
     Davidson diagonalization with overlap
     ethr =  1.30E-10,  avg # of iterations =  2.8

     total cpu time spent up to now is       23.2 secs

     total energy              =    -608.39262814 Ry
     Harris-Foulkes estimate   =    -608.39262815 Ry
     estimated scf accuracy    <       0.00000002 Ry

     iteration #  4     ecut=    70.00 Ry     beta=0.70
     Davidson diagonalization with overlap
     ethr =  3.68E-11,  avg # of iterations =  3.0

     total cpu time spent up to now is       24.6 secs

     total energy              =    -608.39262815 Ry
     Harris-Foulkes estimate   =    -608.39262815 Ry
     estimated scf accuracy    <       0.00000001 Ry

     iteration #  5     ecut=    70.00 Ry     beta=0.70
     Davidson diagonalization with overlap
     ethr =  2.05E-11,  avg # of iterations =  2.4

     total cpu time spent up to now is       25.8 secs

     End of self-consistent calculation

          k = 0.0000 0.0000 0.0000 (  5141 PWs)   bands (ev):

   -64.8346 -64.8252 -64.8251 -64.8244 -31.6309 -31.6309 -31.6308 -31.5945
   -31.5935 -31.5934 -31.5929 -31.5928 -31.5916 -31.5663 -31.5639 -31.5636
    -9.3643  -7.9135  -7.9131  -7.9130   3.7584   3.7590   3.7590   6.3349
     6.3803   6.3804   6.3805   6.3808   6.4265   7.6443   7.6726   7.7014

          k = 0.0000 0.0000 0.2500 (  5153 PWs)   bands (ev):

   -64.8332 -64.8264 -64.8251 -64.8245 -31.6251 -31.6250 -31.6204 -31.5979
   -31.5978 -31.5941 -31.5940 -31.5905 -31.5869 -31.5782 -31.5729 -31.5693
    -9.1559  -8.1283  -7.8846  -7.8846   4.0482   4.0490   4.0966   5.8583
     5.8584   6.1710   6.1713   6.4998   6.5877   6.6591   7.4191   7.4833

          k = 0.0000 0.0000-0.5000 (  5122 PWs)   bands (ev):

   -64.8300 -64.8295 -64.8251 -64.8245 -31.6135 -31.6132 -31.6071 -31.6068
   -31.6019 -31.6018 -31.5911 -31.5910 -31.5824 -31.5822 -31.5786 -31.5783
    -8.6457  -8.6456  -7.8558  -7.8558   4.8425   4.8426   4.8531   4.8532
     5.1232   5.1235   5.9739   5.9742   6.9305   6.9305   7.0078   7.0078

          k = 0.0000 0.2500 0.0000 (  5164 PWs)   bands (ev):

   -64.8332 -64.8264 -64.8251 -64.8245 -31.6250 -31.6245 -31.6213 -31.5993
   -31.5984 -31.5935 -31.5931 -31.5891 -31.5888 -31.5793 -31.5716 -31.5709
    -9.1558  -8.1280  -7.8850  -7.8846   4.0487   4.0489   4.0956   5.8530
     5.8585   6.1710   6.1768   6.5433   6.5433   6.6589   7.4505   7.4513

          k = 0.0000 0.2500 0.2500 (  5156 PWs)   bands (ev):

   -64.8320 -64.8263 -64.8260 -64.8249 -31.6211 -31.6210 -31.6199 -31.6072
   -31.5945 -31.5940 -31.5931 -31.5875 -31.5865 -31.5862 -31.5756 -31.5687
    -8.9657  -8.0636  -8.0633  -7.8896   4.1615   4.1621   4.3291   5.0716
     5.8472   6.0538   6.0558   6.4854   6.4881   6.5841   7.1733   7.5065

          k = 0.0000 0.2500-0.5000 (  5148 PWs)   bands (ev):

   -64.8293 -64.8288 -64.8258 -64.8252 -31.6179 -31.6177 -31.6102 -31.6102
   -31.6064 -31.6062 -31.5852 -31.5850 -31.5837 -31.5837 -31.5752 -31.5750
    -8.5093  -8.5092  -7.9463  -7.9463   4.4189   4.4190   4.7512   4.7514
     5.0967   5.0967   6.5482   6.5484   6.5756   6.5756   7.0959   7.0959

          k = 0.0000-0.5000 0.0000 (  5124 PWs)   bands (ev):

   -64.8300 -64.8295 -64.8251 -64.8246 -31.6109 -31.6104 -31.6099 -31.6097
   -31.6021 -31.6018 -31.5917 -31.5915 -31.5805 -31.5803 -31.5800 -31.5798
    -8.6455  -8.6454  -7.8562  -7.8558   4.8466   4.8481   4.8482   4.8483
     5.1232   5.1237   5.9736   5.9753   6.9686   6.9689   6.9690   6.9692

          k = 0.0000-0.5000 0.2500 (  5156 PWs)   bands (ev):

   -64.8293 -64.8288 -64.8258 -64.8253 -31.6177 -31.6174 -31.6105 -31.6103
   -31.6070 -31.6068 -31.5851 -31.5849 -31.5841 -31.5839 -31.5753 -31.5751
    -8.5092  -8.5091  -7.9466  -7.9463   4.4183   4.4187   4.7515   4.7519
     5.0967   5.0971   6.5481   6.5489   6.5763   6.5763   7.0943   7.0948

          k = 0.0000-0.5000-0.5000 (  5184 PWs)   bands (ev):

   -64.8276 -64.8276 -64.8275 -64.8265 -31.6194 -31.6192 -31.6191 -31.6190
   -31.5970 -31.5968 -31.5968 -31.5965 -31.5760 -31.5758 -31.5757 -31.5757
    -8.2050  -8.2049  -8.2048  -8.2047   4.2935   4.2936   4.2937   4.2938
     5.7679   5.7680   5.7684   5.7684   7.0637   7.0639   7.0642   7.0644

          k = 0.2500 0.0020 0.0000 (  5164 PWs)   bands (ev):

   -64.8332 -64.8264 -64.8251 -64.8245 -31.6250 -31.6245 -31.6213 -31.5993
   -31.5984 -31.5934 -31.5932 -31.5891 -31.5888 -31.5793 -31.5716 -31.5709
    -9.1559  -8.1280  -7.8849  -7.8847   4.0487   4.0489   4.0956   5.8539
     5.8586   6.1709   6.1755   6.5432   6.5435   6.6586   7.4505   7.4515

          k = 0.2500 0.0020 0.2500 (  5156 PWs)   bands (ev):

   -64.8320 -64.8264 -64.8260 -64.8249 -31.6212 -31.6209 -31.6200 -31.6071
   -31.5947 -31.5937 -31.5932 -31.5875 -31.5865 -31.5861 -31.5756 -31.5687
    -8.9657  -8.0676  -8.0592  -7.8896   4.1546   4.1690   4.3291   5.0716
     5.8472   6.0444   6.0655   6.4815   6.4916   6.5840   7.1735   7.5064

          k = 0.2500 0.0020-0.5000 (  5148 PWs)   bands (ev):

   -64.8293 -64.8288 -64.8258 -64.8252 -31.6179 -31.6177 -31.6102 -31.6102
   -31.6065 -31.6062 -31.5853 -31.5850 -31.5837 -31.5837 -31.5752 -31.5750
    -8.5093  -8.5092  -7.9463  -7.9462   4.4185   4.4186   4.7515   4.7517
     5.0966   5.0967   6.5482   6.5485   6.5757   6.5758   7.0957   7.0958

          k = 0.2500 0.2520 0.0000 (  5159 PWs)   bands (ev):

   -64.8319 -64.8264 -64.8260 -64.8249 -31.6196 -31.6191 -31.6189 -31.6101
   -31.5946 -31.5944 -31.5943 -31.5880 -31.5878 -31.5860 -31.5759 -31.5672
    -8.9616  -8.0683  -8.0682  -7.8851   4.1637   4.1639   4.3332   5.0959
     5.8613   6.0494   6.0498   6.4937   6.4939   6.5434   7.1809   7.4778

          k = 0.2500 0.2520 0.2500 (  5154 PWs)   bands (ev):

   -64.8309 -64.8264 -64.8263 -64.8256 -31.6260 -31.6232 -31.6231 -31.6071
   -31.5960 -31.5957 -31.5951 -31.5836 -31.5836 -31.5822 -31.5720 -31.5698
    -8.7918  -8.0360  -8.0350  -8.0249   3.9958   3.9971   4.0168   5.1067
     5.8436   5.8511   5.8656   6.6668   6.7099   6.7101   7.3256   7.3595

          k = 0.2500 0.2520-0.5000 (  5148 PWs)   bands (ev):

   -64.8287 -64.8283 -64.8264 -64.8258 -31.6264 -31.6263 -31.6225 -31.6224
   -31.5961 -31.5958 -31.5800 -31.5799 -31.5789 -31.5788 -31.5762 -31.5759
    -8.3946  -8.3945  -8.0014  -8.0013   3.8136   3.8137   4.2167   4.2168
     5.8413   5.8413   6.7444   6.7446   6.8738   6.8739   6.9814   6.9815

          k = 0.2500-0.4981 0.0000 (  5153 PWs)   bands (ev):

   -64.8293 -64.8288 -64.8258 -64.8252 -31.6203 -31.6149 -31.6129 -31.6075
   -31.6071 -31.6067 -31.5857 -31.5851 -31.5848 -31.5818 -31.5771 -31.5736
    -8.5154  -8.5028  -7.9534  -7.9395   4.4099   4.4272   4.7479   4.7552
     5.0895   5.1037   6.5214   6.5663   6.5763   6.5862   7.0742   7.1155

          k = 0.2500-0.4981 0.2500 (  5138 PWs)   bands (ev):

   -64.8288 -64.8283 -64.8263 -64.8257 -31.6300 -31.6266 -31.6233 -31.6189
   -31.5934 -31.5929 -31.5819 -31.5797 -31.5796 -31.5784 -31.5771 -31.5755
    -8.4049  -8.3923  -8.0034  -7.9900   3.8080   3.8355   4.1880   4.2086
     5.8241   5.8368   6.7213   6.7610   6.8548   6.8821   7.0114   7.0237

          k = 0.2500-0.4981-0.5000 (  5144 PWs)   bands (ev):

   -64.8276 -64.8275 -64.8275 -64.8265 -31.6337 -31.6336 -31.6300 -31.6299
   -31.5843 -31.5841 -31.5823 -31.5822 -31.5754 -31.5752 -31.5748 -31.5748
    -8.1738  -8.1737  -8.1610  -8.1609   3.6261   3.6262   3.6552   3.6553
     6.5038   6.5039   6.5457   6.5457   7.0588   7.0590   7.0713   7.0714

          k = 0.2500-0.2480 0.0000 (  5155 PWs)   bands (ev):

   -64.8320 -64.8263 -64.8259 -64.8250 -31.6233 -31.6231 -31.6198 -31.6053
   -31.5942 -31.5941 -31.5903 -31.5884 -31.5851 -31.5849 -31.5756 -31.5709
    -8.9697  -8.0584  -8.0583  -7.8946   4.1598   4.1600   4.3247   5.0472
     5.8339   6.0623   6.0627   6.4767   6.4770   6.6258   7.1659   7.5342

          k = 0.2500-0.2480 0.2500 (  5146 PWs)   bands (ev):

   -64.8310 -64.8264 -64.8263 -64.8255 -31.6273 -31.6271 -31.6243 -31.6046
   -31.5922 -31.5917 -31.5914 -31.5858 -31.5839 -31.5838 -31.5734 -31.5705
    -8.7999  -8.0357  -8.0253  -8.0244   3.9847   4.0045   4.0057   5.0725
     5.8269   5.8414   5.8488   6.7018   6.7020   6.7457   7.3519   7.3863

          k = 0.2500-0.2480-0.5000 (  5124 PWs)   bands (ev):

   -64.8288 -64.8284 -64.8263 -64.8256 -31.6300 -31.6299 -31.6200 -31.6200
   -31.5902 -31.5899 -31.5815 -31.5815 -31.5795 -31.5792 -31.5764 -31.5763
    -8.4030  -8.4029  -7.9918  -7.9917   3.8297   3.8297   4.1800   4.1802
     5.8202   5.8202   6.7367   6.7370   6.8647   6.8648   7.0520   7.0521

          k =-0.5000-0.0039 0.0000 (  5124 PWs)   bands (ev):

   -64.8300 -64.8295 -64.8251 -64.8246 -31.6107 -31.6106 -31.6099 -31.6097
   -31.6019 -31.6019 -31.5916 -31.5916 -31.5805 -31.5803 -31.5800 -31.5798
    -8.6456  -8.6453  -7.8560  -7.8560   4.8475   4.8479   4.8480   4.8484
     5.1232   5.1235   5.9738   5.9740   6.9687   6.9690   6.9690   6.9692

          k =-0.5000-0.0039 0.2500 (  5156 PWs)   bands (ev):

   -64.8293 -64.8289 -64.8258 -64.8253 -31.6176 -31.6175 -31.6104 -31.6103
   -31.6070 -31.6068 -31.5851 -31.5850 -31.5840 -31.5840 -31.5753 -31.5752
    -8.5093  -8.5090  -7.9464  -7.9464   4.4182   4.4184   4.7516   4.7519
     5.0967   5.0972   6.5481   6.5483   6.5764   6.5767   7.0945   7.0946

          k =-0.5000-0.0039-0.5000 (  5184 PWs)   bands (ev):

   -64.8277 -64.8275 -64.8275 -64.8265 -31.6194 -31.6193 -31.6190 -31.6190
   -31.5975 -31.5972 -31.5963 -31.5960 -31.5761 -31.5761 -31.5755 -31.5754
    -8.2107  -8.2105  -8.1992  -8.1991   4.2830   4.2831   4.3040   4.3042
     5.7544   5.7548   5.7819   5.7822   7.0580   7.0581   7.0697   7.0700

          k =-0.5000 0.2461 0.0000 (  5153 PWs)   bands (ev):

   -64.8293 -64.8288 -64.8258 -64.8252 -31.6203 -31.6149 -31.6129 -31.6075
   -31.6070 -31.6067 -31.5857 -31.5851 -31.5849 -31.5818 -31.5770 -31.5736
    -8.5154  -8.5028  -7.9533  -7.9395   4.4099   4.4273   4.7479   4.7552
     5.0895   5.1037   6.5211   6.5663   6.5761   6.5861   7.0743   7.1156

          k =-0.5000 0.2461 0.2500 (  5138 PWs)   bands (ev):

   -64.8288 -64.8284 -64.8263 -64.8257 -31.6300 -31.6266 -31.6233 -31.6189
   -31.5934 -31.5929 -31.5819 -31.5797 -31.5795 -31.5784 -31.5770 -31.5755
    -8.4049  -8.3924  -8.0034  -7.9900   3.8079   3.8354   4.1881   4.2087
     5.8242   5.8368   6.7210   6.7608   6.8550   6.8823   7.0114   7.0237

          k =-0.5000 0.2461-0.5000 (  5144 PWs)   bands (ev):

   -64.8277 -64.8275 -64.8274 -64.8265 -31.6337 -31.6336 -31.6300 -31.6299
   -31.5844 -31.5841 -31.5823 -31.5821 -31.5755 -31.5753 -31.5748 -31.5747
    -8.1750  -8.1749  -8.1598  -8.1597   3.6241   3.6242   3.6571   3.6572
     6.5017   6.5018   6.5480   6.5481   7.0574   7.0576   7.0724   7.0726

          k =-0.5000-0.5039 0.0000 (  5188 PWs)   bands (ev):

   -64.8277 -64.8275 -64.8274 -64.8265 -31.6222 -31.6220 -31.6166 -31.6163
   -31.5971 -31.5970 -31.5969 -31.5966 -31.5772 -31.5769 -31.5746 -31.5743
    -8.2143  -8.2142  -8.1955  -8.1954   4.2879   4.2881   4.2988   4.2990
     5.7561   5.7566   5.7792   5.7797   7.0325   7.0326   7.0962   7.0963

          k =-0.5000-0.5039 0.2500 (  5140 PWs)   bands (ev):

   -64.8277 -64.8275 -64.8274 -64.8265 -31.6338 -31.6336 -31.6300 -31.6299
   -31.5837 -31.5837 -31.5821 -31.5821 -31.5773 -31.5771 -31.5733 -31.5730
    -8.1767  -8.1766  -8.1581  -8.1580   3.6286   3.6288   3.6524   3.6525
     6.5212   6.5216   6.5279   6.5283   7.0337   7.0338   7.0969   7.0969

          k =-0.5000-0.5039-0.5000 (  5136 PWs)   bands (ev):

   -64.8277 -64.8275 -64.8274 -64.8265 -31.6402 -31.6400 -31.6392 -31.6391
   -31.5766 -31.5763 -31.5756 -31.5755 -31.5745 -31.5745 -31.5738 -31.5735
    -8.1385  -8.1384  -8.1201  -8.1200   3.2031   3.2032   3.2325   3.2326
     7.0344   7.0344   7.0645   7.0647   7.0664   7.0667   7.0979   7.0979

          k = 0.0000-0.2500 0.2500 (  5156 PWs)   bands (ev):

   -64.8320 -64.8263 -64.8260 -64.8249 -31.6211 -31.6210 -31.6199 -31.6072
   -31.5945 -31.5940 -31.5931 -31.5875 -31.5865 -31.5862 -31.5756 -31.5687
    -8.9657  -8.0636  -8.0633  -7.8896   4.1615   4.1621   4.3291   5.0716
     5.8472   6.0538   6.0558   6.4854   6.4881   6.5841   7.1733   7.5065

          k =-0.2500-0.0020 0.2500 (  5156 PWs)   bands (ev):

   -64.8320 -64.8264 -64.8260 -64.8249 -31.6212 -31.6209 -31.6200 -31.6071
   -31.5947 -31.5937 -31.5932 -31.5875 -31.5865 -31.5861 -31.5756 -31.5687
    -8.9657  -8.0676  -8.0592  -7.8896   4.1546   4.1690   4.3291   5.0716
     5.8472   6.0444   6.0655   6.4815   6.4916   6.5840   7.1735   7.5064

          k =-0.2500-0.2520 0.2500 (  5154 PWs)   bands (ev):

   -64.8309 -64.8264 -64.8263 -64.8256 -31.6260 -31.6232 -31.6231 -31.6071
   -31.5960 -31.5957 -31.5951 -31.5836 -31.5836 -31.5822 -31.5720 -31.5698
    -8.7918  -8.0360  -8.0350  -8.0249   3.9958   3.9971   4.0168   5.1067
     5.8436   5.8511   5.8656   6.6668   6.7099   6.7101   7.3256   7.3595

          k =-0.2500 0.4981 0.2500 (  5138 PWs)   bands (ev):

   -64.8288 -64.8283 -64.8263 -64.8257 -31.6300 -31.6266 -31.6233 -31.6189
   -31.5934 -31.5929 -31.5819 -31.5797 -31.5796 -31.5784 -31.5771 -31.5755
    -8.4049  -8.3923  -8.0034  -7.9900   3.8080   3.8355   4.1880   4.2086
     5.8241   5.8368   6.7213   6.7610   6.8548   6.8821   7.0114   7.0237

          k =-0.2500 0.2480 0.2500 (  5146 PWs)   bands (ev):

   -64.8310 -64.8264 -64.8263 -64.8255 -31.6273 -31.6271 -31.6243 -31.6046
   -31.5922 -31.5917 -31.5914 -31.5858 -31.5839 -31.5838 -31.5734 -31.5705
    -8.7999  -8.0357  -8.0253  -8.0244   3.9847   4.0045   4.0057   5.0725
     5.8269   5.8414   5.8488   6.7018   6.7020   6.7457   7.3519   7.3863

          k = 0.5000-0.2461 0.2500 (  5138 PWs)   bands (ev):

   -64.8288 -64.8284 -64.8263 -64.8257 -31.6300 -31.6266 -31.6233 -31.6189
   -31.5934 -31.5929 -31.5819 -31.5797 -31.5795 -31.5784 -31.5770 -31.5755
    -8.4049  -8.3924  -8.0034  -7.9900   3.8079   3.8354   4.1881   4.2087
     5.8242   5.8368   6.7210   6.7608   6.8550   6.8823   7.0114   7.0237

     highest occupied level (ev):     7.7014

!    total energy              =    -608.39262815 Ry
     Harris-Foulkes estimate   =    -608.39262815 Ry
     estimated scf accuracy    <          7.4E-11 Ry

     The total energy is the sum of the following terms:

     one-electron contribution =    -303.55187137 Ry
     hartree contribution      =     168.06558281 Ry
     xc contribution           =     -97.84636936 Ry
     ewald contribution        =    -375.05997022 Ry

     convergence has been achieved in   5 iterations

     Forces acting on atoms (cartesian axes, Ry/au):

     atom    1 type  1   force =     0.00135426    0.00002073   -0.00000439
     atom    2 type  1   force =    -0.00147269   -0.00002387    0.00000450
     atom    3 type  1   force =     0.00144816    0.00002211    0.00000452
     atom    4 type  1   force =    -0.00132244   -0.00002000   -0.00000463
     atom    5 type  2   force =     0.00157218    0.00000985   -0.00000370
     atom    6 type  2   force =    -0.00159010   -0.00000942   -0.00000368
     atom    7 type  2   force =     0.00154174    0.00000947    0.00000368
     atom    8 type  2   force =    -0.00153110   -0.00000886    0.00000370

     Total force =     0.004192     Total SCF correction =     0.000023


     Computing stress (Cartesian axis) and pressure

          total   stress  (Ry/bohr**3)                   (kbar)     P=  -68.07
  -0.00046356   0.00007551  -0.00000000        -68.19     11.11     -0.00
   0.00007551  -0.00046203  -0.00000000         11.11    -67.97     -0.00
  -0.00000000  -0.00000000  -0.00046263         -0.00     -0.00    -68.06


     number of scf cycles    =   3
     number of bfgs steps    =   2

     energy   old            =    -608.3925967965 Ry
     energy   new            =    -608.3926281486 Ry

     CASE: energy  _new < energy  _old

     new trust radius        =       0.0040086565 bohr
     new conv_thr            =       0.0000000003 Ry


ATOMIC_POSITIONS (alat)
Mg       0.000913919   0.000024598  -0.000003159
Mg      -0.000983897   0.499973502   0.500003191
Mg       0.500941906   0.000024972   0.500003125
Mg       0.499144119   0.499976726  -0.000003246
O        0.501097585   0.000013018  -0.000003585
O       -0.001132398   0.499986749  -0.000003578
O        0.001088358   0.000013111   0.500003622
O        0.498930408   0.499987325   0.500003630



     Writing output data file diamond..70.4.save
     NEW-OLD atomic charge density approx. for the potential

     Check: negative/imaginary core charge=   -0.000007    0.000000

     total cpu time spent up to now is       26.4 secs

     per-process dynamical memory:    52.8 Mb

     Self-consistent Calculation

     iteration #  1     ecut=    70.00 Ry     beta=0.70
     Davidson diagonalization with overlap
     ethr =  1.00E-06,  avg # of iterations =  3.0

     Threshold (ethr) on eigenvalues was too large:
     Diagonalizing with lowered threshold

     Davidson diagonalization with overlap
     ethr =  9.63E-09,  avg # of iterations =  2.2

     total cpu time spent up to now is       29.2 secs

     total energy              =    -608.39266330 Ry
     Harris-Foulkes estimate   =    -608.39266681 Ry
     estimated scf accuracy    <       0.00000629 Ry

     iteration #  2     ecut=    70.00 Ry     beta=0.70
     Davidson diagonalization with overlap
     ethr =  9.83E-09,  avg # of iterations =  2.0

     total cpu time spent up to now is       30.4 secs

     total energy              =    -608.39266436 Ry
     Harris-Foulkes estimate   =    -608.39266440 Ry
     estimated scf accuracy    <       0.00000016 Ry

     iteration #  3     ecut=    70.00 Ry     beta=0.70
     Davidson diagonalization with overlap
     ethr =  2.43E-10,  avg # of iterations =  2.0

     total cpu time spent up to now is       31.5 secs

     total energy              =    -608.39266438 Ry
     Harris-Foulkes estimate   =    -608.39266438 Ry
     estimated scf accuracy    <       0.00000001 Ry

     iteration #  4     ecut=    70.00 Ry     beta=0.70
     Davidson diagonalization with overlap
     ethr =  1.56E-11,  avg # of iterations =  2.0

     total cpu time spent up to now is       32.7 secs

     total energy              =    -608.39266438 Ry
     Harris-Foulkes estimate   =    -608.39266438 Ry
     estimated scf accuracy    <          9.8E-10 Ry

     iteration #  5     ecut=    70.00 Ry     beta=0.70
     Davidson diagonalization with overlap
     ethr =  1.53E-12,  avg # of iterations =  3.0

     total cpu time spent up to now is       34.0 secs

     End of self-consistent calculation

          k = 0.0000 0.0000 0.0000 (  5141 PWs)   bands (ev):

   -64.8346 -64.8251 -64.8251 -64.8243 -31.6309 -31.6308 -31.6308 -31.5945
   -31.5935 -31.5934 -31.5928 -31.5928 -31.5916 -31.5662 -31.5639 -31.5635
    -9.3644  -7.9135  -7.9131  -7.9131   3.7584   3.7590   3.7590   6.3349
     6.3803   6.3803   6.3804   6.3808   6.4265   7.6443   7.6726   7.7014

          k = 0.0000 0.0000 0.2500 (  5153 PWs)   bands (ev):

   -64.8332 -64.8263 -64.8251 -64.8245 -31.6250 -31.6249 -31.6204 -31.5978
   -31.5978 -31.5941 -31.5940 -31.5904 -31.5869 -31.5781 -31.5729 -31.5693
    -9.1559  -8.1283  -7.8847  -7.8847   4.0487   4.0490   4.0960   5.8583
     5.8584   6.1710   6.1713   6.4997   6.5876   6.6591   7.4190   7.4832

          k = 0.0000 0.0000-0.5000 (  5122 PWs)   bands (ev):

   -64.8300 -64.8295 -64.8251 -64.8245 -31.6134 -31.6132 -31.6071 -31.6068
   -31.6018 -31.6018 -31.5910 -31.5910 -31.5824 -31.5821 -31.5786 -31.5783
    -8.6457  -8.6456  -7.8559  -7.8559   4.8426   4.8426   4.8532   4.8532
     5.1230   5.1232   5.9739   5.9742   6.9304   6.9304   7.0077   7.0077

          k = 0.0000 0.2500 0.0000 (  5164 PWs)   bands (ev):

   -64.8332 -64.8263 -64.8251 -64.8245 -31.6249 -31.6244 -31.6213 -31.5992
   -31.5983 -31.5934 -31.5931 -31.5891 -31.5888 -31.5792 -31.5715 -31.5709
    -9.1559  -8.1281  -7.8850  -7.8847   4.0486   4.0489   4.0956   5.8535
     5.8585   6.1709   6.1761   6.5432   6.5433   6.6587   7.4505   7.4513

          k = 0.0000 0.2500 0.2500 (  5156 PWs)   bands (ev):

   -64.8319 -64.8263 -64.8259 -64.8249 -31.6211 -31.6209 -31.6199 -31.6071
   -31.5944 -31.5939 -31.5931 -31.5875 -31.5864 -31.5861 -31.5756 -31.5686
    -8.9657  -8.0636  -8.0633  -7.8897   4.1615   4.1621   4.3291   5.0717
     5.8471   6.0538   6.0558   6.4854   6.4879   6.5840   7.1733   7.5064

          k = 0.0000 0.2500-0.5000 (  5148 PWs)   bands (ev):

   -64.8292 -64.8288 -64.8258 -64.8252 -31.6178 -31.6176 -31.6101 -31.6101
   -31.6064 -31.6062 -31.5852 -31.5849 -31.5837 -31.5836 -31.5752 -31.5750
    -8.5093  -8.5092  -7.9464  -7.9464   4.4188   4.4189   4.7512   4.7514
     5.0966   5.0967   6.5482   6.5485   6.5755   6.5755   7.0957   7.0958

          k = 0.0000-0.5000 0.0000 (  5124 PWs)   bands (ev):

   -64.8299 -64.8295 -64.8251 -64.8245 -31.6108 -31.6103 -31.6099 -31.6096
   -31.6020 -31.6018 -31.5916 -31.5914 -31.5805 -31.5802 -31.5800 -31.5797
    -8.6456  -8.6454  -7.8562  -7.8559   4.8469   4.8480   4.8483   4.8483
     5.1231   5.1236   5.9736   5.9747   6.9686   6.9688   6.9690   6.9691

          k = 0.0000-0.5000 0.2500 (  5156 PWs)   bands (ev):

   -64.8292 -64.8288 -64.8258 -64.8252 -31.6176 -31.6174 -31.6104 -31.6102
   -31.6070 -31.6067 -31.5851 -31.5849 -31.5840 -31.5839 -31.5753 -31.5751
    -8.5092  -8.5091  -7.9466  -7.9464   4.4183   4.4186   4.7514   4.7518
     5.0966   5.0972   6.5481   6.5486   6.5762   6.5764   7.0943   7.0947

          k = 0.0000-0.5000-0.5000 (  5184 PWs)   bands (ev):

   -64.8275 -64.8275 -64.8275 -64.8265 -31.6193 -31.6191 -31.6190 -31.6190
   -31.5969 -31.5967 -31.5967 -31.5964 -31.5759 -31.5757 -31.5756 -31.5756
    -8.2051  -8.2049  -8.2049  -8.2048   4.2934   4.2935   4.2936   4.2937
     5.7679   5.7679   5.7684   5.7685   7.0637   7.0639   7.0640   7.0642

          k = 0.2500 0.0020 0.0000 (  5164 PWs)   bands (ev):

   -64.8332 -64.8263 -64.8251 -64.8245 -31.6249 -31.6244 -31.6213 -31.5992
   -31.5983 -31.5933 -31.5931 -31.5891 -31.5888 -31.5792 -31.5715 -31.5709
    -9.1559  -8.1281  -7.8850  -7.8847   4.0486   4.0489   4.0956   5.8539
     5.8585   6.1709   6.1756   6.5432   6.5434   6.6586   7.4505   7.4514

          k = 0.2500 0.0020 0.2500 (  5156 PWs)   bands (ev):

   -64.8319 -64.8263 -64.8259 -64.8249 -31.6211 -31.6209 -31.6199 -31.6071
   -31.5945 -31.5938 -31.5931 -31.5875 -31.5865 -31.5861 -31.5756 -31.5686
    -8.9657  -8.0661  -8.0608  -7.8897   4.1573   4.1662   4.3291   5.0717
     5.8471   6.0482   6.0615   6.4832   6.4900   6.5839   7.1734   7.5064

          k = 0.2500 0.0020-0.5000 (  5148 PWs)   bands (ev):

   -64.8292 -64.8288 -64.8258 -64.8252 -31.6178 -31.6176 -31.6101 -31.6101
   -31.6064 -31.6061 -31.5852 -31.5849 -31.5836 -31.5836 -31.5751 -31.5750
    -8.5093  -8.5093  -7.9464  -7.9463   4.4187   4.4188   4.7513   4.7515
     5.0966   5.0967   6.5482   6.5485   6.5756   6.5756   7.0957   7.0958

          k = 0.2500 0.2520 0.0000 (  5159 PWs)   bands (ev):

   -64.8319 -64.8264 -64.8260 -64.8248 -31.6196 -31.6190 -31.6189 -31.6100
   -31.5946 -31.5943 -31.5943 -31.5879 -31.5878 -31.5860 -31.5759 -31.5671
    -8.9617  -8.0684  -8.0682  -7.8852   4.1637   4.1639   4.3332   5.0960
     5.8612   6.0493   6.0497   6.4936   6.4937   6.5433   7.1809   7.4777

          k = 0.2500 0.2520 0.2500 (  5154 PWs)   bands (ev):

   -64.8309 -64.8264 -64.8263 -64.8255 -31.6260 -31.6232 -31.6230 -31.6070
   -31.5959 -31.5956 -31.5952 -31.5835 -31.5835 -31.5822 -31.5720 -31.5698
    -8.7918  -8.0355  -8.0351  -8.0255   3.9965   3.9970   4.0160   5.1066
     5.8471   5.8511   5.8621   6.6667   6.7099   6.7100   7.3255   7.3595

          k = 0.2500 0.2520-0.5000 (  5148 PWs)   bands (ev):

   -64.8287 -64.8282 -64.8264 -64.8257 -31.6264 -31.6262 -31.6224 -31.6223
   -31.5960 -31.5958 -31.5799 -31.5799 -31.5788 -31.5787 -31.5761 -31.5758
    -8.3946  -8.3945  -8.0015  -8.0014   3.8137   3.8137   4.2166   4.2167
     5.8413   5.8413   6.7444   6.7446   6.8737   6.8738   6.9813   6.9814

          k = 0.2500-0.4981 0.0000 (  5153 PWs)   bands (ev):

   -64.8292 -64.8288 -64.8258 -64.8252 -31.6202 -31.6149 -31.6129 -31.6075
   -31.6070 -31.6067 -31.5856 -31.5851 -31.5848 -31.5817 -31.5770 -31.5735
    -8.5155  -8.5029  -7.9534  -7.9396   4.4099   4.4272   4.7479   4.7552
     5.0895   5.1037   6.5212   6.5663   6.5761   6.5861   7.0741   7.1154

          k = 0.2500-0.4981 0.2500 (  5138 PWs)   bands (ev):

   -64.8287 -64.8283 -64.8263 -64.8257 -31.6299 -31.6265 -31.6232 -31.6188
   -31.5933 -31.5928 -31.5818 -31.5797 -31.5795 -31.5783 -31.5770 -31.5754
    -8.4049  -8.3924  -8.0035  -7.9901   3.8080   3.8355   4.1880   4.2086
     5.8241   5.8368   6.7211   6.7609   6.8548   6.8821   7.0113   7.0236

          k = 0.2500-0.4981-0.5000 (  5144 PWs)   bands (ev):

   -64.8276 -64.8275 -64.8274 -64.8265 -31.6337 -31.6335 -31.6300 -31.6299
   -31.5842 -31.5840 -31.5823 -31.5821 -31.5754 -31.5752 -31.5748 -31.5747
    -8.1738  -8.1738  -8.1611  -8.1610   3.6260   3.6261   3.6551   3.6552
     6.5038   6.5039   6.5457   6.5457   7.0587   7.0588   7.0711   7.0713

          k = 0.2500-0.2480 0.0000 (  5155 PWs)   bands (ev):

   -64.8320 -64.8262 -64.8259 -64.8249 -31.6232 -31.6230 -31.6197 -31.6052
   -31.5942 -31.5941 -31.5902 -31.5883 -31.5851 -31.5849 -31.5756 -31.5708
    -8.9697  -8.0585  -8.0584  -7.8947   4.1597   4.1599   4.3247   5.0472
     5.8338   6.0622   6.0626   6.4767   6.4768   6.6257   7.1658   7.5341

          k = 0.2500-0.2480 0.2500 (  5146 PWs)   bands (ev):

   -64.8310 -64.8263 -64.8262 -64.8255 -31.6273 -31.6271 -31.6242 -31.6046
   -31.5920 -31.5917 -31.5914 -31.5857 -31.5838 -31.5838 -31.5733 -31.5705
    -8.7999  -8.0353  -8.0254  -8.0250   3.9853   4.0045   4.0050   5.0725
     5.8303   5.8414   5.8453   6.7018   6.7019   6.7456   7.3518   7.3862

          k = 0.2500-0.2480-0.5000 (  5124 PWs)   bands (ev):

   -64.8288 -64.8284 -64.8262 -64.8256 -31.6300 -31.6298 -31.6200 -31.6199
   -31.5901 -31.5898 -31.5814 -31.5814 -31.5794 -31.5792 -31.5763 -31.5762
    -8.4030  -8.4029  -7.9919  -7.9918   3.8297   3.8298   4.1799   4.1801
     5.8202   5.8202   6.7367   6.7369   6.8646   6.8647   7.0519   7.0520

          k =-0.5000-0.0039 0.0000 (  5124 PWs)   bands (ev):

   -64.8299 -64.8295 -64.8251 -64.8245 -31.6106 -31.6105 -31.6098 -31.6097
   -31.6019 -31.6019 -31.5916 -31.5915 -31.5804 -31.5803 -31.5799 -31.5798
    -8.6458  -8.6453  -7.8561  -7.8560   4.8473   4.8477   4.8481   4.8485
     5.1231   5.1235   5.9738   5.9741   6.9686   6.9687   6.9690   6.9692

          k =-0.5000-0.0039 0.2500 (  5156 PWs)   bands (ev):

   -64.8292 -64.8288 -64.8258 -64.8252 -31.6176 -31.6175 -31.6103 -31.6103
   -31.6069 -31.6068 -31.5850 -31.5849 -31.5840 -31.5839 -31.5752 -31.5751
    -8.5094  -8.5090  -7.9466  -7.9464   4.4182   4.4186   4.7514   4.7518
     5.0965   5.0973   6.5480   6.5484   6.5761   6.5767   7.0944   7.0946

          k =-0.5000-0.0039-0.5000 (  5184 PWs)   bands (ev):

   -64.8276 -64.8275 -64.8274 -64.8265 -31.6193 -31.6192 -31.6190 -31.6190
   -31.5972 -31.5970 -31.5964 -31.5961 -31.5760 -31.5759 -31.5755 -31.5755
    -8.2087  -8.2084  -8.2014  -8.2012   4.2869   4.2870   4.3000   4.3002
     5.7593   5.7600   5.7766   5.7772   7.0601   7.0602   7.0675   7.0678

          k =-0.5000 0.2461 0.0000 (  5153 PWs)   bands (ev):

   -64.8292 -64.8288 -64.8258 -64.8252 -31.6202 -31.6149 -31.6128 -31.6075
   -31.6070 -31.6067 -31.5856 -31.5850 -31.5848 -31.5818 -31.5770 -31.5735
    -8.5155  -8.5029  -7.9534  -7.9396   4.4099   4.4273   4.7479   4.7551
     5.0895   5.1037   6.5211   6.5663   6.5760   6.5861   7.0741   7.1155

          k =-0.5000 0.2461 0.2500 (  5138 PWs)   bands (ev):

   -64.8287 -64.8283 -64.8263 -64.8257 -31.6299 -31.6265 -31.6232 -31.6188
   -31.5933 -31.5928 -31.5818 -31.5797 -31.5795 -31.5783 -31.5770 -31.5755
    -8.4050  -8.3924  -8.0034  -7.9900   3.8080   3.8354   4.1880   4.2086
     5.8242   5.8368   6.7210   6.7608   6.8548   6.8822   7.0113   7.0236

          k =-0.5000 0.2461-0.5000 (  5144 PWs)   bands (ev):

   -64.8276 -64.8275 -64.8274 -64.8265 -31.6337 -31.6335 -31.6300 -31.6299
   -31.5843 -31.5840 -31.5823 -31.5821 -31.5754 -31.5752 -31.5748 -31.5747
    -8.1744  -8.1742  -8.1605  -8.1605   3.6252   3.6253   3.6559   3.6561
     6.5029   6.5030   6.5466   6.5467   7.0581   7.0583   7.0716   7.0718

          k =-0.5000-0.5039 0.0000 (  5188 PWs)   bands (ev):

   -64.8276 -64.8275 -64.8274 -64.8265 -31.6222 -31.6219 -31.6165 -31.6163
   -31.5970 -31.5969 -31.5968 -31.5966 -31.5772 -31.5769 -31.5746 -31.5743
    -8.2144  -8.2142  -8.1956  -8.1954   4.2878   4.2881   4.2987   4.2990
     5.7560   5.7565   5.7792   5.7797   7.0324   7.0325   7.0961   7.0962

          k =-0.5000-0.5039 0.2500 (  5140 PWs)   bands (ev):

   -64.8276 -64.8275 -64.8274 -64.8265 -31.6337 -31.6335 -31.6300 -31.6298
   -31.5837 -31.5837 -31.5821 -31.5820 -31.5773 -31.5770 -31.5733 -31.5730
    -8.1767  -8.1766  -8.1582  -8.1581   3.6286   3.6288   3.6523   3.6525
     6.5212   6.5215   6.5279   6.5283   7.0336   7.0337   7.0967   7.0968

          k =-0.5000-0.5039-0.5000 (  5136 PWs)   bands (ev):

   -64.8276 -64.8275 -64.8274 -64.8265 -31.6401 -31.6400 -31.6392 -31.6390
   -31.5765 -31.5762 -31.5755 -31.5754 -31.5745 -31.5744 -31.5737 -31.5735
    -8.1385  -8.1385  -8.1201  -8.1201   3.2030   3.2031   3.2324   3.2325
     7.0343   7.0343   7.0645   7.0647   7.0664   7.0666   7.0977   7.0977

          k = 0.0000-0.2500 0.2500 (  5156 PWs)   bands (ev):

   -64.8319 -64.8263 -64.8259 -64.8249 -31.6211 -31.6209 -31.6199 -31.6071
   -31.5944 -31.5939 -31.5931 -31.5875 -31.5864 -31.5861 -31.5756 -31.5686
    -8.9657  -8.0636  -8.0633  -7.8897   4.1615   4.1621   4.3291   5.0717
     5.8471   6.0538   6.0558   6.4854   6.4879   6.5840   7.1733   7.5064

          k =-0.2500-0.0020 0.2500 (  5156 PWs)   bands (ev):

   -64.8319 -64.8263 -64.8259 -64.8249 -31.6211 -31.6209 -31.6199 -31.6071
   -31.5945 -31.5938 -31.5931 -31.5875 -31.5865 -31.5861 -31.5756 -31.5686
    -8.9657  -8.0661  -8.0608  -7.8897   4.1573   4.1662   4.3291   5.0717
     5.8471   6.0482   6.0615   6.4832   6.4900   6.5839   7.1734   7.5064

          k =-0.2500-0.2520 0.2500 (  5154 PWs)   bands (ev):

   -64.8309 -64.8264 -64.8263 -64.8255 -31.6260 -31.6232 -31.6230 -31.6070
   -31.5959 -31.5956 -31.5952 -31.5835 -31.5835 -31.5822 -31.5720 -31.5698
    -8.7918  -8.0355  -8.0351  -8.0255   3.9965   3.9970   4.0160   5.1066
     5.8471   5.8511   5.8621   6.6667   6.7099   6.7100   7.3255   7.3595

          k =-0.2500 0.4981 0.2500 (  5138 PWs)   bands (ev):

   -64.8287 -64.8283 -64.8263 -64.8257 -31.6299 -31.6265 -31.6232 -31.6188
   -31.5933 -31.5928 -31.5818 -31.5797 -31.5795 -31.5783 -31.5770 -31.5754
    -8.4049  -8.3924  -8.0035  -7.9901   3.8080   3.8355   4.1880   4.2086
     5.8241   5.8368   6.7211   6.7609   6.8548   6.8821   7.0113   7.0236

          k =-0.2500 0.2480 0.2500 (  5146 PWs)   bands (ev):

   -64.8310 -64.8263 -64.8262 -64.8255 -31.6273 -31.6271 -31.6242 -31.6046
   -31.5920 -31.5917 -31.5914 -31.5857 -31.5838 -31.5838 -31.5733 -31.5705
    -8.7999  -8.0353  -8.0254  -8.0250   3.9853   4.0045   4.0050   5.0725
     5.8303   5.8414   5.8453   6.7018   6.7019   6.7456   7.3518   7.3862

          k = 0.5000-0.2461 0.2500 (  5138 PWs)   bands (ev):

   -64.8287 -64.8283 -64.8263 -64.8257 -31.6299 -31.6265 -31.6232 -31.6188
   -31.5933 -31.5928 -31.5818 -31.5797 -31.5795 -31.5783 -31.5770 -31.5755
    -8.4050  -8.3924  -8.0034  -7.9900   3.8080   3.8354   4.1880   4.2086
     5.8242   5.8368   6.7210   6.7608   6.8548   6.8822   7.0113   7.0236

     highest occupied level (ev):     7.7014

!    total energy              =    -608.39266438 Ry
     Harris-Foulkes estimate   =    -608.39266438 Ry
     estimated scf accuracy    <          1.6E-10 Ry

     The total energy is the sum of the following terms:

     one-electron contribution =    -303.55252573 Ry
     hartree contribution      =     168.06594264 Ry
     xc contribution           =     -97.84640000 Ry
     ewald contribution        =    -375.05968128 Ry

     convergence has been achieved in   5 iterations

     Forces acting on atoms (cartesian axes, Ry/au):

     atom    1 type  1   force =     0.00092934   -0.00001261   -0.00000084
     atom    2 type  1   force =    -0.00101754    0.00001096    0.00000107
     atom    3 type  1   force =     0.00106343   -0.00001153    0.00000112
     atom    4 type  1   force =    -0.00100533    0.00001122   -0.00000121
     atom    5 type  2   force =     0.00098866   -0.00000402   -0.00000054
     atom    6 type  2   force =    -0.00094894    0.00000539   -0.00000056
     atom    7 type  2   force =     0.00094565   -0.00000432    0.00000049
     atom    8 type  2   force =    -0.00095528    0.00000492    0.00000046

     Total force =     0.002780     Total SCF correction =     0.000029


     Computing stress (Cartesian axis) and pressure

          total   stress  (Ry/bohr**3)                   (kbar)     P=  -68.07
  -0.00046349   0.00007550  -0.00000000        -68.18     11.11     -0.00
   0.00007550  -0.00046216  -0.00000000         11.11    -67.99     -0.00
  -0.00000000  -0.00000000  -0.00046250         -0.00     -0.00    -68.04


     number of scf cycles    =   4
     number of bfgs steps    =   3

     energy   old            =    -608.3926281486 Ry
     energy   new            =    -608.3926643817 Ry

     CASE: energy  _new < energy  _old

     new trust radius        =       0.0060129848 bohr
     new conv_thr            =       0.0000000004 Ry


ATOMIC_POSITIONS (alat)
Mg       0.001572405   0.000029542  -0.000004710
Mg      -0.001699443   0.499967234   0.500004829
Mg       0.501657333   0.000030482   0.500004762
Mg       0.498481876   0.499971793  -0.000004952
O        0.501845018   0.000016287  -0.000005079
O       -0.001879153   0.499983871  -0.000005073
O        0.001817425   0.000016273   0.500005111
O        0.498204538   0.499984518   0.500005112



     Writing output data file diamond..70.4.save
     NEW-OLD atomic charge density approx. for the potential

     Check: negative/imaginary core charge=   -0.000007    0.000000

     total cpu time spent up to now is       34.7 secs

     per-process dynamical memory:    52.8 Mb

     Self-consistent Calculation

     iteration #  1     ecut=    70.00 Ry     beta=0.70
     Davidson diagonalization with overlap
     ethr =  1.00E-06,  avg # of iterations =  3.0

     Threshold (ethr) on eigenvalues was too large:
     Diagonalizing with lowered threshold

     Davidson diagonalization with overlap
     ethr =  2.23E-08,  avg # of iterations =  1.8

     total cpu time spent up to now is       37.6 secs

     total energy              =    -608.39268919 Ry
     Harris-Foulkes estimate   =    -608.39269703 Ry
     estimated scf accuracy    <       0.00001416 Ry

     iteration #  2     ecut=    70.00 Ry     beta=0.70
     Davidson diagonalization with overlap
     ethr =  2.21E-08,  avg # of iterations =  2.0

[...]
O        0.001968225   0.000008909   0.500004003
O        0.498047993   0.499991688   0.500003959



     Writing output data file diamond..70.4.save
     NEW-OLD atomic charge density approx. for the potential

     Check: negative/imaginary core charge=   -0.000007    0.000000

     total cpu time spent up to now is       58.8 secs

     per-process dynamical memory:    52.8 Mb

     Self-consistent Calculation

     iteration #  1     ecut=    70.00 Ry     beta=0.70
     Davidson diagonalization with overlap
     ethr =  1.00E-06,  avg # of iterations =  2.0

     Threshold (ethr) on eigenvalues was too large:
     Diagonalizing with lowered threshold

     Davidson diagonalization with overlap
     ethr =  4.38E-11,  avg # of iterations =  3.4

     total cpu time spent up to now is       61.6 secs

     total energy              =    -608.39269351 Ry
     Harris-Foulkes estimate   =    -608.39269354 Ry
     estimated scf accuracy    <       0.00000004 Ry

     iteration #  2     ecut=    70.00 Ry     beta=0.70
     Davidson diagonalization with overlap
     ethr =  6.78E-11,  avg # of iterations =  2.0

     total cpu time spent up to now is       62.8 secs

     total energy              =    -608.39269352 Ry
     Harris-Foulkes estimate   =    -608.39269352 Ry
     estimated scf accuracy    <          1.5E-09 Ry

     iteration #  3     ecut=    70.00 Ry     beta=0.70
     Davidson diagonalization with overlap
     ethr =  2.30E-12,  avg # of iterations =  3.0

     total cpu time spent up to now is       64.1 secs

     total energy              =    -608.39269352 Ry
     Harris-Foulkes estimate   =    -608.39269352 Ry
     estimated scf accuracy    <          4.3E-10 Ry

     iteration #  4     ecut=    70.00 Ry     beta=0.70
     Davidson diagonalization with overlap
     ethr =  6.79E-13,  avg # of iterations =  3.0

     total cpu time spent up to now is       65.4 secs

     total energy              =    -608.39269352 Ry
     Harris-Foulkes estimate   =    -608.39269352 Ry
     estimated scf accuracy    <          1.3E-10 Ry

     iteration #  5     ecut=    70.00 Ry     beta=0.70
     Davidson diagonalization with overlap
     ethr =  2.02E-13,  avg # of iterations =  2.8

     total cpu time spent up to now is       66.6 secs

     End of self-consistent calculation

          k = 0.0000 0.0000 0.0000 (  5141 PWs)   bands (ev):

   -64.8345 -64.8251 -64.8250 -64.8243 -31.6308 -31.6308 -31.6307 -31.5944
   -31.5934 -31.5934 -31.5928 -31.5927 -31.5915 -31.5662 -31.5638 -31.5635
    -9.3644  -7.9135  -7.9132  -7.9131   3.7584   3.7589   3.7589   6.3349
     6.3803   6.3803   6.3804   6.3807   6.4264   7.6442   7.6726   7.7013

          k = 0.0000 0.0000 0.2500 (  5153 PWs)   bands (ev):

   -64.8331 -64.8263 -64.8250 -64.8245 -31.6249 -31.6249 -31.6203 -31.5978
   -31.5977 -31.5940 -31.5940 -31.5904 -31.5868 -31.5781 -31.5728 -31.5692
    -9.1560  -8.1284  -7.8848  -7.8847   4.0490   4.0490   4.0956   5.8583
     5.8583   6.1709   6.1713   6.4996   6.5876   6.6591   7.4190   7.4832

          k = 0.0000 0.0000-0.5000 (  5122 PWs)   bands (ev):

   -64.8299 -64.8295 -64.8250 -64.8245 -31.6134 -31.6131 -31.6070 -31.6067
   -31.6018 -31.6017 -31.5910 -31.5909 -31.5823 -31.5821 -31.5785 -31.5783
    -8.6457  -8.6456  -7.8560  -7.8559   4.8426   4.8427   4.8532   4.8533
     5.1228   5.1231   5.9738   5.9742   6.9303   6.9304   7.0076   7.0076

          k = 0.0000 0.2500 0.0000 (  5164 PWs)   bands (ev):

   -64.8331 -64.8263 -64.8250 -64.8245 -31.6248 -31.6244 -31.6212 -31.5992
   -31.5983 -31.5933 -31.5931 -31.5890 -31.5887 -31.5792 -31.5715 -31.5708
    -9.1559  -8.1281  -7.8850  -7.8848   4.0486   4.0488   4.0955   5.8539
     5.8585   6.1709   6.1756   6.5432   6.5433   6.6586   7.4505   7.4513

          k = 0.0000 0.2500 0.2500 (  5156 PWs)   bands (ev):

   -64.8319 -64.8262 -64.8259 -64.8248 -31.6210 -31.6209 -31.6198 -31.6070
   -31.5944 -31.5938 -31.5931 -31.5874 -31.5864 -31.5861 -31.5755 -31.5686
    -8.9658  -8.0636  -8.0634  -7.8898   4.1615   4.1620   4.3290   5.0717
     5.8471   6.0538   6.0558   6.4853   6.4878   6.5839   7.1733   7.5063

          k = 0.0000 0.2500-0.5000 (  5148 PWs)   bands (ev):

   -64.8292 -64.8288 -64.8257 -64.8252 -31.6178 -31.6176 -31.6101 -31.6101
   -31.6063 -31.6061 -31.5851 -31.5849 -31.5836 -31.5836 -31.5751 -31.5749
    -8.5093  -8.5093  -7.9465  -7.9464   4.4188   4.4189   4.7512   4.7514
     5.0966   5.0966   6.5482   6.5485   6.5754   6.5755   7.0956   7.0957

          k = 0.0000-0.5000 0.0000 (  5124 PWs)   bands (ev):

   -64.8299 -64.8295 -64.8250 -64.8245 -31.6106 -31.6104 -31.6098 -31.6096
   -31.6019 -31.6018 -31.5915 -31.5915 -31.5804 -31.5802 -31.5799 -31.5797
    -8.6456  -8.6455  -7.8562  -7.8561   4.8477   4.8477   4.8481   4.8481
     5.1231   5.1234   5.9738   5.9741   6.9688   6.9688   6.9689   6.9689

          k = 0.0000-0.5000 0.2500 (  5156 PWs)   bands (ev):

   -64.8292 -64.8288 -64.8257 -64.8252 -31.6175 -31.6174 -31.6103 -31.6102
   -31.6069 -31.6067 -31.5850 -31.5848 -31.5839 -31.5839 -31.5752 -31.5751
    -8.5092  -8.5092  -7.9466  -7.9465   4.4184   4.4185   4.7514   4.7516
     5.0969   5.0969   6.5481   6.5483   6.5763   6.5763   7.0944   7.0945

          k = 0.0000-0.5000-0.5000 (  5184 PWs)   bands (ev):

   -64.8275 -64.8274 -64.8274 -64.8265 -31.6193 -31.6191 -31.6190 -31.6190
   -31.5969 -31.5967 -31.5967 -31.5964 -31.5759 -31.5757 -31.5756 -31.5756
    -8.2051  -8.2049  -8.2049  -8.2049   4.2934   4.2935   4.2935   4.2937
     5.7680   5.7681   5.7683   5.7683   7.0637   7.0639   7.0639   7.0640

          k = 0.2500 0.0020 0.0000 (  5164 PWs)   bands (ev):

   -64.8331 -64.8263 -64.8250 -64.8245 -31.6248 -31.6244 -31.6212 -31.5992
   -31.5983 -31.5933 -31.5931 -31.5890 -31.5887 -31.5792 -31.5715 -31.5708
    -9.1559  -8.1281  -7.8850  -7.8848   4.0486   4.0488   4.0955   5.8539
     5.8585   6.1709   6.1756   6.5432   6.5433   6.6586   7.4505   7.4513

          k = 0.2500 0.0020 0.2500 (  5156 PWs)   bands (ev):

   -64.8319 -64.8263 -64.8259 -64.8249 -31.6210 -31.6208 -31.6198 -31.6070
   -31.5944 -31.5938 -31.5931 -31.5874 -31.5864 -31.5861 -31.5755 -31.5686
    -8.9658  -8.0637  -8.0633  -7.8898   4.1614   4.1621   4.3290   5.0717
     5.8471   6.0537   6.0558   6.4853   6.4878   6.5839   7.1733   7.5063

          k = 0.2500 0.0020-0.5000 (  5148 PWs)   bands (ev):

   -64.8292 -64.8288 -64.8257 -64.8252 -31.6178 -31.6176 -31.6101 -31.6101
   -31.6064 -31.6061 -31.5851 -31.5849 -31.5836 -31.5836 -31.5751 -31.5749
    -8.5093  -8.5093  -7.9465  -7.9464   4.4188   4.4189   4.7512   4.7514
     5.0966   5.0966   6.5482   6.5485   6.5754   6.5755   7.0956   7.0957

          k = 0.2500 0.2520 0.0000 (  5159 PWs)   bands (ev):

   -64.8318 -64.8263 -64.8259 -64.8248 -31.6195 -31.6189 -31.6188 -31.6100
   -31.5945 -31.5943 -31.5942 -31.5879 -31.5878 -31.5859 -31.5758 -31.5671
    -8.9617  -8.0684  -8.0683  -7.8852   4.1637   4.1638   4.3331   5.0960
     5.8612   6.0493   6.0497   6.4936   6.4936   6.5432   7.1809   7.4777

          k = 0.2500 0.2520 0.2500 (  5154 PWs)   bands (ev):

   -64.8308 -64.8263 -64.8262 -64.8255 -31.6259 -31.6231 -31.6230 -31.6070
   -31.5957 -31.5955 -31.5953 -31.5835 -31.5835 -31.5822 -31.5719 -31.5697
    -8.7919  -8.0352  -8.0351  -8.0259   3.9970   3.9970   4.0155   5.1066
     5.8510   5.8511   5.8581   6.6666   6.7098   6.7100   7.3254   7.3594

          k = 0.2500 0.2520-0.5000 (  5148 PWs)   bands (ev):

   -64.8286 -64.8282 -64.8263 -64.8257 -31.6263 -31.6262 -31.6224 -31.6223
   -31.5960 -31.5957 -31.5799 -31.5798 -31.5788 -31.5787 -31.5761 -31.5758
    -8.3946  -8.3946  -8.0016  -8.0015   3.8137   3.8138   4.2165   4.2166
     5.8413   5.8413   6.7443   6.7446   6.8736   6.8737   6.9813   6.9813

          k = 0.2500-0.4981 0.0000 (  5153 PWs)   bands (ev):

   -64.8292 -64.8287 -64.8258 -64.8252 -31.6201 -31.6148 -31.6128 -31.6074
   -31.6070 -31.6066 -31.5856 -31.5850 -31.5848 -31.5817 -31.5770 -31.5735
    -8.5155  -8.5029  -7.9535  -7.9396   4.4099   4.4273   4.7478   4.7551
     5.0895   5.1036   6.5211   6.5663   6.5760   6.5861   7.0740   7.1154

          k = 0.2500-0.4981 0.2500 (  5138 PWs)   bands (ev):

   -64.8287 -64.8283 -64.8263 -64.8256 -31.6299 -31.6265 -31.6232 -31.6188
   -31.5933 -31.5928 -31.5818 -31.5796 -31.5795 -31.5783 -31.5770 -31.5754
    -8.4050  -8.3924  -8.0035  -7.9901   3.8080   3.8354   4.1879   4.2085
     5.8241   5.8368   6.7210   6.7607   6.8548   6.8821   7.0112   7.0235

          k = 0.2500-0.4981-0.5000 (  5144 PWs)   bands (ev):

   -64.8275 -64.8274 -64.8274 -64.8265 -31.6336 -31.6334 -31.6299 -31.6298
   -31.5842 -31.5840 -31.5822 -31.5821 -31.5753 -31.5751 -31.5748 -31.5747
    -8.1739  -8.1738  -8.1611  -8.1610   3.6260   3.6261   3.6551   3.6552
     6.5038   6.5038   6.5457   6.5457   7.0586   7.0588   7.0711   7.0712

          k = 0.2500-0.2480 0.0000 (  5155 PWs)   bands (ev):

   -64.8320 -64.8262 -64.8258 -64.8249 -31.6232 -31.6230 -31.6197 -31.6052
   -31.5941 -31.5941 -31.5902 -31.5883 -31.5850 -31.5848 -31.5755 -31.5708
    -8.9697  -8.0585  -8.0584  -7.8947   4.1598   4.1598   4.3247   5.0473
     5.8338   6.0622   6.0626   6.4767   6.4767   6.6256   7.1658   7.5340

          k = 0.2500-0.2480 0.2500 (  5146 PWs)   bands (ev):

   -64.8310 -64.8263 -64.8262 -64.8255 -31.6272 -31.6270 -31.6242 -31.6045
   -31.5918 -31.5917 -31.5915 -31.5857 -31.5838 -31.5837 -31.5733 -31.5704
    -8.7999  -8.0350  -8.0254  -8.0254   3.9858   4.0045   4.0045   5.0724
     5.8341   5.8413   5.8414   6.7017   6.7019   6.7455   7.3518   7.3861

          k = 0.2500-0.2480-0.5000 (  5124 PWs)   bands (ev):

   -64.8287 -64.8283 -64.8262 -64.8256 -31.6299 -31.6298 -31.6199 -31.6199
   -31.5901 -31.5898 -31.5814 -31.5814 -31.5794 -31.5791 -31.5763 -31.5762
    -8.4030  -8.4029  -7.9919  -7.9919   3.8297   3.8298   4.1798   4.1800
     5.8202   5.8203   6.7367   6.7369   6.8645   6.8647   7.0519   7.0519

          k =-0.5000-0.0039 0.0000 (  5124 PWs)   bands (ev):

   -64.8299 -64.8295 -64.8250 -64.8245 -31.6106 -31.6104 -31.6098 -31.6096
   -31.6019 -31.6018 -31.5915 -31.5915 -31.5804 -31.5802 -31.5799 -31.5797
    -8.6459  -8.6451  -7.8562  -7.8561   4.8470   4.8475   4.8483   4.8487
     5.1231   5.1235   5.9738   5.9741   6.9684   6.9685   6.9691   6.9692

          k =-0.5000-0.0039 0.2500 (  5156 PWs)   bands (ev):

   -64.8292 -64.8288 -64.8257 -64.8252 -31.6175 -31.6174 -31.6103 -31.6102
   -31.6069 -31.6067 -31.5850 -31.5848 -31.5839 -31.5839 -31.5752 -31.5751
    -8.5095  -8.5089  -7.9466  -7.9465   4.4182   4.4187   4.7513   4.7517
     5.0963   5.0975   6.5480   6.5484   6.5759   6.5767   7.0943   7.0946

          k =-0.5000-0.0039-0.5000 (  5184 PWs)   bands (ev):

   -64.8275 -64.8274 -64.8274 -64.8265 -31.6193 -31.6191 -31.6190 -31.6189
   -31.5969 -31.5967 -31.5967 -31.5964 -31.5759 -31.5757 -31.5756 -31.5755
    -8.2053  -8.2051  -8.2049  -8.2046   4.2931   4.2933   4.2938   4.2939
     5.7673   5.7679   5.7684   5.7691   7.0635   7.0639   7.0640   7.0641

          k =-0.5000 0.2461 0.0000 (  5153 PWs)   bands (ev):

   -64.8292 -64.8287 -64.8257 -64.8252 -31.6201 -31.6148 -31.6128 -31.6074
   -31.6069 -31.6066 -31.5856 -31.5850 -31.5848 -31.5817 -31.5770 -31.5735
    -8.5155  -8.5029  -7.9535  -7.9396   4.4099   4.4273   4.7478   4.7551
     5.0894   5.1037   6.5210   6.5662   6.5760   6.5861   7.0740   7.1154

          k =-0.5000 0.2461 0.2500 (  5138 PWs)   bands (ev):

   -64.8287 -64.8283 -64.8262 -64.8257 -31.6299 -31.6265 -31.6232 -31.6188
   -31.5933 -31.5928 -31.5818 -31.5796 -31.5794 -31.5783 -31.5770 -31.5754
    -8.4050  -8.3924  -8.0035  -7.9901   3.8080   3.8354   4.1879   4.2085
     5.8241   5.8368   6.7210   6.7607   6.8547   6.8821   7.0112   7.0235

          k =-0.5000 0.2461-0.5000 (  5144 PWs)   bands (ev):

   -64.8275 -64.8274 -64.8274 -64.8265 -31.6336 -31.6334 -31.6299 -31.6298
   -31.5842 -31.5840 -31.5822 -31.5821 -31.5753 -31.5752 -31.5747 -31.5747
    -8.1739  -8.1738  -8.1611  -8.1610   3.6260   3.6261   3.6551   3.6552
     6.5038   6.5038   6.5457   6.5457   7.0586   7.0588   7.0711   7.0712

          k =-0.5000-0.5039 0.0000 (  5188 PWs)   bands (ev):

   -64.8276 -64.8275 -64.8273 -64.8265 -31.6221 -31.6219 -31.6164 -31.6162
   -31.5970 -31.5969 -31.5968 -31.5966 -31.5771 -31.5769 -31.5745 -31.5743
    -8.2144  -8.2143  -8.1956  -8.1955   4.2879   4.2880   4.2988   4.2989
     5.7561   5.7564   5.7792   5.7796   7.0323   7.0324   7.0961   7.0961

          k =-0.5000-0.5039 0.2500 (  5140 PWs)   bands (ev):

   -64.8276 -64.8275 -64.8273 -64.8265 -31.6336 -31.6335 -31.6299 -31.6297
   -31.5836 -31.5836 -31.5820 -31.5820 -31.5772 -31.5770 -31.5732 -31.5730
    -8.1768  -8.1767  -8.1582  -8.1581   3.6286   3.6287   3.6524   3.6524
     6.5212   6.5215   6.5280   6.5282   7.0335   7.0336   7.0967   7.0967

          k =-0.5000-0.5039-0.5000 (  5136 PWs)   bands (ev):

   -64.8276 -64.8274 -64.8273 -64.8265 -31.6401 -31.6399 -31.6391 -31.6390
   -31.5765 -31.5762 -31.5755 -31.5754 -31.5744 -31.5744 -31.5737 -31.5734
    -8.1386  -8.1385  -8.1202  -8.1201   3.2030   3.2031   3.2324   3.2325
     7.0342   7.0342   7.0645   7.0647   7.0664   7.0666   7.0977   7.0977

          k = 0.0000-0.2500 0.2500 (  5156 PWs)   bands (ev):

   -64.8319 -64.8262 -64.8259 -64.8248 -31.6210 -31.6209 -31.6198 -31.6070
   -31.5944 -31.5938 -31.5931 -31.5874 -31.5864 -31.5861 -31.5755 -31.5686
    -8.9658  -8.0636  -8.0634  -7.8898   4.1615   4.1620   4.3290   5.0717
     5.8471   6.0538   6.0558   6.4853   6.4878   6.5839   7.1733   7.5063

          k =-0.2500-0.0020 0.2500 (  5156 PWs)   bands (ev):

   -64.8319 -64.8263 -64.8259 -64.8249 -31.6210 -31.6208 -31.6198 -31.6070
   -31.5944 -31.5938 -31.5931 -31.5874 -31.5864 -31.5861 -31.5755 -31.5686
    -8.9658  -8.0637  -8.0633  -7.8898   4.1614   4.1621   4.3290   5.0717
     5.8471   6.0537   6.0558   6.4853   6.4878   6.5839   7.1733   7.5063

          k =-0.2500-0.2520 0.2500 (  5154 PWs)   bands (ev):

   -64.8308 -64.8263 -64.8262 -64.8255 -31.6259 -31.6231 -31.6230 -31.6070
   -31.5957 -31.5955 -31.5953 -31.5835 -31.5835 -31.5822 -31.5719 -31.5697
    -8.7919  -8.0352  -8.0351  -8.0259   3.9970   3.9970   4.0155   5.1066
     5.8510   5.8511   5.8581   6.6666   6.7098   6.7100   7.3254   7.3594

          k =-0.2500 0.4981 0.2500 (  5138 PWs)   bands (ev):

   -64.8287 -64.8283 -64.8263 -64.8256 -31.6299 -31.6265 -31.6232 -31.6188
   -31.5933 -31.5928 -31.5818 -31.5796 -31.5795 -31.5783 -31.5770 -31.5754
    -8.4050  -8.3924  -8.0035  -7.9901   3.8080   3.8354   4.1879   4.2085
     5.8241   5.8368   6.7210   6.7607   6.8548   6.8821   7.0112   7.0235

          k =-0.2500 0.2480 0.2500 (  5146 PWs)   bands (ev):

   -64.8310 -64.8263 -64.8262 -64.8255 -31.6272 -31.6270 -31.6242 -31.6045
   -31.5918 -31.5917 -31.5915 -31.5857 -31.5838 -31.5837 -31.5733 -31.5704
    -8.7999  -8.0350  -8.0254  -8.0254   3.9858   4.0045   4.0045   5.0724
     5.8341   5.8413   5.8414   6.7017   6.7019   6.7455   7.3518   7.3861

          k = 0.5000-0.2461 0.2500 (  5138 PWs)   bands (ev):

   -64.8287 -64.8283 -64.8262 -64.8257 -31.6299 -31.6265 -31.6232 -31.6188
   -31.5933 -31.5928 -31.5818 -31.5796 -31.5794 -31.5783 -31.5770 -31.5754
    -8.4050  -8.3924  -8.0035  -7.9901   3.8080   3.8354   4.1879   4.2085
     5.8241   5.8368   6.7210   6.7607   6.8547   6.8821   7.0112   7.0235

     highest occupied level (ev):     7.7013

!    total energy              =    -608.39269352 Ry
     Harris-Foulkes estimate   =    -608.39269352 Ry
     estimated scf accuracy    <          2.6E-12 Ry

     The total energy is the sum of the following terms:

     one-electron contribution =    -303.55294371 Ry
     hartree contribution      =     168.06617100 Ry
     xc contribution           =     -97.84641556 Ry
     ewald contribution        =    -375.05950524 Ry

     convergence has been achieved in   5 iterations

     Forces acting on atoms (cartesian axes, Ry/au):

     atom    1 type  1   force =    -0.00000924   -0.00000745    0.00000065
     atom    2 type  1   force =    -0.00000198    0.00001086   -0.00000063
     atom    3 type  1   force =     0.00007010   -0.00000963   -0.00000061
     atom    4 type  1   force =    -0.00008962    0.00000791    0.00000063
     atom    5 type  2   force =    -0.00005495   -0.00000324    0.00000042
     atom    6 type  2   force =     0.00006799    0.00000249    0.00000044
     atom    7 type  2   force =    -0.00004942   -0.00000256   -0.00000041
     atom    8 type  2   force =     0.00006711    0.00000163   -0.00000049

     Total force =     0.000167     Total SCF correction =     0.000009


     Computing stress (Cartesian axis) and pressure

          total   stress  (Ry/bohr**3)                   (kbar)     P=  -68.07
  -0.00046348   0.00007551   0.00000000        -68.18     11.11      0.00
   0.00007551  -0.00046229   0.00000000         11.11    -68.01      0.00
   0.00000000   0.00000000  -0.00046243          0.00      0.00    -68.03


     bfgs converged in   8 scf cycles and   7 bfgs steps
     (criteria: energy <  1.0E-05 Ry, force <  1.0E-04 Ry/Bohr)

     End of BFGS Geometry Optimization

     Final energy   =    -608.3926935167 Ry
Begin final coordinates

ATOMIC_POSITIONS (alat)
Mg       0.001793908   0.000011188  -0.000003750
Mg      -0.001949316   0.499986813   0.500004018
Mg       0.501974627   0.000011472   0.500003975
Mg       0.498156769   0.499989259  -0.000004168
O        0.502013834   0.000008813  -0.000004021
O       -0.002006039   0.499991858  -0.000004017
O        0.001968225   0.000008909   0.500004003
O        0.498047993   0.499991688   0.500003959
End final coordinates



     Writing output data file diamond..70.4.save
 
     init_run     :      0.50s CPU      0.52s WALL (       1 calls)
     electrons    :     59.69s CPU     61.83s WALL (       8 calls)
     update_pot   :      0.57s CPU      0.58s WALL (       7 calls)
     forces       :      0.98s CPU      0.99s WALL (       8 calls)
     stress       :      2.47s CPU      2.50s WALL (       8 calls)

     Called by init_run:
     wfcinit      :      0.41s CPU      0.43s WALL (       1 calls)
     potinit      :      0.04s CPU      0.04s WALL (       1 calls)

     Called by electrons:
     c_bands      :     52.61s CPU     54.52s WALL (      48 calls)
     sum_band     :      6.86s CPU      7.05s WALL (      48 calls)
     v_of_rho     :      0.20s CPU      0.20s WALL (      49 calls)
     mix_rho      :      0.02s CPU      0.03s WALL (      48 calls)

     Called by c_bands:
     init_us_2    :      0.72s CPU      0.78s WALL (    4068 calls)
     cegterg      :     49.43s CPU     51.11s WALL (    1728 calls)

     Called by sum_band:

     Called by *egterg:
     h_psi        :     37.02s CPU     37.94s WALL (    5963 calls)
     g_psi        :      0.13s CPU      0.14s WALL (    4199 calls)
     cdiaghg      :      7.34s CPU      7.35s WALL (    5423 calls)

     Called by h_psi:
     h_psi:pot    :     36.82s CPU     37.67s WALL (    5963 calls)
     h_psi:calbec :      1.57s CPU      1.56s WALL (    5963 calls)
     vloc_psi     :     34.02s CPU     34.84s WALL (    5963 calls)
     add_vuspsi   :      1.23s CPU      1.24s WALL (    5963 calls)

     General routines
     calbec       :      2.11s CPU      2.10s WALL (    7403 calls)
     fft          :      0.14s CPU      0.14s WALL (     752 calls)
     fftw         :     38.76s CPU     38.62s WALL (  349608 calls)
     davcio       :      0.00s CPU      0.00s WALL (      36 calls)
 
     Parallel routines
     fft_scatter  :      7.53s CPU      7.97s WALL (  350360 calls)
 
     PWSCF        :  1m 4.70s CPU     1m 7.11s WALL

 
   This run was terminated on:  19: 3:45  22Apr2018            

=------------------------------------------------------------------------------=
   JOB DONE.
=------------------------------------------------------------------------------=
