
     Program PWSCF v.6.1 (svn rev. 13369) starts on 22Apr2018 at 19: 1:32 

     This program is part of the open-source Quantum ESPRESSO suite
     for quantum simulation of materials; please cite
         "P. Giannozzi et al., J. Phys.:Condens. Matter 21 395502 (2009);
          URL http://www.quantum-espresso.org", 
     in publications or presentations arising from this work. More details at
     http://www.quantum-espresso.org/quote

     Parallel version (MPI), running on     8 processors
     R & G space division:  proc/nbgrp/npool/nimage =       8
     Waiting for input...
     Reading input from standard input
Warning: card       &CELL ignored
Warning: card          CELL_DYNAMICS = 'BFGS' ignored
Warning: card          PRESS = 0.0D0 ignored
Warning: card          PRESS_CONV_THR = 0.01D0 ignored
Warning: card       / ignored

     Current dimensions of program PWSCF are:
     Max number of different atomic species (ntypx) = 10
     Max number of k-points (npk) =  40000
     Max angular momentum in pseudopotentials (lmaxx) =  3

     Subspace diagonalization in iterative solution of the eigenvalue problem:
     a serial algorithm will be used

 
     Parallelization info
     --------------------
     sticks:   dense  smooth     PW     G-vecs:    dense   smooth      PW
     Min         181     181     52                 5149     5149     816
     Max         182     182     53                 5151     5151     819
     Sum        1449    1449    421                41195    41195    6543
 


     bravais-lattice index     =           12
     lattice parameter (alat)  =       8.0448  a.u.
     unit-cell volume          =     520.6348 (a.u.)^3
     number of atoms/cell      =            8
     number of atomic types    =            2
     number of electrons       =        64.00
     number of Kohn-Sham states=           32
     kinetic-energy cutoff     =      70.0000  Ry
     charge density cutoff     =     280.0000  Ry
     convergence threshold     =      1.0E-08
     mixing beta               =       0.7000
     number of iterations used =            8  plain     mixing
     Exchange-correlation      = PBE ( 1  4  3  4 0 0)
     nstep                     =           50


     celldm(1)=   8.044750  celldm(2)=   1.000000  celldm(3)=   1.000010
     celldm(4)=  -0.006429  celldm(5)=   0.000000  celldm(6)=   0.000000

     crystal axes: (cart. coord. in units of alat)
               a(1) = (   1.000000   0.000000   0.000000 )  
               a(2) = (  -0.006429   0.999979   0.000000 )  
               a(3) = (   0.000000   0.000000   1.000010 )  

     reciprocal axes: (cart. coord. in units 2 pi/alat)
               b(1) = (  1.000000  0.006429  0.000000 )  
               b(2) = (  0.000000  1.000021  0.000000 )  
               b(3) = (  0.000000  0.000000  0.999990 )  


     PseudoPot. # 1 for Mg read from file:
     ../pseudo/Mg.pbe.UPF
     MD5 check sum: 4c04d8c6e0476e83eaecaf72fa8acc4d
     Pseudo is Norm-conserving, Zval = 10.0
     Generated using ONCVPSP code by D. R. Hamann
     Using radial grid of 1510 points,  4 beta functions with: 
                l(1) =   0
                l(2) =   0
                l(3) =   1
                l(4) =   1

     PseudoPot. # 2 for O  read from file:
     ../pseudo/O.pbe.UPF
     MD5 check sum: 3e3f909f7470e8921608ab6b1f57bbae
     Pseudo is Norm-conserving + core correction, Zval =  6.0
     Generated using ONCVPSP code by D. R. Hamann
     Using radial grid of  936 points,  5 beta functions with: 
                l(1) =   0
                l(2) =   0
                l(3) =   1
                l(4) =   1
                l(5) =   2

     atomic species   valence    mass     pseudopotential
        Mg            10.00    24.30500     Mg( 1.00)
        O              6.00    15.99940     O ( 1.00)

     No symmetry found



   Cartesian axes

     site n.     atom                  positions (alat units)
         1           Mg  tau(   1) = (   0.0000000   0.0000000   0.0000000  )
         2           Mg  tau(   2) = (   0.0000000   0.5000000   0.5000000  )
         3           Mg  tau(   3) = (   0.5000000   0.0000000   0.5000000  )
         4           Mg  tau(   4) = (   0.5000000   0.5000000   0.0000000  )
         5           O   tau(   5) = (   0.5000000   0.0000000   0.0000000  )
         6           O   tau(   6) = (   0.0000000   0.5000000   0.0000000  )
         7           O   tau(   7) = (   0.0000000   0.0000000   0.5000000  )
         8           O   tau(   8) = (   0.5000000   0.5000000   0.5000000  )

     number of k points=    36
                       cart. coord. in units 2pi/alat
        k(    1) = (   0.0000000   0.0000000   0.0000000), wk =   0.0312500
        k(    2) = (   0.0000000   0.0000000   0.2499974), wk =   0.0625000
        k(    3) = (   0.0000000   0.0000000  -0.4999948), wk =   0.0312500
        k(    4) = (   0.0000000   0.2500052   0.0000000), wk =   0.0625000
        k(    5) = (   0.0000000   0.2500052   0.2499974), wk =   0.0625000
        k(    6) = (   0.0000000   0.2500052  -0.4999948), wk =   0.0625000
        k(    7) = (   0.0000000  -0.5000103   0.0000000), wk =   0.0312500
        k(    8) = (   0.0000000  -0.5000103   0.2499974), wk =   0.0625000
        k(    9) = (   0.0000000  -0.5000103  -0.4999948), wk =   0.0312500
        k(   10) = (   0.2500000   0.0016073   0.0000000), wk =   0.0625000
        k(   11) = (   0.2500000   0.0016073   0.2499974), wk =   0.0625000
        k(   12) = (   0.2500000   0.0016073  -0.4999948), wk =   0.0625000
        k(   13) = (   0.2500000   0.2516124   0.0000000), wk =   0.0625000
        k(   14) = (   0.2500000   0.2516124   0.2499974), wk =   0.0625000
        k(   15) = (   0.2500000   0.2516124  -0.4999948), wk =   0.0625000
        k(   16) = (   0.2500000  -0.4984031   0.0000000), wk =   0.0625000
        k(   17) = (   0.2500000  -0.4984031   0.2499974), wk =   0.0625000
        k(   18) = (   0.2500000  -0.4984031  -0.4999948), wk =   0.0625000
        k(   19) = (   0.2500000  -0.2483979   0.0000000), wk =   0.0625000
        k(   20) = (   0.2500000  -0.2483979   0.2499974), wk =   0.0625000
        k(   21) = (   0.2500000  -0.2483979  -0.4999948), wk =   0.0625000
        k(   22) = (  -0.5000000  -0.0032146   0.0000000), wk =   0.0312500
        k(   23) = (  -0.5000000  -0.0032146   0.2499974), wk =   0.0625000
        k(   24) = (  -0.5000000  -0.0032146  -0.4999948), wk =   0.0312500
        k(   25) = (  -0.5000000   0.2467906   0.0000000), wk =   0.0625000
        k(   26) = (  -0.5000000   0.2467906   0.2499974), wk =   0.0625000
        k(   27) = (  -0.5000000   0.2467906  -0.4999948), wk =   0.0625000
        k(   28) = (  -0.5000000  -0.5032249   0.0000000), wk =   0.0312500
        k(   29) = (  -0.5000000  -0.5032249   0.2499974), wk =   0.0625000
        k(   30) = (  -0.5000000  -0.5032249  -0.4999948), wk =   0.0312500
        k(   31) = (   0.0000000  -0.2500052   0.2499974), wk =   0.0625000
        k(   32) = (  -0.2500000  -0.0016073   0.2499974), wk =   0.0625000
        k(   33) = (  -0.2500000  -0.2516124   0.2499974), wk =   0.0625000
        k(   34) = (  -0.2500000   0.4984031   0.2499974), wk =   0.0625000
        k(   35) = (  -0.2500000   0.2483979   0.2499974), wk =   0.0625000
        k(   36) = (   0.5000000  -0.2467906   0.2499974), wk =   0.0625000

     Dense  grid:    41195 G-vectors     FFT dimensions: (  45,  45,  45)

     Estimated max dynamical RAM per process >      17.21MB

     Estimated total allocated dynamical RAM >     137.71MB

     Check: negative/imaginary core charge=   -0.000007    0.000000

     Initial potential from superposition of free atoms

     starting charge   63.99678, renormalised to   64.00000
     Starting wfc are   36 randomized atomic wfcs

     total cpu time spent up to now is        0.6 secs

     per-process dynamical memory:    52.0 Mb

     Self-consistent Calculation

     iteration #  1     ecut=    70.00 Ry     beta=0.70
     Davidson diagonalization with overlap
     ethr =  1.00E-02,  avg # of iterations =  2.0

     total cpu time spent up to now is        1.8 secs

     total energy              =    -607.72028870 Ry
     Harris-Foulkes estimate   =    -608.84373361 Ry
     estimated scf accuracy    <       1.56106740 Ry

     iteration #  2     ecut=    70.00 Ry     beta=0.70
     Davidson diagonalization with overlap
     ethr =  2.44E-03,  avg # of iterations =  2.9

     total cpu time spent up to now is        3.1 secs

     total energy              =    -608.10579564 Ry
     Harris-Foulkes estimate   =    -608.80311989 Ry
     estimated scf accuracy    <       1.44762070 Ry

     iteration #  3     ecut=    70.00 Ry     beta=0.70
     Davidson diagonalization with overlap
     ethr =  2.26E-03,  avg # of iterations =  2.0

     total cpu time spent up to now is        4.3 secs

     total energy              =    -608.39117892 Ry
     Harris-Foulkes estimate   =    -608.39184084 Ry
     estimated scf accuracy    <       0.00675511 Ry

     iteration #  4     ecut=    70.00 Ry     beta=0.70
     Davidson diagonalization with overlap
     ethr =  1.06E-05,  avg # of iterations =  2.0

     total cpu time spent up to now is        5.5 secs

     total energy              =    -608.39265384 Ry
     Harris-Foulkes estimate   =    -608.39269760 Ry
     estimated scf accuracy    <       0.00010964 Ry

     iteration #  5     ecut=    70.00 Ry     beta=0.70
     Davidson diagonalization with overlap
     ethr =  1.71E-07,  avg # of iterations =  1.6

     total cpu time spent up to now is        6.5 secs

     total energy              =    -608.39266122 Ry
     Harris-Foulkes estimate   =    -608.39265968 Ry
     estimated scf accuracy    <       0.00001028 Ry

     iteration #  6     ecut=    70.00 Ry     beta=0.70
     Davidson diagonalization with overlap
     ethr =  1.61E-08,  avg # of iterations =  2.0

     total cpu time spent up to now is        7.8 secs

     total energy              =    -608.39266281 Ry
     Harris-Foulkes estimate   =    -608.39266321 Ry
     estimated scf accuracy    <       0.00000097 Ry

     iteration #  7     ecut=    70.00 Ry     beta=0.70
     Davidson diagonalization with overlap
     ethr =  1.52E-09,  avg # of iterations =  2.0

     total cpu time spent up to now is        8.9 secs

     total energy              =    -608.39266281 Ry
     Harris-Foulkes estimate   =    -608.39266289 Ry
     estimated scf accuracy    <       0.00000021 Ry

     iteration #  8     ecut=    70.00 Ry     beta=0.70
     Davidson diagonalization with overlap
     ethr =  3.30E-10,  avg # of iterations =  2.0

     total cpu time spent up to now is       10.1 secs

     total energy              =    -608.39266282 Ry
     Harris-Foulkes estimate   =    -608.39266283 Ry
     estimated scf accuracy    <       0.00000004 Ry

     iteration #  9     ecut=    70.00 Ry     beta=0.70
     Davidson diagonalization with overlap
     ethr =  5.73E-11,  avg # of iterations =  2.0

     total cpu time spent up to now is       11.5 secs

     End of self-consistent calculation

          k = 0.0000 0.0000 0.0000 (  5153 PWs)   bands (ev):

   -64.8344 -64.8250 -64.8249 -64.8242 -31.6312 -31.6311 -31.6309 -31.5948
   -31.5934 -31.5933 -31.5931 -31.5931 -31.5918 -31.5657 -31.5639 -31.5638
    -9.3644  -7.9136  -7.9133  -7.9132   3.7582   3.7584   3.7585   6.3430
     6.3802   6.3803   6.3803   6.3807   6.4179   7.6493   7.6724   7.6961

          k = 0.0000 0.0000 0.2500 (  5157 PWs)   bands (ev):

   -64.8330 -64.8262 -64.8250 -64.8243 -31.6247 -31.6247 -31.6203 -31.5979
   -31.5978 -31.5940 -31.5939 -31.5900 -31.5871 -31.5781 -31.5732 -31.5696
    -9.1560  -8.1284  -7.8848  -7.8847   4.0476   4.0489   4.0969   5.8582
     5.8582   6.1708   6.1712   6.5076   6.5796   6.6590   7.4247   7.4768

          k = 0.0000 0.0000-0.5000 (  5126 PWs)   bands (ev):

   -64.8298 -64.8293 -64.8250 -64.8244 -31.6126 -31.6124 -31.6077 -31.6074
   -31.6019 -31.6018 -31.5910 -31.5908 -31.5822 -31.5819 -31.5788 -31.5786
    -8.6458  -8.6457  -7.8560  -7.8559   4.8433   4.8433   4.8520   4.8520
     5.1232   5.1235   5.9737   5.9740   6.9373   6.9373   7.0003   7.0004

          k = 0.0000 0.2500 0.0000 (  5165 PWs)   bands (ev):

   -64.8330 -64.8262 -64.8250 -64.8243 -31.6249 -31.6243 -31.6211 -31.5990
   -31.5982 -31.5935 -31.5931 -31.5890 -31.5888 -31.5789 -31.5714 -31.5710
    -9.1560  -8.1282  -7.8851  -7.8848   4.0486   4.0487   4.0955   5.8539
     5.8584   6.1708   6.1756   6.5431   6.5432   6.6590   7.4503   7.4509

          k = 0.0000 0.2500 0.2500 (  5159 PWs)   bands (ev):

   -64.8318 -64.8262 -64.8258 -64.8247 -31.6212 -31.6209 -31.6196 -31.6071
   -31.5942 -31.5939 -31.5929 -31.5875 -31.5864 -31.5862 -31.5757 -31.5686
    -8.9658  -8.0637  -8.0634  -7.8898   4.1613   4.1619   4.3291   5.0715
     5.8472   6.0543   6.0557   6.4853   6.4872   6.5840   7.1732   7.5062

          k = 0.0000 0.2500-0.5000 (  5152 PWs)   bands (ev):

   -64.8291 -64.8286 -64.8257 -64.8251 -31.6177 -31.6175 -31.6100 -31.6100
   -31.6064 -31.6062 -31.5851 -31.5848 -31.5837 -31.5836 -31.5753 -31.5751
    -8.5094  -8.5093  -7.9465  -7.9464   4.4187   4.4187   4.7511   4.7514
     5.0965   5.0966   6.5479   6.5481   6.5757   6.5758   7.0953   7.0954

          k = 0.0000-0.5000 0.0000 (  5112 PWs)   bands (ev):

   -64.8298 -64.8294 -64.8249 -64.8244 -31.6104 -31.6098 -31.6094 -31.6092
   -31.6019 -31.6015 -31.5910 -31.5908 -31.5804 -31.5801 -31.5800 -31.5797
    -8.6457  -8.6455  -7.8563  -7.8560   4.8468   4.8481   4.8481   4.8482
     5.1231   5.1235   5.9736   5.9754   6.9685   6.9687   6.9689   6.9690

          k = 0.0000-0.5000 0.2500 (  5152 PWs)   bands (ev):

   -64.8291 -64.8287 -64.8257 -64.8251 -31.6174 -31.6171 -31.6102 -31.6100
   -31.6067 -31.6064 -31.5850 -31.5848 -31.5838 -31.5837 -31.5753 -31.5751
    -8.5094  -8.5091  -7.9468  -7.9464   4.4184   4.4186   4.7514   4.7517
     5.0965   5.0967   6.5480   6.5489   6.5760   6.5762   7.0943   7.0947

          k = 0.0000-0.5000-0.5000 (  5188 PWs)   bands (ev):

   -64.8274 -64.8274 -64.8273 -64.8263 -31.6192 -31.6190 -31.6189 -31.6189
   -31.5968 -31.5966 -31.5966 -31.5964 -31.5761 -31.5759 -31.5758 -31.5758
    -8.2052  -8.2051  -8.2049  -8.2048   4.2934   4.2935   4.2936   4.2938
     5.7677   5.7678   5.7681   5.7681   7.0636   7.0637   7.0641   7.0643

          k = 0.2500 0.0016 0.0000 (  5165 PWs)   bands (ev):

   -64.8330 -64.8262 -64.8249 -64.8244 -31.6249 -31.6243 -31.6211 -31.5989
   -31.5982 -31.5934 -31.5932 -31.5890 -31.5888 -31.5789 -31.5714 -31.5710
    -9.1560  -8.1282  -7.8850  -7.8848   4.0486   4.0487   4.0955   5.8552
     5.8584   6.1708   6.1738   6.5430   6.5435   6.6586   7.4503   7.4512

          k = 0.2500 0.0016 0.2500 (  5159 PWs)   bands (ev):

   -64.8318 -64.8262 -64.8258 -64.8247 -31.6212 -31.6209 -31.6196 -31.6071
   -31.5945 -31.5936 -31.5930 -31.5875 -31.5865 -31.5861 -31.5757 -31.5686
    -8.9658  -8.0686  -8.0585  -7.8898   4.1529   4.1703   4.3290   5.0714
     5.8472   6.0426   6.0679   6.4801   6.4918   6.5839   7.1735   7.5060

          k = 0.2500 0.0016-0.5000 (  5152 PWs)   bands (ev):

   -64.8291 -64.8286 -64.8257 -64.8250 -31.6177 -31.6176 -31.6100 -31.6100
   -31.6065 -31.6062 -31.5851 -31.5848 -31.5837 -31.5836 -31.5753 -31.5751
    -8.5095  -8.5093  -7.9465  -7.9464   4.4182   4.4183   4.7516   4.7518
     5.0964   5.0965   6.5480   6.5483   6.5759   6.5760   7.0951   7.0952

          k = 0.2500 0.2516 0.0000 (  5155 PWs)   bands (ev):

   -64.8318 -64.8262 -64.8258 -64.8247 -31.6194 -31.6193 -31.6192 -31.6094
   -31.5942 -31.5941 -31.5940 -31.5876 -31.5874 -31.5862 -31.5753 -31.5671
    -8.9625  -8.0676  -8.0675  -7.8861   4.1633   4.1633   4.3323   5.0913
     5.8587   6.0504   6.0508   6.4920   6.4923   6.5506   7.1798   7.4829

          k = 0.2500 0.2516 0.2500 (  5156 PWs)   bands (ev):

   -64.8307 -64.8262 -64.8261 -64.8254 -31.6257 -31.6235 -31.6233 -31.6068
   -31.5957 -31.5953 -31.5946 -31.5835 -31.5835 -31.5825 -31.5718 -31.5699
    -8.7927  -8.0358  -8.0343  -8.0252   3.9955   3.9976   4.0148   5.1035
     5.8401   5.8500   5.8657   6.6737   6.7090   6.7092   7.3310   7.3587

          k = 0.2500 0.2516-0.5000 (  5148 PWs)   bands (ev):

   -64.8285 -64.8281 -64.8262 -64.8256 -31.6267 -31.6266 -31.6221 -31.6220
   -31.5954 -31.5951 -31.5800 -31.5800 -31.5788 -31.5787 -31.5761 -31.5758
    -8.3955  -8.3954  -8.0007  -8.0006   3.8149   3.8150   4.2133   4.2134
     5.8392   5.8392   6.7435   6.7438   6.8728   6.8730   6.9879   6.9879

          k = 0.2500-0.4984 0.0000 (  5148 PWs)   bands (ev):

   -64.8291 -64.8286 -64.8257 -64.8251 -31.6195 -31.6147 -31.6122 -31.6079
   -31.6068 -31.6065 -31.5851 -31.5850 -31.5847 -31.5820 -31.5765 -31.5736
    -8.5144  -8.5041  -7.9522  -7.9409   4.4115   4.4256   4.7485   4.7545
     5.0907   5.1023   6.5262   6.5680   6.5712   6.5842   7.0778   7.1116

          k = 0.2500-0.4984 0.2500 (  5137 PWs)   bands (ev):

   -64.8286 -64.8282 -64.8262 -64.8255 -31.6294 -31.6268 -31.6228 -31.6191
   -31.5932 -31.5927 -31.5815 -31.5797 -31.5791 -31.5781 -31.5769 -31.5756
    -8.4039  -8.3936  -8.0023  -7.9914   3.8104   3.8329   4.1898   4.2066
     5.8252   5.8355   6.7247   6.7573   6.8574   6.8798   7.0121   7.0221

          k = 0.2500-0.4984-0.5000 (  5144 PWs)   bands (ev):

   -64.8274 -64.8273 -64.8273 -64.8263 -31.6332 -31.6330 -31.6301 -31.6299
   -31.5840 -31.5838 -31.5823 -31.5822 -31.5754 -31.5752 -31.5748 -31.5747
    -8.1728  -8.1727  -8.1623  -8.1622   3.6286   3.6287   3.6524   3.6525
     6.5075   6.5075   6.5417   6.5418   7.0598   7.0599   7.0700   7.0701

          k = 0.2500-0.2484 0.0000 (  5159 PWs)   bands (ev):

   -64.8319 -64.8261 -64.8257 -64.8248 -31.6226 -31.6224 -31.6196 -31.6057
   -31.5941 -31.5940 -31.5906 -31.5886 -31.5853 -31.5851 -31.5754 -31.5703
    -8.9691  -8.0595  -8.0594  -7.8939   4.1601   4.1601   4.3254   5.0514
     5.8363   6.0610   6.0613   6.4781   6.4784   6.6176   7.1671   7.5289

          k = 0.2500-0.2484 0.2500 (  5146 PWs)   bands (ev):

   -64.8309 -64.8262 -64.8261 -64.8253 -31.6267 -31.6265 -31.6243 -31.6048
   -31.5924 -31.5919 -31.5915 -31.5853 -31.5838 -31.5837 -31.5728 -31.5705
    -8.7993  -8.0356  -8.0263  -8.0249   3.9864   4.0038   4.0058   5.0755
     5.8265   5.8421   5.8519   6.7024   6.7026   6.7383   7.3524   7.3806

          k = 0.2500-0.2484-0.5000 (  5124 PWs)   bands (ev):

   -64.8287 -64.8282 -64.8261 -64.8255 -31.6297 -31.6296 -31.6198 -31.6198
   -31.5906 -31.5903 -31.5812 -31.5812 -31.5789 -31.5786 -31.5763 -31.5762
    -8.4024  -8.4022  -7.9929  -7.9927   3.8280   3.8280   4.1833   4.1835
     5.8219   5.8219   6.7372   6.7375   6.8655   6.8656   7.0455   7.0455

          k =-0.5000-0.0032 0.0000 (  5112 PWs)   bands (ev):

   -64.8298 -64.8294 -64.8249 -64.8244 -31.6101 -31.6100 -31.6094 -31.6092
   -31.6017 -31.6016 -31.5909 -31.5909 -31.5803 -31.5801 -31.5800 -31.5798
    -8.6457  -8.6456  -7.8562  -7.8560   4.8478   4.8479   4.8481   4.8482
     5.1231   5.1234   5.9736   5.9739   6.9687   6.9687   6.9690   6.9691

          k =-0.5000-0.0032 0.2500 (  5152 PWs)   bands (ev):

   -64.8291 -64.8287 -64.8256 -64.8251 -31.6173 -31.6172 -31.6101 -31.6101
   -31.6066 -31.6065 -31.5849 -31.5848 -31.5838 -31.5838 -31.5752 -31.5751
    -8.5094  -8.5093  -7.9466  -7.9465   4.4182   4.4182   4.7516   4.7518
     5.0967   5.0967   6.5479   6.5481   6.5764   6.5765   7.0944   7.0944

          k =-0.5000-0.0032-0.5000 (  5188 PWs)   bands (ev):

   -64.8275 -64.8273 -64.8273 -64.8263 -31.6192 -31.6191 -31.6188 -31.6188
   -31.5974 -31.5971 -31.5961 -31.5958 -31.5763 -31.5762 -31.5755 -31.5755
    -8.2119  -8.2118  -8.1982  -8.1981   4.2807   4.2808   4.3061   4.3062
     5.7517   5.7517   5.7846   5.7847   7.0566   7.0568   7.0707   7.0709

          k =-0.5000 0.2468 0.0000 (  5148 PWs)   bands (ev):

   -64.8291 -64.8287 -64.8257 -64.8251 -31.6196 -31.6147 -31.6122 -31.6079
   -31.6067 -31.6065 -31.5851 -31.5849 -31.5847 -31.5821 -31.5765 -31.5736
    -8.5144  -8.5041  -7.9522  -7.9409   4.4116   4.4256   4.7485   4.7545
     5.0907   5.1023   6.5259   6.5680   6.5709   6.5842   7.0780   7.1117

          k =-0.5000 0.2468 0.2500 (  5137 PWs)   bands (ev):

   -64.8286 -64.8282 -64.8261 -64.8255 -31.6294 -31.6268 -31.6227 -31.6191
   -31.5931 -31.5927 -31.5816 -31.5798 -31.5791 -31.5781 -31.5769 -31.5756
    -8.4039  -8.3937  -8.0023  -7.9913   3.8103   3.8327   4.1899   4.2067
     5.8252   5.8356   6.7244   6.7569   6.8576   6.8800   7.0121   7.0222

          k =-0.5000 0.2468-0.5000 (  5144 PWs)   bands (ev):

   -64.8275 -64.8273 -64.8273 -64.8263 -31.6332 -31.6330 -31.6300 -31.6299
   -31.5841 -31.5838 -31.5823 -31.5821 -31.5754 -31.5753 -31.5747 -31.5747
    -8.1747  -8.1746  -8.1604  -8.1602   3.6254   3.6255   3.6556   3.6557
     6.5038   6.5039   6.5457   6.5457   7.0576   7.0578   7.0718   7.0720

          k =-0.5000-0.5032 0.0000 (  5180 PWs)   bands (ev):

   -64.8275 -64.8273 -64.8273 -64.8263 -31.6214 -31.6212 -31.6162 -31.6160
   -31.5969 -31.5969 -31.5967 -31.5965 -31.5767 -31.5764 -31.5748 -31.5746
    -8.2127  -8.2126  -8.1974  -8.1973   4.2891   4.2892   4.2978   4.2979
     5.7582   5.7585   5.7770   5.7774   7.0381   7.0381   7.0903   7.0903

          k =-0.5000-0.5032 0.2500 (  5138 PWs)   bands (ev):

   -64.8275 -64.8273 -64.8273 -64.8263 -31.6331 -31.6329 -31.6301 -31.6300
   -31.5834 -31.5834 -31.5821 -31.5821 -31.5768 -31.5765 -31.5736 -31.5733
    -8.1751  -8.1750  -8.1600  -8.1598   3.6307   3.6308   3.6502   3.6503
     6.5217   6.5220   6.5272   6.5275   7.0393   7.0393   7.0910   7.0910

          k =-0.5000-0.5032-0.5000 (  5136 PWs)   bands (ev):

   -64.8275 -64.8273 -64.8273 -64.8263 -31.6397 -31.6394 -31.6394 -31.6393
   -31.5760 -31.5757 -31.5752 -31.5751 -31.5746 -31.5746 -31.5740 -31.5737
    -8.1370  -8.1369  -8.1219  -8.1218   3.2056   3.2057   3.2298   3.2298
     7.0399   7.0399   7.0646   7.0648   7.0661   7.0663   7.0919   7.0920

          k = 0.0000-0.2500 0.2500 (  5159 PWs)   bands (ev):

   -64.8318 -64.8262 -64.8258 -64.8247 -31.6212 -31.6209 -31.6196 -31.6071
   -31.5942 -31.5939 -31.5929 -31.5875 -31.5864 -31.5862 -31.5757 -31.5686
    -8.9658  -8.0637  -8.0634  -7.8898   4.1613   4.1619   4.3291   5.0715
     5.8472   6.0543   6.0557   6.4853   6.4872   6.5840   7.1732   7.5062

          k =-0.2500-0.0016 0.2500 (  5159 PWs)   bands (ev):

   -64.8318 -64.8262 -64.8258 -64.8247 -31.6212 -31.6209 -31.6196 -31.6071
   -31.5945 -31.5936 -31.5930 -31.5875 -31.5865 -31.5861 -31.5757 -31.5686
    -8.9658  -8.0686  -8.0585  -7.8898   4.1529   4.1703   4.3290   5.0714
     5.8472   6.0426   6.0679   6.4801   6.4918   6.5839   7.1735   7.5060

          k =-0.2500-0.2516 0.2500 (  5156 PWs)   bands (ev):

   -64.8307 -64.8262 -64.8261 -64.8254 -31.6257 -31.6235 -31.6233 -31.6068
   -31.5957 -31.5953 -31.5946 -31.5835 -31.5835 -31.5825 -31.5718 -31.5699
    -8.7927  -8.0358  -8.0343  -8.0252   3.9955   3.9976   4.0148   5.1035
     5.8401   5.8500   5.8657   6.6737   6.7090   6.7092   7.3310   7.3587

          k =-0.2500 0.4984 0.2500 (  5137 PWs)   bands (ev):

   -64.8286 -64.8282 -64.8262 -64.8255 -31.6294 -31.6268 -31.6228 -31.6191
   -31.5932 -31.5927 -31.5815 -31.5797 -31.5791 -31.5781 -31.5769 -31.5756
    -8.4039  -8.3936  -8.0023  -7.9914   3.8104   3.8329   4.1898   4.2066
     5.8252   5.8355   6.7247   6.7573   6.8574   6.8798   7.0121   7.0221

          k =-0.2500 0.2484 0.2500 (  5146 PWs)   bands (ev):

   -64.8309 -64.8262 -64.8261 -64.8253 -31.6267 -31.6265 -31.6243 -31.6048
   -31.5924 -31.5919 -31.5915 -31.5853 -31.5838 -31.5837 -31.5728 -31.5705
    -8.7993  -8.0356  -8.0263  -8.0249   3.9864   4.0038   4.0058   5.0755
     5.8265   5.8421   5.8519   6.7024   6.7026   6.7383   7.3524   7.3806

          k = 0.5000-0.2468 0.2500 (  5137 PWs)   bands (ev):

   -64.8286 -64.8282 -64.8261 -64.8255 -31.6294 -31.6268 -31.6227 -31.6191
   -31.5931 -31.5927 -31.5816 -31.5798 -31.5791 -31.5781 -31.5769 -31.5756
    -8.4039  -8.3937  -8.0023  -7.9913   3.8103   3.8327   4.1899   4.2067
     5.8252   5.8356   6.7244   6.7569   6.8576   6.8800   7.0121   7.0222

     highest occupied level (ev):     7.6961

!    total energy              =    -608.39266282 Ry
     Harris-Foulkes estimate   =    -608.39266282 Ry
     estimated scf accuracy    <          1.4E-09 Ry

     The total energy is the sum of the following terms:

     one-electron contribution =    -303.55309048 Ry
     hartree contribution      =     168.06599133 Ry
     xc contribution           =     -97.84635295 Ry
     ewald contribution        =    -375.05921072 Ry

     convergence has been achieved in   9 iterations

     Forces acting on atoms (cartesian axes, Ry/au):

     atom    1 type  1   force =     0.00151787    0.00005008   -0.00000577
     atom    2 type  1   force =    -0.00163235   -0.00005257    0.00000556
     atom    3 type  1   force =     0.00151630    0.00005054    0.00000586
     atom    4 type  1   force =    -0.00134638   -0.00004659   -0.00000604
     atom    5 type  2   force =     0.00188992    0.00002455   -0.00000633
     atom    6 type  2   force =    -0.00199438   -0.00002626   -0.00000642
     atom    7 type  2   force =     0.00189089    0.00002468    0.00000661
     atom    8 type  2   force =    -0.00184187   -0.00002444    0.00000655

     Total force =     0.004859     Total SCF correction =     0.000017


     Computing stress (Cartesian axis) and pressure

          total   stress  (Ry/bohr**3)                   (kbar)     P=  -68.11
  -0.00046367   0.00006218   0.00000000        -68.21      9.15      0.00
   0.00006218  -0.00046241  -0.00000000          9.15    -68.02     -0.00
   0.00000000  -0.00000000  -0.00046302          0.00     -0.00    -68.11


     BFGS Geometry Optimization

     number of scf cycles    =   1
     number of bfgs steps    =   0

     energy   new            =    -608.3926628215 Ry

     new trust radius        =       0.0019945592 bohr
     new conv_thr            =       0.0000000100 Ry


ATOMIC_POSITIONS (alat)
Mg       0.000188678   0.000006226  -0.000000717
Mg      -0.000202909   0.499993465   0.500000691
Mg       0.500188483   0.000006283   0.500000728
Mg       0.499832639   0.499994209  -0.000000751
O        0.500234925   0.000003052  -0.000000787
O       -0.000247910   0.499996736  -0.000000798
O        0.000235046   0.000003068   0.500000821
O        0.499771047   0.499996962   0.500000814



     Writing output data file diamond..70.4.save
     NEW-OLD atomic charge density approx. for the potential

     Check: negative/imaginary core charge=   -0.000007    0.000000

     total cpu time spent up to now is       12.1 secs

     per-process dynamical memory:    52.8 Mb

     Self-consistent Calculation

     iteration #  1     ecut=    70.00 Ry     beta=0.70
     Davidson diagonalization with overlap
     ethr =  1.00E-06,  avg # of iterations =  3.0

     Threshold (ethr) on eigenvalues was too large:
     Diagonalizing with lowered threshold

     Davidson diagonalization with overlap
     ethr =  2.32E-09,  avg # of iterations =  2.7

     total cpu time spent up to now is       14.9 secs

     total energy              =    -608.39268452 Ry
     Harris-Foulkes estimate   =    -608.39268540 Ry
     estimated scf accuracy    <       0.00000155 Ry

     iteration #  2     ecut=    70.00 Ry     beta=0.70
     Davidson diagonalization with overlap
     ethr =  2.42E-09,  avg # of iterations =  2.0

     total cpu time spent up to now is       16.1 secs

     total energy              =    -608.39268478 Ry
     Harris-Foulkes estimate   =    -608.39268479 Ry
     estimated scf accuracy    <       0.00000004 Ry

     iteration #  3     ecut=    70.00 Ry     beta=0.70
     Davidson diagonalization with overlap
     ethr =  6.26E-11,  avg # of iterations =  2.0

     total cpu time spent up to now is       17.3 secs

     End of self-consistent calculation

          k = 0.0000 0.0000 0.0000 (  5153 PWs)   bands (ev):

   -64.8346 -64.8252 -64.8251 -64.8244 -31.6313 -31.6313 -31.6310 -31.5950
   -31.5935 -31.5934 -31.5933 -31.5932 -31.5920 -31.5659 -31.5640 -31.5639
    -9.3644  -7.9136  -7.9132  -7.9131   3.7583   3.7585   3.7585   6.3431
     6.3803   6.3803   6.3804   6.3807   6.4180   7.6493   7.6725   7.6961

          k = 0.0000 0.0000 0.2500 (  5157 PWs)   bands (ev):

   -64.8332 -64.8264 -64.8251 -64.8245 -31.6249 -31.6248 -31.6204 -31.5980
   -31.5980 -31.5941 -31.5941 -31.5901 -31.5873 -31.5783 -31.5733 -31.5697
    -9.1560  -8.1284  -7.8848  -7.8847   4.0480   4.0489   4.0966   5.8583
     5.8583   6.1709   6.1712   6.5076   6.5796   6.6591   7.4247   7.4768

          k = 0.0000 0.0000-0.5000 (  5126 PWs)   bands (ev):

   -64.8300 -64.8295 -64.8251 -64.8246 -31.6128 -31.6125 -31.6078 -31.6075
   -31.6020 -31.6020 -31.5911 -31.5910 -31.5824 -31.5821 -31.5790 -31.5787
    -8.6457  -8.6457  -7.8560  -7.8559   4.8434   4.8435   4.8520   4.8521
     5.1232   5.1234   5.9738   5.9740   6.9373   6.9374   7.0003   7.0005

          k = 0.0000 0.2500 0.0000 (  5165 PWs)   bands (ev):

   -64.8332 -64.8264 -64.8251 -64.8245 -31.6250 -31.6245 -31.6212 -31.5991
   -31.5984 -31.5936 -31.5933 -31.5891 -31.5889 -31.5791 -31.5716 -31.5711
    -9.1559  -8.1281  -7.8851  -7.8847   4.0486   4.0488   4.0955   5.8543
     5.8584   6.1709   6.1752   6.5432   6.5432   6.6590   7.4504   7.4510

          k = 0.0000 0.2500 0.2500 (  5159 PWs)   bands (ev):

   -64.8320 -64.8263 -64.8260 -64.8249 -31.6213 -31.6211 -31.6197 -31.6072
   -31.5943 -31.5940 -31.5931 -31.5876 -31.5866 -31.5863 -31.5758 -31.5687
    -8.9658  -8.0636  -8.0634  -7.8898   4.1614   4.1619   4.3291   5.0715
     5.8472   6.0544   6.0558   6.4853   6.4871   6.5840   7.1732   7.5062

          k = 0.0000 0.2500-0.5000 (  5152 PWs)   bands (ev):

   -64.8293 -64.8288 -64.8258 -64.8252 -31.6179 -31.6177 -31.6102 -31.6102
   -31.6065 -31.6063 -31.5852 -31.5850 -31.5838 -31.5838 -31.5755 -31.5753
    -8.5093  -8.5093  -7.9465  -7.9464   4.4187   4.4188   4.7512   4.7514
     5.0965   5.0967   6.5480   6.5482   6.5757   6.5758   7.0953   7.0954

          k = 0.0000-0.5000 0.0000 (  5112 PWs)   bands (ev):

   -64.8300 -64.8295 -64.8251 -64.8246 -31.6105 -31.6100 -31.6096 -31.6093
   -31.6020 -31.6017 -31.5911 -31.5909 -31.5805 -31.5803 -31.5802 -31.5799
    -8.6457  -8.6454  -7.8563  -7.8559   4.8470   4.8481   4.8482   4.8483
     5.1231   5.1236   5.9736   5.9752   6.9686   6.9687   6.9690   6.9690

          k = 0.0000-0.5000 0.2500 (  5152 PWs)   bands (ev):

   -64.8293 -64.8288 -64.8258 -64.8253 -31.6175 -31.6173 -31.6104 -31.6102
   -31.6068 -31.6066 -31.5851 -31.5849 -31.5840 -31.5839 -31.5754 -31.5752
    -8.5093  -8.5091  -7.9467  -7.9464   4.4184   4.4187   4.7514   4.7518
     5.0965   5.0968   6.5480   6.5488   6.5761   6.5762   7.0943   7.0947

          k = 0.0000-0.5000-0.5000 (  5188 PWs)   bands (ev):

   -64.8276 -64.8275 -64.8275 -64.8265 -31.6194 -31.6192 -31.6191 -31.6190
   -31.5970 -31.5968 -31.5968 -31.5965 -31.5762 -31.5760 -31.5759 -31.5759
    -8.2052  -8.2051  -8.2048  -8.2048   4.2934   4.2936   4.2937   4.2937
     5.7678   5.7679   5.7680   5.7682   7.0636   7.0638   7.0641   7.0642

          k = 0.2500 0.0016 0.0000 (  5165 PWs)   bands (ev):

   -64.8332 -64.8264 -64.8251 -64.8245 -31.6250 -31.6245 -31.6212 -31.5991
   -31.5984 -31.5936 -31.5934 -31.5891 -31.5889 -31.5791 -31.5716 -31.5711
    -9.1559  -8.1282  -7.8849  -7.8848   4.0486   4.0488   4.0955   5.8552
     5.8585   6.1708   6.1739   6.5431   6.5435   6.6587   7.4504   7.4512

          k = 0.2500 0.0016 0.2500 (  5159 PWs)   bands (ev):

   -64.8320 -64.8264 -64.8260 -64.8249 -31.6213 -31.6210 -31.6197 -31.6072
   -31.5946 -31.5938 -31.5931 -31.5876 -31.5866 -31.5863 -31.5758 -31.5687
    -8.9658  -8.0678  -8.0592  -7.8898   4.1543   4.1690   4.3290   5.0715
     5.8472   6.0445   6.0660   6.4810   6.4910   6.5839   7.1735   7.5061

          k = 0.2500 0.0016-0.5000 (  5152 PWs)   bands (ev):

   -64.8293 -64.8288 -64.8258 -64.8252 -31.6179 -31.6177 -31.6102 -31.6102
   -31.6066 -31.6063 -31.5852 -31.5849 -31.5838 -31.5838 -31.5755 -31.5753
    -8.5094  -8.5093  -7.9464  -7.9464   4.4183   4.4185   4.7515   4.7517
     5.0965   5.0966   6.5481   6.5483   6.5758   6.5759   7.0951   7.0953

          k = 0.2500 0.2516 0.0000 (  5155 PWs)   bands (ev):

   -64.8319 -64.8264 -64.8260 -64.8249 -31.6196 -31.6195 -31.6193 -31.6096
   -31.5944 -31.5943 -31.5941 -31.5877 -31.5876 -31.5864 -31.5755 -31.5672
    -8.9625  -8.0675  -8.0674  -7.8860   4.1633   4.1634   4.3324   5.0914
     5.8587   6.0505   6.0508   6.4921   6.4923   6.5506   7.1798   7.4830

          k = 0.2500 0.2516 0.2500 (  5156 PWs)   bands (ev):

   -64.8309 -64.8264 -64.8263 -64.8256 -31.6258 -31.6236 -31.6235 -31.6069
   -31.5958 -31.5955 -31.5948 -31.5837 -31.5837 -31.5826 -31.5719 -31.5700
    -8.7926  -8.0354  -8.0343  -8.0256   3.9961   3.9976   4.0143   5.1035
     5.8420   5.8501   5.8640   6.6737   6.7091   6.7092   7.3310   7.3587

          k = 0.2500 0.2516-0.5000 (  5148 PWs)   bands (ev):

   -64.8287 -64.8283 -64.8264 -64.8258 -31.6269 -31.6267 -31.6222 -31.6221
   -31.5956 -31.5953 -31.5802 -31.5802 -31.5790 -31.5789 -31.5762 -31.5760
    -8.3954  -8.3954  -8.0007  -8.0006   3.8150   3.8151   4.2133   4.2134
     5.8392   5.8393   6.7436   6.7438   6.8728   6.8730   6.9878   6.9880

          k = 0.2500-0.4984 0.0000 (  5148 PWs)   bands (ev):

   -64.8293 -64.8288 -64.8258 -64.8252 -31.6197 -31.6149 -31.6123 -31.6081
   -31.6069 -31.6067 -31.5852 -31.5851 -31.5849 -31.5822 -31.5767 -31.5738
    -8.5144  -8.5041  -7.9522  -7.9409   4.4116   4.4256   4.7485   4.7545
     5.0908   5.1023   6.5262   6.5681   6.5712   6.5843   7.0778   7.1116

          k = 0.2500-0.4984 0.2500 (  5137 PWs)   bands (ev):

   -64.8288 -64.8283 -64.8263 -64.8257 -31.6296 -31.6269 -31.6229 -31.6192
   -31.5933 -31.5928 -31.5817 -31.5799 -31.5793 -31.5783 -31.5771 -31.5758
    -8.4039  -8.3936  -8.0023  -7.9913   3.8104   3.8329   4.1898   4.2067
     5.8252   5.8356   6.7247   6.7572   6.8575   6.8799   7.0121   7.0222

          k = 0.2500-0.4984-0.5000 (  5144 PWs)   bands (ev):

   -64.8276 -64.8275 -64.8275 -64.8265 -31.6333 -31.6332 -31.6302 -31.6301
   -31.5842 -31.5839 -31.5825 -31.5823 -31.5755 -31.5753 -31.5750 -31.5749
    -8.1727  -8.1726  -8.1623  -8.1622   3.6286   3.6288   3.6525   3.6526
     6.5075   6.5076   6.5417   6.5419   7.0598   7.0599   7.0700   7.0701

          k = 0.2500-0.2484 0.0000 (  5159 PWs)   bands (ev):

   -64.8320 -64.8263 -64.8259 -64.8250 -31.6228 -31.6226 -31.6198 -31.6059
   -31.5942 -31.5942 -31.5908 -31.5888 -31.5855 -31.5853 -31.5756 -31.5705
    -8.9690  -8.0594  -8.0594  -7.8938   4.1601   4.1602   4.3254   5.0514
     5.8363   6.0611   6.0613   6.4782   6.4784   6.6176   7.1672   7.5289

          k = 0.2500-0.2484 0.2500 (  5146 PWs)   bands (ev):

   -64.8310 -64.8264 -64.8263 -64.8255 -31.6268 -31.6266 -31.6244 -31.6049
   -31.5925 -31.5921 -31.5917 -31.5854 -31.5840 -31.5839 -31.5729 -31.5707
    -8.7992  -8.0352  -8.0263  -8.0252   3.9870   4.0038   4.0053   5.0756
     5.8283   5.8422   5.8502   6.7025   6.7026   6.7384   7.3525   7.3806

          k = 0.2500-0.2484-0.5000 (  5124 PWs)   bands (ev):

   -64.8288 -64.8284 -64.8263 -64.8257 -31.6299 -31.6297 -31.6200 -31.6199
   -31.5907 -31.5905 -31.5814 -31.5814 -31.5791 -31.5788 -31.5765 -31.5764
    -8.4023  -8.4022  -7.9928  -7.9927   3.8280   3.8282   4.1833   4.1835
     5.8219   5.8220   6.7373   6.7375   6.8655   6.8656   7.0455   7.0456

          k =-0.5000-0.0032 0.0000 (  5112 PWs)   bands (ev):

   -64.8300 -64.8296 -64.8251 -64.8246 -31.6103 -31.6101 -31.6095 -31.6094
   -31.6018 -31.6018 -31.5911 -31.5910 -31.5805 -31.5803 -31.5801 -31.5800
    -8.6456  -8.6455  -7.8561  -7.8560   4.8478   4.8480   4.8481   4.8483
     5.1232   5.1233   5.9738   5.9739   6.9687   6.9688   6.9689   6.9691

          k =-0.5000-0.0032 0.2500 (  5152 PWs)   bands (ev):

   -64.8293 -64.8289 -64.8258 -64.8253 -31.6174 -31.6173 -31.6103 -31.6103
   -31.6068 -31.6066 -31.5851 -31.5849 -31.5840 -31.5839 -31.5754 -31.5752
    -8.5093  -8.5092  -7.9465  -7.9464   4.4183   4.4184   4.7516   4.7518
     5.0966   5.0968   6.5480   6.5482   6.5763   6.5765   7.0944   7.0945

          k =-0.5000-0.0032-0.5000 (  5188 PWs)   bands (ev):

   -64.8277 -64.8275 -64.8275 -64.8265 -31.6194 -31.6192 -31.6190 -31.6190
   -31.5975 -31.5972 -31.5964 -31.5961 -31.5764 -31.5763 -31.5757 -31.5756
    -8.2108  -8.2108  -8.1992  -8.1991   4.2827   4.2828   4.3042   4.3043
     5.7542   5.7542   5.7820   5.7823   7.0577   7.0579   7.0697   7.0699

          k =-0.5000 0.2468 0.0000 (  5148 PWs)   bands (ev):

   -64.8293 -64.8288 -64.8258 -64.8253 -31.6197 -31.6149 -31.6123 -31.6081
   -31.6069 -31.6067 -31.5852 -31.5851 -31.5849 -31.5822 -31.5767 -31.5738
    -8.5144  -8.5041  -7.9522  -7.9409   4.4117   4.4257   4.7485   4.7545
     5.0908   5.1023   6.5259   6.5680   6.5710   6.5842   7.0780   7.1117

          k =-0.5000 0.2468 0.2500 (  5137 PWs)   bands (ev):

   -64.8288 -64.8284 -64.8263 -64.8257 -31.6296 -31.6270 -31.6229 -31.6192
   -31.5933 -31.5929 -31.5817 -31.5799 -31.5792 -31.5783 -31.5771 -31.5758
    -8.4039  -8.3936  -8.0022  -7.9913   3.8104   3.8328   4.1899   4.2067
     5.8253   5.8356   6.7244   6.7570   6.8576   6.8800   7.0121   7.0222

          k =-0.5000 0.2468-0.5000 (  5144 PWs)   bands (ev):

   -64.8277 -64.8275 -64.8275 -64.8265 -31.6333 -31.6332 -31.6302 -31.6301
   -31.5842 -31.5840 -31.5824 -31.5822 -31.5755 -31.5754 -31.5749 -31.5748
    -8.1741  -8.1741  -8.1608  -8.1607   3.6263   3.6264   3.6548   3.6549
     6.5048   6.5049   6.5446   6.5448   7.0582   7.0583   7.0714   7.0716

          k =-0.5000-0.5032 0.0000 (  5180 PWs)   bands (ev):

   -64.8277 -64.8275 -64.8275 -64.8265 -31.6216 -31.6213 -31.6164 -31.6161
   -31.5971 -31.5970 -31.5969 -31.5966 -31.5768 -31.5765 -31.5750 -31.5747
    -8.2127  -8.2126  -8.1973  -8.1972   4.2891   4.2893   4.2978   4.2980
     5.7583   5.7585   5.7771   5.7774   7.0381   7.0382   7.0903   7.0904

          k =-0.5000-0.5032 0.2500 (  5138 PWs)   bands (ev):

   -64.8277 -64.8275 -64.8274 -64.8265 -31.6333 -31.6331 -31.6303 -31.6301
   -31.5836 -31.5836 -31.5823 -31.5822 -31.5769 -31.5767 -31.5737 -31.5734
    -8.1751  -8.1750  -8.1599  -8.1598   3.6307   3.6309   3.6502   3.6503
     6.5218   6.5220   6.5273   6.5275   7.0392   7.0394   7.0909   7.0911

          k =-0.5000-0.5032-0.5000 (  5136 PWs)   bands (ev):

   -64.8277 -64.8275 -64.8274 -64.8265 -31.6398 -31.6396 -31.6395 -31.6395
   -31.5761 -31.5759 -31.5754 -31.5753 -31.5747 -31.5747 -31.5742 -31.5739
    -8.1369  -8.1369  -8.1218  -8.1218   3.2056   3.2057   3.2298   3.2299
     7.0399   7.0400   7.0647   7.0649   7.0662   7.0664   7.0919   7.0920

          k = 0.0000-0.2500 0.2500 (  5159 PWs)   bands (ev):

   -64.8320 -64.8263 -64.8260 -64.8249 -31.6213 -31.6211 -31.6197 -31.6072
   -31.5943 -31.5940 -31.5931 -31.5876 -31.5866 -31.5863 -31.5758 -31.5687
    -8.9658  -8.0636  -8.0634  -7.8898   4.1614   4.1619   4.3291   5.0715
     5.8472   6.0544   6.0558   6.4853   6.4871   6.5840   7.1732   7.5062

          k =-0.2500-0.0016 0.2500 (  5159 PWs)   bands (ev):

   -64.8320 -64.8264 -64.8260 -64.8249 -31.6213 -31.6210 -31.6197 -31.6072
   -31.5946 -31.5938 -31.5931 -31.5876 -31.5866 -31.5863 -31.5758 -31.5687
    -8.9658  -8.0678  -8.0592  -7.8898   4.1543   4.1690   4.3290   5.0715
     5.8472   6.0445   6.0660   6.4810   6.4910   6.5839   7.1735   7.5061

          k =-0.2500-0.2516 0.2500 (  5156 PWs)   bands (ev):

   -64.8309 -64.8264 -64.8263 -64.8256 -31.6258 -31.6236 -31.6235 -31.6069
   -31.5958 -31.5955 -31.5948 -31.5837 -31.5837 -31.5826 -31.5719 -31.5700
    -8.7926  -8.0354  -8.0343  -8.0256   3.9961   3.9976   4.0143   5.1035
     5.8420   5.8501   5.8640   6.6737   6.7091   6.7092   7.3310   7.3587

          k =-0.2500 0.4984 0.2500 (  5137 PWs)   bands (ev):

   -64.8288 -64.8283 -64.8263 -64.8257 -31.6296 -31.6269 -31.6229 -31.6192
   -31.5933 -31.5928 -31.5817 -31.5799 -31.5793 -31.5783 -31.5771 -31.5758
    -8.4039  -8.3936  -8.0023  -7.9913   3.8104   3.8329   4.1898   4.2067
     5.8252   5.8356   6.7247   6.7572   6.8575   6.8799   7.0121   7.0222

          k =-0.2500 0.2484 0.2500 (  5146 PWs)   bands (ev):

   -64.8310 -64.8264 -64.8263 -64.8255 -31.6268 -31.6266 -31.6244 -31.6049
   -31.5925 -31.5921 -31.5917 -31.5854 -31.5840 -31.5839 -31.5729 -31.5707
    -8.7992  -8.0352  -8.0263  -8.0252   3.9870   4.0038   4.0053   5.0756
     5.8283   5.8422   5.8502   6.7025   6.7026   6.7384   7.3525   7.3806

          k = 0.5000-0.2468 0.2500 (  5137 PWs)   bands (ev):

   -64.8288 -64.8284 -64.8263 -64.8257 -31.6296 -31.6270 -31.6229 -31.6192
   -31.5933 -31.5929 -31.5817 -31.5799 -31.5792 -31.5783 -31.5771 -31.5758
    -8.4039  -8.3936  -8.0022  -7.9913   3.8104   3.8328   4.1899   4.2067
     5.8253   5.8356   6.7244   6.7570   6.8576   6.8800   7.0121   7.0222

     highest occupied level (ev):     7.6961

!    total energy              =    -608.39268479 Ry
     Harris-Foulkes estimate   =    -608.39268479 Ry
     estimated scf accuracy    <          5.1E-09 Ry

     The total energy is the sum of the following terms:

     one-electron contribution =    -303.55354132 Ry
     hartree contribution      =     168.06623970 Ry
     xc contribution           =     -97.84635058 Ry
     ewald contribution        =    -375.05903259 Ry

     convergence has been achieved in   3 iterations

     Forces acting on atoms (cartesian axes, Ry/au):

     atom    1 type  1   force =     0.00135636    0.00002810   -0.00000317
     atom    2 type  1   force =    -0.00144934   -0.00002974    0.00000313
     atom    3 type  1   force =     0.00138440    0.00002805    0.00000309
     atom    4 type  1   force =    -0.00125508   -0.00002593   -0.00000323
     atom    5 type  2   force =     0.00162717    0.00001808   -0.00000468
     atom    6 type  2   force =    -0.00168864   -0.00001876   -0.00000480
     atom    7 type  2   force =     0.00160458    0.00001808    0.00000476
     atom    8 type  2   force =    -0.00157946   -0.00001788    0.00000491

     Total force =     0.004243     Total SCF correction =     0.000098


     Computing stress (Cartesian axis) and pressure

          total   stress  (Ry/bohr**3)                   (kbar)     P=  -68.08
  -0.00046341   0.00006218  -0.00000000        -68.17      9.15     -0.00
   0.00006218  -0.00046227  -0.00000000          9.15    -68.00     -0.00
  -0.00000000  -0.00000000  -0.00046272         -0.00     -0.00    -68.07


     number of scf cycles    =   2
     number of bfgs steps    =   1

     energy   old            =    -608.3926628215 Ry
     energy   new            =    -608.3926847851 Ry

     CASE: energy  _new < energy  _old


     WARNING: bfgs curvature condition failed, Theta= 0.917
     new trust radius        =       0.0021940151 bohr
     new conv_thr            =       0.0000000002 Ry


ATOMIC_POSITIONS (alat)
Mg       0.000406365   0.000011037  -0.000001262
Mg      -0.000435687   0.499988380   0.500001227
Mg       0.500410138   0.000011095   0.500001262
Mg       0.499632147   0.499989763  -0.000001309
O        0.500497191   0.000006024  -0.000001556
O       -0.000520618   0.499993639  -0.000001586
O        0.000494111   0.000006041   0.500001606
O        0.499516353   0.499994021   0.500001618



     Writing output data file diamond..70.4.save
     NEW-OLD atomic charge density approx. for the potential

     Check: negative/imaginary core charge=   -0.000007    0.000000

     total cpu time spent up to now is       17.9 secs

     per-process dynamical memory:    52.8 Mb

     Self-consistent Calculation

     iteration #  1     ecut=    70.00 Ry     beta=0.70
     Davidson diagonalization with overlap
     ethr =  1.00E-06,  avg # of iterations =  3.0

     Threshold (ethr) on eigenvalues was too large:
     Diagonalizing with lowered threshold

     Davidson diagonalization with overlap
     ethr =  2.80E-09,  avg # of iterations =  2.5

     total cpu time spent up to now is       20.8 secs

     total energy              =    -608.39270536 Ry
     Harris-Foulkes estimate   =    -608.39270641 Ry
     estimated scf accuracy    <       0.00000186 Ry

     iteration #  2     ecut=    70.00 Ry     beta=0.70
     Davidson diagonalization with overlap
     ethr =  2.91E-09,  avg # of iterations =  2.0

     total cpu time spent up to now is       21.9 secs

     total energy              =    -608.39270567 Ry
     Harris-Foulkes estimate   =    -608.39270570 Ry
     estimated scf accuracy    <       0.00000007 Ry

     iteration #  3     ecut=    70.00 Ry     beta=0.70
     Davidson diagonalization with overlap
     ethr =  1.07E-10,  avg # of iterations =  3.0

     total cpu time spent up to now is       23.3 secs

     total energy              =    -608.39270568 Ry
     Harris-Foulkes estimate   =    -608.39270570 Ry
     estimated scf accuracy    <       0.00000003 Ry

     iteration #  4     ecut=    70.00 Ry     beta=0.70
     Davidson diagonalization with overlap
     ethr =  5.20E-11,  avg # of iterations =  3.0

     total cpu time spent up to now is       24.6 secs

     total energy              =    -608.39270569 Ry
     Harris-Foulkes estimate   =    -608.39270569 Ry
     estimated scf accuracy    <          7.6E-09 Ry

     iteration #  5     ecut=    70.00 Ry     beta=0.70
     Davidson diagonalization with overlap
     ethr =  1.19E-11,  avg # of iterations =  2.4

     total cpu time spent up to now is       25.8 secs

     End of self-consistent calculation

          k = 0.0000 0.0000 0.0000 (  5153 PWs)   bands (ev):

   -64.8346 -64.8251 -64.8251 -64.8243 -31.6313 -31.6312 -31.6310 -31.5949
   -31.5935 -31.5934 -31.5932 -31.5932 -31.5919 -31.5658 -31.5640 -31.5639
    -9.3644  -7.9136  -7.9133  -7.9132   3.7583   3.7584   3.7585   6.3430
     6.3802   6.3803   6.3803   6.3807   6.4180   7.6493   7.6725   7.6961

          k = 0.0000 0.0000 0.2500 (  5157 PWs)   bands (ev):

   -64.8332 -64.8263 -64.8251 -64.8245 -31.6249 -31.6248 -31.6204 -31.5980
   -31.5980 -31.5941 -31.5940 -31.5901 -31.5873 -31.5783 -31.5733 -31.5697
    -9.1560  -8.1284  -7.8849  -7.8848   4.0483   4.0489   4.0962   5.8583
     5.8583   6.1708   6.1712   6.5075   6.5795   6.6590   7.4247   7.4767

          k = 0.0000 0.0000-0.5000 (  5126 PWs)   bands (ev):

   -64.8300 -64.8295 -64.8251 -64.8245 -31.6127 -31.6125 -31.6078 -31.6075
   -31.6020 -31.6019 -31.5911 -31.5910 -31.5823 -31.5820 -31.5789 -31.5787
    -8.6458  -8.6457  -7.8561  -7.8560   4.8434   4.8435   4.8521   4.8521
     5.1230   5.1233   5.9737   5.9741   6.9373   6.9373   7.0003   7.0003

          k = 0.0000 0.2500 0.0000 (  5165 PWs)   bands (ev):

   -64.8332 -64.8263 -64.8251 -64.8245 -31.6250 -31.6244 -31.6212 -31.5991
   -31.5983 -31.5936 -31.5933 -31.5891 -31.5889 -31.5790 -31.5715 -31.5711
    -9.1560  -8.1282  -7.8851  -7.8848   4.0486   4.0487   4.0955   5.8546
     5.8584   6.1708   6.1748   6.5431   6.5432   6.6588   7.4504   7.4510

          k = 0.0000 0.2500 0.2500 (  5159 PWs)   bands (ev):

   -64.8320 -64.8263 -64.8259 -64.8249 -31.6213 -31.6210 -31.6197 -31.6072
   -31.5943 -31.5940 -31.5931 -31.5876 -31.5865 -31.5863 -31.5758 -31.5687
    -8.9658  -8.0637  -8.0635  -7.8898   4.1613   4.1619   4.3290   5.0715
     5.8472   6.0544   6.0558   6.4852   6.4870   6.5839   7.1732   7.5061

          k = 0.0000 0.2500-0.5000 (  5152 PWs)   bands (ev):

   -64.8293 -64.8288 -64.8258 -64.8252 -31.6178 -31.6177 -31.6101 -31.6101
   -31.6065 -31.6063 -31.5852 -31.5849 -31.5838 -31.5837 -31.5754 -31.5753
    -8.5094  -8.5093  -7.9465  -7.9465   4.4187   4.4187   4.7512   4.7514
     5.0965   5.0966   6.5480   6.5483   6.5757   6.5757   7.0952   7.0953

          k = 0.0000-0.5000 0.0000 (  5112 PWs)   bands (ev):

   -64.8300 -64.8295 -64.8251 -64.8245 -31.6104 -31.6099 -31.6095 -31.6093
   -31.6019 -31.6017 -31.5911 -31.5909 -31.5805 -31.5802 -31.5801 -31.5799
    -8.6456  -8.6456  -7.8563  -7.8560   4.8471   4.8481   4.8482   4.8482
     5.1231   5.1235   5.9736   5.9748   6.9685   6.9688   6.9688   6.9689

          k = 0.0000-0.5000 0.2500 (  5152 PWs)   bands (ev):

   -64.8292 -64.8288 -64.8258 -64.8252 -31.6175 -31.6172 -31.6103 -31.6102
   -31.6068 -31.6065 -31.5851 -31.5849 -31.5839 -31.5838 -31.5754 -31.5752
    -8.5093  -8.5092  -7.9467  -7.9465   4.4184   4.4186   4.7514   4.7517
     5.0965   5.0968   6.5480   6.5486   6.5761   6.5762   7.0943   7.0946

          k = 0.0000-0.5000-0.5000 (  5188 PWs)   bands (ev):

   -64.8275 -64.8275 -64.8275 -64.8265 -31.6193 -31.6191 -31.6190 -31.6190
   -31.5970 -31.5967 -31.5967 -31.5965 -31.5762 -31.5760 -31.5759 -31.5759
    -8.2052  -8.2050  -8.2050  -8.2049   4.2934   4.2935   4.2936   4.2937
     5.7678   5.7678   5.7682   5.7682   7.0636   7.0637   7.0639   7.0641

          k = 0.2500 0.0016 0.0000 (  5165 PWs)   bands (ev):

   -64.8332 -64.8263 -64.8251 -64.8245 -31.6250 -31.6244 -31.6212 -31.5991
   -31.5983 -31.5935 -31.5933 -31.5891 -31.5889 -31.5790 -31.5715 -31.5711
    -9.1560  -8.1282  -7.8850  -7.8848   4.0486   4.0487   4.0955   5.8552
     5.8584   6.1708   6.1739   6.5431   6.5434   6.6587   7.4504   7.4511

          k = 0.2500 0.0016 0.2500 (  5159 PWs)   bands (ev):

   -64.8320 -64.8263 -64.8259 -64.8249 -31.6213 -31.6210 -31.6197 -31.6072
   -31.5945 -31.5938 -31.5931 -31.5876 -31.5866 -31.5863 -31.5758 -31.5687
    -8.9658  -8.0670  -8.0601  -7.8898   4.1557   4.1675   4.3290   5.0715
     5.8472   6.0465   6.0638   6.4819   6.4901   6.5839   7.1734   7.5061

          k = 0.2500 0.0016-0.5000 (  5152 PWs)   bands (ev):

   -64.8293 -64.8288 -64.8258 -64.8252 -31.6178 -31.6177 -31.6101 -31.6101
   -31.6065 -31.6063 -31.5852 -31.5849 -31.5838 -31.5838 -31.5754 -31.5753
    -8.5094  -8.5093  -7.9465  -7.9464   4.4184   4.4185   4.7514   4.7516
     5.0965   5.0966   6.5481   6.5483   6.5757   6.5758   7.0951   7.0952

          k = 0.2500 0.2516 0.0000 (  5155 PWs)   bands (ev):

   -64.8319 -64.8264 -64.8260 -64.8248 -31.6196 -31.6194 -31.6193 -31.6095
   -31.5943 -31.5943 -31.5941 -31.5877 -31.5875 -31.5863 -31.5754 -31.5672
    -8.9625  -8.0676  -8.0675  -7.8861   4.1632   4.1634   4.3323   5.0914
     5.8587   6.0504   6.0508   6.4920   6.4922   6.5506   7.1798   7.4829

          k = 0.2500 0.2516 0.2500 (  5156 PWs)   bands (ev):

   -64.8309 -64.8264 -64.8263 -64.8255 -31.6258 -31.6236 -31.6235 -31.6069
   -31.5957 -31.5954 -31.5949 -31.5837 -31.5836 -31.5826 -31.5719 -31.5700
    -8.7926  -8.0351  -8.0343  -8.0260   3.9966   3.9976   4.0138   5.1034
     5.8439   5.8500   5.8620   6.6736   6.7090   6.7092   7.3309   7.3587

          k = 0.2500 0.2516-0.5000 (  5148 PWs)   bands (ev):

   -64.8287 -64.8283 -64.8264 -64.8257 -31.6268 -31.6267 -31.6222 -31.6221
   -31.5955 -31.5952 -31.5802 -31.5801 -31.5789 -31.5789 -31.5762 -31.5759
    -8.3955  -8.3954  -8.0007  -8.0007   3.8150   3.8151   4.2132   4.2133
     5.8392   5.8393   6.7435   6.7438   6.8727   6.8729   6.9878   6.9878

          k = 0.2500-0.4984 0.0000 (  5148 PWs)   bands (ev):

   -64.8292 -64.8288 -64.8258 -64.8252 -31.6196 -31.6148 -31.6123 -31.6081
   -31.6069 -31.6066 -31.5852 -31.5851 -31.5848 -31.5822 -31.5766 -31.5738
    -8.5144  -8.5041  -7.9522  -7.9409   4.4116   4.4256   4.7485   4.7545
     5.0907   5.1023   6.5261   6.5680   6.5711   6.5842   7.0778   7.1115

          k = 0.2500-0.4984 0.2500 (  5137 PWs)   bands (ev):

   -64.8287 -64.8283 -64.8263 -64.8257 -31.6296 -31.6269 -31.6229 -31.6192
   -31.5933 -31.5928 -31.5817 -31.5799 -31.5792 -31.5782 -31.5770 -31.5758
    -8.4039  -8.3936  -8.0023  -7.9914   3.8104   3.8329   4.1898   4.2066
     5.8252   5.8356   6.7246   6.7571   6.8574   6.8798   7.0120   7.0221

          k = 0.2500-0.4984-0.5000 (  5144 PWs)   bands (ev):

   -64.8276 -64.8275 -64.8274 -64.8265 -31.6333 -31.6331 -31.6302 -31.6300
   -31.5841 -31.5839 -31.5824 -31.5823 -31.5755 -31.5753 -31.5749 -31.5749
    -8.1728  -8.1727  -8.1623  -8.1622   3.6286   3.6287   3.6524   3.6525
     6.5075   6.5076   6.5418   6.5418   7.0597   7.0599   7.0699   7.0701

          k = 0.2500-0.2484 0.0000 (  5159 PWs)   bands (ev):

   -64.8320 -64.8263 -64.8259 -64.8249 -31.6227 -31.6225 -31.6197 -31.6059
   -31.5942 -31.5941 -31.5908 -31.5887 -31.5855 -31.5853 -31.5756 -31.5704
    -8.9691  -8.0595  -8.0594  -7.8939   4.1600   4.1602   4.3254   5.0515
     5.8362   6.0609   6.0613   6.4781   6.4783   6.6175   7.1672   7.5288

          k = 0.2500-0.2484 0.2500 (  5146 PWs)   bands (ev):

   -64.8310 -64.8263 -64.8263 -64.8255 -31.6268 -31.6266 -31.6244 -31.6049
   -31.5924 -31.5920 -31.5917 -31.5854 -31.5839 -31.5839 -31.5729 -31.5707
    -8.7993  -8.0349  -8.0263  -8.0256   3.9875   4.0038   4.0047   5.0755
     5.8302   5.8422   5.8482   6.7024   6.7026   6.7383   7.3524   7.3806

          k = 0.2500-0.2484-0.5000 (  5124 PWs)   bands (ev):

   -64.8288 -64.8284 -64.8263 -64.8256 -31.6298 -31.6297 -31.6200 -31.6199
   -31.5907 -31.5904 -31.5814 -31.5813 -31.5790 -31.5788 -31.5764 -31.5763
    -8.4023  -8.4022  -7.9929  -7.9928   3.8281   3.8281   4.1832   4.1834
     5.8219   5.8220   6.7373   6.7375   6.8654   6.8655   7.0454   7.0454

          k =-0.5000-0.0032 0.0000 (  5112 PWs)   bands (ev):

   -64.8299 -64.8295 -64.8251 -64.8245 -31.6103 -31.6101 -31.6095 -31.6093
   -31.6018 -31.6018 -31.5910 -31.5910 -31.5805 -31.5803 -31.5801 -31.5799
    -8.6457  -8.6455  -7.8562  -7.8561   4.8477   4.8480   4.8481   4.8484
     5.1231   5.1234   5.9737   5.9740   6.9686   6.9688   6.9688   6.9690

          k =-0.5000-0.0032 0.2500 (  5152 PWs)   bands (ev):

   -64.8292 -64.8288 -64.8258 -64.8252 -31.6174 -31.6173 -31.6103 -31.6102
   -31.6067 -31.6066 -31.5851 -31.5849 -31.5839 -31.5839 -31.5753 -31.5752
    -8.5094  -8.5092  -7.9466  -7.9465   4.4183   4.4185   4.7515   4.7517
     5.0965   5.0969   6.5480   6.5482   6.5762   6.5765   7.0943   7.0944

          k =-0.5000-0.0032-0.5000 (  5188 PWs)   bands (ev):

   -64.8276 -64.8275 -64.8274 -64.8265 -31.6193 -31.6192 -31.6190 -31.6190
   -31.5973 -31.5971 -31.5964 -31.5961 -31.5763 -31.5762 -31.5757 -31.5757
    -8.2098  -8.2096  -8.2004  -8.2003   4.2848   4.2849   4.3020   4.3022
     5.7567   5.7571   5.7792   5.7795   7.0589   7.0590   7.0685   7.0687

          k =-0.5000 0.2468 0.0000 (  5148 PWs)   bands (ev):

   -64.8292 -64.8288 -64.8258 -64.8252 -31.6197 -31.6148 -31.6123 -31.6080
   -31.6068 -31.6067 -31.5852 -31.5851 -31.5849 -31.5822 -31.5766 -31.5738
    -8.5144  -8.5041  -7.9522  -7.9409   4.4116   4.4256   4.7484   4.7544
     5.0907   5.1023   6.5259   6.5680   6.5709   6.5842   7.0779   7.1116

          k =-0.5000 0.2468 0.2500 (  5137 PWs)   bands (ev):

   -64.8287 -64.8283 -64.8263 -64.8257 -31.6296 -31.6269 -31.6229 -31.6192
   -31.5933 -31.5928 -31.5817 -31.5799 -31.5792 -31.5783 -31.5770 -31.5758
    -8.4039  -8.3937  -8.0023  -7.9913   3.8104   3.8328   4.1898   4.2067
     5.8253   5.8356   6.7244   6.7570   6.8575   6.8799   7.0120   7.0221

          k =-0.5000 0.2468-0.5000 (  5144 PWs)   bands (ev):

   -64.8276 -64.8275 -64.8274 -64.8265 -31.6333 -31.6332 -31.6302 -31.6300
   -31.5842 -31.5839 -31.5824 -31.5822 -31.5755 -31.5754 -31.5749 -31.5748
    -8.1738  -8.1736  -8.1613  -8.1613   3.6270   3.6271   3.6540   3.6541
     6.5057   6.5058   6.5436   6.5438   7.0586   7.0588   7.0708   7.0710

          k =-0.5000-0.5032 0.0000 (  5180 PWs)   bands (ev):

   -64.8276 -64.8275 -64.8274 -64.8265 -31.6215 -31.6213 -31.6163 -31.6161
   -31.5971 -31.5970 -31.5968 -31.5966 -31.5768 -31.5765 -31.5750 -31.5747
    -8.2127  -8.2126  -8.1974  -8.1973   4.2891   4.2893   4.2978   4.2980
     5.7581   5.7586   5.7770   5.7774   7.0380   7.0381   7.0902   7.0903

          k =-0.5000-0.5032 0.2500 (  5138 PWs)   bands (ev):

   -64.8276 -64.8275 -64.8274 -64.8265 -31.6332 -31.6330 -31.6302 -31.6301
   -31.5835 -31.5835 -31.5822 -31.5822 -31.5769 -31.5766 -31.5737 -31.5734
    -8.1751  -8.1750  -8.1600  -8.1598   3.6307   3.6308   3.6501   3.6503
     6.5217   6.5221   6.5272   6.5276   7.0392   7.0392   7.0909   7.0909

          k =-0.5000-0.5032-0.5000 (  5136 PWs)   bands (ev):

   -64.8276 -64.8275 -64.8274 -64.8265 -31.6398 -31.6395 -31.6395 -31.6394
   -31.5761 -31.5758 -31.5753 -31.5752 -31.5747 -31.5747 -31.5741 -31.5739
    -8.1370  -8.1369  -8.1219  -8.1218   3.2056   3.2057   3.2298   3.2298
     7.0399   7.0399   7.0646   7.0649   7.0661   7.0664   7.0919   7.0919

          k = 0.0000-0.2500 0.2500 (  5159 PWs)   bands (ev):

   -64.8320 -64.8263 -64.8259 -64.8249 -31.6213 -31.6210 -31.6197 -31.6072
   -31.5943 -31.5940 -31.5931 -31.5876 -31.5865 -31.5863 -31.5758 -31.5687
    -8.9658  -8.0637  -8.0635  -7.8898   4.1613   4.1619   4.3290   5.0715
     5.8472   6.0544   6.0558   6.4852   6.4870   6.5839   7.1732   7.5061

          k =-0.2500-0.0016 0.2500 (  5159 PWs)   bands (ev):

   -64.8320 -64.8263 -64.8259 -64.8249 -31.6213 -31.6210 -31.6197 -31.6072
   -31.5945 -31.5938 -31.5931 -31.5876 -31.5866 -31.5863 -31.5758 -31.5687
    -8.9658  -8.0670  -8.0601  -7.8898   4.1557   4.1675   4.3290   5.0715
     5.8472   6.0465   6.0638   6.4819   6.4901   6.5839   7.1734   7.5061

          k =-0.2500-0.2516 0.2500 (  5156 PWs)   bands (ev):

   -64.8309 -64.8264 -64.8263 -64.8255 -31.6258 -31.6236 -31.6235 -31.6069
   -31.5957 -31.5954 -31.5949 -31.5837 -31.5836 -31.5826 -31.5719 -31.5700
    -8.7926  -8.0351  -8.0343  -8.0260   3.9966   3.9976   4.0138   5.1034
     5.8439   5.8500   5.8620   6.6736   6.7090   6.7092   7.3309   7.3587

          k =-0.2500 0.4984 0.2500 (  5137 PWs)   bands (ev):

   -64.8287 -64.8283 -64.8263 -64.8257 -31.6296 -31.6269 -31.6229 -31.6192
   -31.5933 -31.5928 -31.5817 -31.5799 -31.5792 -31.5782 -31.5770 -31.5758
    -8.4039  -8.3936  -8.0023  -7.9914   3.8104   3.8329   4.1898   4.2066
     5.8252   5.8356   6.7246   6.7571   6.8574   6.8798   7.0120   7.0221

          k =-0.2500 0.2484 0.2500 (  5146 PWs)   bands (ev):

   -64.8310 -64.8263 -64.8263 -64.8255 -31.6268 -31.6266 -31.6244 -31.6049
   -31.5924 -31.5920 -31.5917 -31.5854 -31.5839 -31.5839 -31.5729 -31.5707
    -8.7993  -8.0349  -8.0263  -8.0256   3.9875   4.0038   4.0047   5.0755
     5.8302   5.8422   5.8482   6.7024   6.7026   6.7383   7.3524   7.3806

          k = 0.5000-0.2468 0.2500 (  5137 PWs)   bands (ev):

   -64.8287 -64.8283 -64.8263 -64.8257 -31.6296 -31.6269 -31.6229 -31.6192
   -31.5933 -31.5928 -31.5817 -31.5799 -31.5792 -31.5783 -31.5770 -31.5758
    -8.4039  -8.3937  -8.0023  -7.9913   3.8104   3.8328   4.1898   4.2067
     5.8253   5.8356   6.7244   6.7570   6.8575   6.8799   7.0120   7.0221

     highest occupied level (ev):     7.6961

!    total energy              =    -608.39270569 Ry
     Harris-Foulkes estimate   =    -608.39270569 Ry
     estimated scf accuracy    <          6.8E-11 Ry

     The total energy is the sum of the following terms:

     one-electron contribution =    -303.55394336 Ry
     hartree contribution      =     168.06648280 Ry
     xc contribution           =     -97.84638143 Ry
     ewald contribution        =    -375.05886370 Ry

     convergence has been achieved in   5 iterations

     Forces acting on atoms (cartesian axes, Ry/au):

     atom    1 type  1   force =     0.00110914    0.00001436   -0.00000279
     atom    2 type  1   force =    -0.00120968   -0.00001668    0.00000291
     atom    3 type  1   force =     0.00118412    0.00001516    0.00000283
     atom    4 type  1   force =    -0.00108085   -0.00001390   -0.00000292
     atom    5 type  2   force =     0.00128600    0.00000666   -0.00000233
     atom    6 type  2   force =    -0.00129981   -0.00000617   -0.00000231
     atom    7 type  2   force =     0.00126570    0.00000659    0.00000232
     atom    8 type  2   force =    -0.00125462   -0.00000604    0.00000229

     Total force =     0.003433     Total SCF correction =     0.000022


     Computing stress (Cartesian axis) and pressure

          total   stress  (Ry/bohr**3)                   (kbar)     P=  -68.07
  -0.00046332   0.00006217  -0.00000000        -68.16      9.15     -0.00
   0.00006217  -0.00046230  -0.00000000          9.15    -68.01     -0.00
  -0.00000000  -0.00000000  -0.00046260         -0.00     -0.00    -68.05


     number of scf cycles    =   3
     number of bfgs steps    =   2

     energy   old            =    -608.3926847851 Ry
     energy   new            =    -608.3927056891 Ry

     CASE: energy  _new < energy  _old

     new trust radius        =       0.0032910227 bohr
     new conv_thr            =       0.0000000002 Ry


ATOMIC_POSITIONS (alat)
Mg       0.000748254   0.000016556  -0.000002166
Mg      -0.000807125   0.499982198   0.500002153
Mg       0.500770632   0.000016816   0.500002177
Mg       0.499304322   0.499984507  -0.000002253
O        0.500898528   0.000008759  -0.000002409
O       -0.000929698   0.499990958  -0.000002439
O        0.000890006   0.000008763   0.500002464
O        0.499125082   0.499991444   0.500002473



     Writing output data file diamond..70.4.save
     NEW-OLD atomic charge density approx. for the potential

     Check: negative/imaginary core charge=   -0.000007    0.000000

     total cpu time spent up to now is       26.4 secs

     per-process dynamical memory:    52.8 Mb

     Self-consistent Calculation

     iteration #  1     ecut=    70.00 Ry     beta=0.70
     Davidson diagonalization with overlap
     ethr =  1.00E-06,  avg # of iterations =  3.0

     Threshold (ethr) on eigenvalues was too large:
     Diagonalizing with lowered threshold

     Davidson diagonalization with overlap
     ethr =  6.49E-09,  avg # of iterations =  2.3

     total cpu time spent up to now is       29.2 secs

     total energy              =    -608.39272930 Ry
     Harris-Foulkes estimate   =    -608.39273167 Ry
     estimated scf accuracy    <       0.00000424 Ry

     iteration #  2     ecut=    70.00 Ry     beta=0.70
     Davidson diagonalization with overlap
     ethr =  6.63E-09,  avg # of iterations =  2.0

     total cpu time spent up to now is       30.4 secs

     total energy              =    -608.39273002 Ry
     Harris-Foulkes estimate   =    -608.39273004 Ry
     estimated scf accuracy    <       0.00000011 Ry

     iteration #  3     ecut=    70.00 Ry     beta=0.70
     Davidson diagonalization with overlap
     ethr =  1.64E-10,  avg # of iterations =  2.0

     total cpu time spent up to now is       31.6 secs

     total energy              =    -608.39273003 Ry
     Harris-Foulkes estimate   =    -608.39273003 Ry
     estimated scf accuracy    <          6.7E-09 Ry

     iteration #  4     ecut=    70.00 Ry     beta=0.70
     Davidson diagonalization with overlap
     ethr =  1.04E-11,  avg # of iterations =  2.0

     total cpu time spent up to now is       32.8 secs

     total energy              =    -608.39273003 Ry
     Harris-Foulkes estimate   =    -608.39273003 Ry
     estimated scf accuracy    <          4.2E-10 Ry

     iteration #  5     ecut=    70.00 Ry     beta=0.70
     Davidson diagonalization with overlap
     ethr =  6.54E-13,  avg # of iterations =  3.0

     total cpu time spent up to now is       34.1 secs

     End of self-consistent calculation

          k = 0.0000 0.0000 0.0000 (  5153 PWs)   bands (ev):

   -64.8346 -64.8251 -64.8251 -64.8243 -31.6312 -31.6312 -31.6310 -31.5949
   -31.5935 -31.5934 -31.5932 -31.5932 -31.5919 -31.5658 -31.5639 -31.5639
    -9.3645  -7.9136  -7.9134  -7.9133   3.7582   3.7584   3.7584   6.3430
     6.3802   6.3802   6.3802   6.3806   6.4179   7.6492   7.6725   7.6960

          k = 0.0000 0.0000 0.2500 (  5157 PWs)   bands (ev):

   -64.8331 -64.8263 -64.8251 -64.8245 -31.6248 -31.6247 -31.6204 -31.5980
   -31.5979 -31.5941 -31.5940 -31.5901 -31.5872 -31.5782 -31.5732 -31.5697
    -9.1560  -8.1284  -7.8849  -7.8849   4.0486   4.0489   4.0958   5.8582
     5.8583   6.1708   6.1711   6.5075   6.5795   6.6590   7.4246   7.4767

          k = 0.0000 0.0000-0.5000 (  5126 PWs)   bands (ev):

   -64.8299 -64.8295 -64.8251 -64.8245 -31.6127 -31.6124 -31.6077 -31.6075
   -31.6020 -31.6019 -31.5910 -31.5909 -31.5823 -31.5820 -31.5789 -31.5787
    -8.6458  -8.6457  -7.8561  -7.8561   4.8435   4.8435   4.8521   4.8522
     5.1228   5.1231   5.9737   5.9740   6.9372   6.9372   7.0002   7.0003

          k = 0.0000 0.2500 0.0000 (  5165 PWs)   bands (ev):

   -64.8331 -64.8263 -64.8251 -64.8245 -31.6249 -31.6244 -31.6211 -31.5990
   -31.5983 -31.5935 -31.5933 -31.5891 -31.5889 -31.5790 -31.5715 -31.5711
    -9.1560  -8.1282  -7.8851  -7.8849   4.0486   4.0487   4.0954   5.8549
     5.8583   6.1708   6.1743   6.5430   6.5432   6.6587   7.4504   7.4509

          k = 0.0000 0.2500 0.2500 (  5159 PWs)   bands (ev):

   -64.8319 -64.8263 -64.8259 -64.8248 -31.6212 -31.6210 -31.6196 -31.6071
   -31.5943 -31.5939 -31.5930 -31.5876 -31.5865 -31.5863 -31.5757 -31.5686
    -8.9659  -8.0637  -8.0635  -7.8899   4.1613   4.1618   4.3290   5.0715
     5.8471   6.0544   6.0557   6.4852   6.4869   6.5838   7.1732   7.5061

          k = 0.0000 0.2500-0.5000 (  5152 PWs)   bands (ev):

   -64.8292 -64.8288 -64.8258 -64.8252 -31.6178 -31.6176 -31.6101 -31.6101
   -31.6065 -31.6062 -31.5851 -31.5849 -31.5838 -31.5837 -31.5754 -31.5752
    -8.5094  -8.5094  -7.9466  -7.9465   4.4186   4.4187   4.7512   4.7514
     5.0965   5.0965   6.5480   6.5483   6.5756   6.5756   7.0951   7.0952

          k = 0.0000-0.5000 0.0000 (  5112 PWs)   bands (ev):

   -64.8299 -64.8295 -64.8251 -64.8245 -31.6103 -31.6099 -31.6095 -31.6093
   -31.6018 -31.6017 -31.5910 -31.5909 -31.5804 -31.5802 -31.5801 -31.5798
    -8.6457  -8.6456  -7.8563  -7.8561   4.8473   4.8480   4.8482   4.8482
     5.1230   5.1234   5.9736   5.9744   6.9685   6.9687   6.9688   6.9689

          k = 0.0000-0.5000 0.2500 (  5152 PWs)   bands (ev):

   -64.8292 -64.8288 -64.8258 -64.8252 -31.6174 -31.6172 -31.6103 -31.6102
   -31.6067 -31.6065 -31.5851 -31.5848 -31.5839 -31.5838 -31.5753 -31.5752
    -8.5094  -8.5093  -7.9467  -7.9466   4.4184   4.4186   4.7513   4.7516
     5.0965   5.0969   6.5480   6.5484   6.5761   6.5762   7.0942   7.0945

          k = 0.0000-0.5000-0.5000 (  5188 PWs)   bands (ev):

   -64.8275 -64.8275 -64.8275 -64.8265 -31.6193 -31.6191 -31.6190 -31.6190
   -31.5969 -31.5967 -31.5967 -31.5964 -31.5761 -31.5759 -31.5758 -31.5758
    -8.2052  -8.2051  -8.2050  -8.2050   4.2934   4.2935   4.2935   4.2936
     5.7678   5.7678   5.7682   5.7682   7.0636   7.0637   7.0638   7.0639

          k = 0.2500 0.0016 0.0000 (  5165 PWs)   bands (ev):

   -64.8331 -64.8263 -64.8251 -64.8245 -31.6249 -31.6244 -31.6211 -31.5990
   -31.5983 -31.5935 -31.5933 -31.5891 -31.5889 -31.5790 -31.5715 -31.5711
    -9.1560  -8.1283  -7.8851  -7.8849   4.0486   4.0487   4.0954   5.8552
     5.8584   6.1708   6.1740   6.5430   6.5433   6.6587   7.4504   7.4510

          k = 0.2500 0.0016 0.2500 (  5159 PWs)   bands (ev):

   -64.8319 -64.8263 -64.8259 -64.8248 -31.6212 -31.6210 -31.6196 -31.6071
   -31.5944 -31.5938 -31.5931 -31.5876 -31.5865 -31.5862 -31.5757 -31.5686
    -8.9659  -8.0658  -8.0614  -7.8899   4.1579   4.1652   4.3290   5.0715
     5.8471   6.0496   6.0605   6.4832   6.4887   6.5838   7.1732   7.5060

          k = 0.2500 0.0016-0.5000 (  5152 PWs)   bands (ev):

   -64.8292 -64.8288 -64.8258 -64.8252 -31.6178 -31.6176 -31.6101 -31.6101
   -31.6065 -31.6062 -31.5851 -31.5849 -31.5837 -31.5837 -31.5754 -31.5752
    -8.5094  -8.5094  -7.9466  -7.9465   4.4185   4.4186   4.7512   4.7514
     5.0965   5.0965   6.5480   6.5483   6.5756   6.5756   7.0950   7.0951

          k = 0.2500 0.2516 0.0000 (  5155 PWs)   bands (ev):

   -64.8319 -64.8263 -64.8259 -64.8248 -31.6195 -31.6194 -31.6192 -31.6095
   -31.5943 -31.5942 -31.5940 -31.5877 -31.5875 -31.5863 -31.5754 -31.5672
    -8.9625  -8.0676  -8.0675  -7.8861   4.1632   4.1634   4.3323   5.0914
     5.8586   6.0503   6.0508   6.4920   6.4921   6.5505   7.1798   7.4828

          k = 0.2500 0.2516 0.2500 (  5156 PWs)   bands (ev):

   -64.8309 -64.8263 -64.8262 -64.8255 -31.6258 -31.6236 -31.6234 -31.6069
   -31.5956 -31.5954 -31.5949 -31.5836 -31.5836 -31.5825 -31.5718 -31.5699
    -8.7927  -8.0347  -8.0344  -8.0265   3.9971   3.9976   4.0132   5.1034
     5.8468   5.8500   5.8590   6.6736   6.7090   6.7091   7.3309   7.3586

          k = 0.2500 0.2516-0.5000 (  5148 PWs)   bands (ev):

   -64.8286 -64.8282 -64.8263 -64.8257 -31.6268 -31.6266 -31.6221 -31.6220
   -31.5955 -31.5952 -31.5801 -31.5801 -31.5789 -31.5788 -31.5762 -31.5759
    -8.3955  -8.3954  -8.0008  -8.0007   3.8150   3.8151   4.2131   4.2133
     5.8392   5.8392   6.7435   6.7437   6.8726   6.8728   6.9877   6.9878

          k = 0.2500-0.4984 0.0000 (  5148 PWs)   bands (ev):

   -64.8292 -64.8288 -64.8258 -64.8252 -31.6196 -31.6148 -31.6122 -31.6080
   -31.6068 -31.6066 -31.5851 -31.5850 -31.5848 -31.5821 -31.5766 -31.5737
    -8.5145  -8.5041  -7.9523  -7.9410   4.4116   4.4256   4.7484   4.7544
     5.0907   5.1022   6.5259   6.5680   6.5709   6.5842   7.0777   7.1115

          k = 0.2500-0.4984 0.2500 (  5137 PWs)   bands (ev):

   -64.8287 -64.8283 -64.8263 -64.8256 -31.6295 -31.6269 -31.6228 -31.6192
   -31.5932 -31.5928 -31.5816 -31.5798 -31.5792 -31.5782 -31.5770 -31.5757
    -8.4039  -8.3937  -8.0024  -7.9914   3.8104   3.8329   4.1897   4.2066
     5.8252   5.8356   6.7244   6.7570   6.8574   6.8798   7.0120   7.0220

          k = 0.2500-0.4984-0.5000 (  5144 PWs)   bands (ev):

   -64.8275 -64.8275 -64.8274 -64.8264 -31.6333 -31.6331 -31.6301 -31.6300
   -31.5841 -31.5839 -31.5824 -31.5822 -31.5754 -31.5753 -31.5749 -31.5748
    -8.1728  -8.1727  -8.1624  -8.1623   3.6286   3.6287   3.6524   3.6525
     6.5075   6.5075   6.5417   6.5418   7.0596   7.0598   7.0698   7.0700

          k = 0.2500-0.2484 0.0000 (  5159 PWs)   bands (ev):

   -64.8320 -64.8262 -64.8259 -64.8249 -31.6227 -31.6225 -31.6197 -31.6058
   -31.5942 -31.5941 -31.5907 -31.5887 -31.5854 -31.5852 -31.5755 -31.5704
    -8.9691  -8.0596  -8.0594  -7.8939   4.1600   4.1602   4.3254   5.0515
     5.8362   6.0609   6.0613   6.4781   6.4782   6.6174   7.1672   7.5288

          k = 0.2500-0.2484 0.2500 (  5146 PWs)   bands (ev):

   -64.8310 -64.8263 -64.8262 -64.8254 -31.6267 -31.6266 -31.6244 -31.6049
   -31.5923 -31.5920 -31.5917 -31.5853 -31.5839 -31.5838 -31.5729 -31.5706
    -8.7993  -8.0345  -8.0264  -8.0261   3.9880   4.0037   4.0041   5.0754
     5.8330   5.8421   5.8453   6.7024   6.7025   6.7382   7.3524   7.3805

          k = 0.2500-0.2484-0.5000 (  5124 PWs)   bands (ev):

   -64.8287 -64.8283 -64.8262 -64.8256 -31.6298 -31.6296 -31.6199 -31.6198
   -31.5906 -31.5904 -31.5813 -31.5813 -31.5790 -31.5787 -31.5764 -31.5763
    -8.4023  -8.4023  -7.9929  -7.9929   3.8281   3.8282   4.1831   4.1833
     5.8219   5.8219   6.7372   6.7375   6.8653   6.8654   7.0454   7.0454

          k =-0.5000-0.0032 0.0000 (  5112 PWs)   bands (ev):

   -64.8299 -64.8295 -64.8250 -64.8245 -31.6102 -31.6100 -31.6095 -31.6093
   -31.6018 -31.6017 -31.5910 -31.5909 -31.5804 -31.5802 -31.5800 -31.5799
    -8.6459  -8.6454  -7.8562  -7.8562   4.8475   4.8478   4.8482   4.8485
     5.1230   5.1234   5.9737   5.9740   6.9685   6.9686   6.9689   6.9690

          k =-0.5000-0.0032 0.2500 (  5152 PWs)   bands (ev):

   -64.8292 -64.8288 -64.8258 -64.8252 -31.6174 -31.6172 -31.6102 -31.6102
   -31.6067 -31.6065 -31.5850 -31.5849 -31.5839 -31.5838 -31.5753 -31.5752
    -8.5095  -8.5091  -7.9467  -7.9466   4.4183   4.4186   4.7513   4.7516
     5.0964   5.0970   6.5479   6.5482   6.5760   6.5764   7.0943   7.0944

          k =-0.5000-0.0032-0.5000 (  5188 PWs)   bands (ev):

   -64.8275 -64.8275 -64.8274 -64.8265 -31.6193 -31.6191 -31.6189 -31.6189
   -31.5972 -31.5969 -31.5965 -31.5962 -31.5762 -31.5761 -31.5757 -31.5757
    -8.2082  -8.2079  -8.2022  -8.2020   4.2881   4.2881   4.2987   4.2989
     5.7607   5.7613   5.7748   5.7754   7.0606   7.0606   7.0666   7.0670

          k =-0.5000 0.2468 0.0000 (  5148 PWs)   bands (ev):

   -64.8292 -64.8288 -64.8258 -64.8252 -31.6196 -31.6148 -31.6122 -31.6080
   -31.6068 -31.6066 -31.5851 -31.5850 -31.5848 -31.5821 -31.5766 -31.5737
    -8.5145  -8.5041  -7.9523  -7.9410   4.4116   4.4256   4.7484   4.7544
     5.0907   5.1023   6.5259   6.5680   6.5709   6.5842   7.0778   7.1115

          k =-0.5000 0.2468 0.2500 (  5137 PWs)   bands (ev):

   -64.8287 -64.8283 -64.8263 -64.8256 -31.6295 -31.6269 -31.6228 -31.6192
   -31.5932 -31.5928 -31.5816 -31.5798 -31.5792 -31.5782 -31.5770 -31.5757
    -8.4040  -8.3937  -8.0024  -7.9914   3.8104   3.8328   4.1897   4.2066
     5.8252   5.8356   6.7244   6.7569   6.8574   6.8798   7.0120   7.0220

          k =-0.5000 0.2468-0.5000 (  5144 PWs)   bands (ev):

   -64.8276 -64.8275 -64.8274 -64.8264 -31.6333 -31.6331 -31.6301 -31.6300
   -31.5841 -31.5839 -31.5824 -31.5822 -31.5754 -31.5753 -31.5749 -31.5748
    -8.1732  -8.1731  -8.1619  -8.1619   3.6279   3.6280   3.6530   3.6531
     6.5068   6.5068   6.5425   6.5426   7.0592   7.0593   7.0702   7.0704

          k =-0.5000-0.5032 0.0000 (  5180 PWs)   bands (ev):

   -64.8276 -64.8275 -64.8274 -64.8264 -31.6215 -31.6212 -31.6163 -31.6160
   -31.5970 -31.5969 -31.5968 -31.5966 -31.5767 -31.5765 -31.5749 -31.5747
    -8.2128  -8.2126  -8.1974  -8.1973   4.2890   4.2893   4.2977   4.2980
     5.7581   5.7585   5.7769   5.7774   7.0379   7.0380   7.0901   7.0902

          k =-0.5000-0.5032 0.2500 (  5138 PWs)   bands (ev):

   -64.8276 -64.8275 -64.8274 -64.8264 -31.6332 -31.6330 -31.6302 -31.6300
   -31.5835 -31.5835 -31.5822 -31.5822 -31.5769 -31.5766 -31.5736 -31.5734
    -8.1752  -8.1751  -8.1600  -8.1599   3.6306   3.6308   3.6501   3.6503
     6.5217   6.5221   6.5272   6.5276   7.0391   7.0392   7.0908   7.0908

          k =-0.5000-0.5032-0.5000 (  5136 PWs)   bands (ev):

   -64.8276 -64.8275 -64.8274 -64.8264 -31.6397 -31.6395 -31.6394 -31.6394
   -31.5761 -31.5758 -31.5753 -31.5752 -31.5746 -31.5746 -31.5741 -31.5738
    -8.1370  -8.1370  -8.1219  -8.1219   3.2056   3.2057   3.2297   3.2298
     7.0398   7.0398   7.0646   7.0648   7.0661   7.0663   7.0918   7.0918

          k = 0.0000-0.2500 0.2500 (  5159 PWs)   bands (ev):

   -64.8319 -64.8263 -64.8259 -64.8248 -31.6212 -31.6210 -31.6196 -31.6071
   -31.5943 -31.5939 -31.5930 -31.5876 -31.5865 -31.5863 -31.5757 -31.5686
    -8.9659  -8.0637  -8.0635  -7.8899   4.1613   4.1618   4.3290   5.0715
     5.8471   6.0544   6.0557   6.4852   6.4869   6.5838   7.1732   7.5061

          k =-0.2500-0.0016 0.2500 (  5159 PWs)   bands (ev):

   -64.8319 -64.8263 -64.8259 -64.8248 -31.6212 -31.6210 -31.6196 -31.6071
   -31.5944 -31.5938 -31.5931 -31.5876 -31.5865 -31.5862 -31.5757 -31.5686
    -8.9659  -8.0658  -8.0614  -7.8899   4.1579   4.1652   4.3290   5.0715
     5.8471   6.0496   6.0605   6.4832   6.4887   6.5838   7.1732   7.5060

          k =-0.2500-0.2516 0.2500 (  5156 PWs)   bands (ev):

   -64.8309 -64.8263 -64.8262 -64.8255 -31.6258 -31.6236 -31.6234 -31.6069
   -31.5956 -31.5954 -31.5949 -31.5836 -31.5836 -31.5825 -31.5718 -31.5699
    -8.7927  -8.0347  -8.0344  -8.0265   3.9971   3.9976   4.0132   5.1034
     5.8468   5.8500   5.8590   6.6736   6.7090   6.7091   7.3309   7.3586

          k =-0.2500 0.4984 0.2500 (  5137 PWs)   bands (ev):

   -64.8287 -64.8283 -64.8263 -64.8256 -31.6295 -31.6269 -31.6228 -31.6192
   -31.5932 -31.5928 -31.5816 -31.5798 -31.5792 -31.5782 -31.5770 -31.5757
    -8.4039  -8.3937  -8.0024  -7.9914   3.8104   3.8329   4.1897   4.2066
     5.8252   5.8356   6.7244   6.7570   6.8574   6.8798   7.0120   7.0220

          k =-0.2500 0.2484 0.2500 (  5146 PWs)   bands (ev):

   -64.8310 -64.8263 -64.8262 -64.8254 -31.6267 -31.6266 -31.6244 -31.6049
   -31.5923 -31.5920 -31.5917 -31.5853 -31.5839 -31.5838 -31.5729 -31.5706
    -8.7993  -8.0345  -8.0264  -8.0261   3.9880   4.0037   4.0041   5.0754
     5.8330   5.8421   5.8453   6.7024   6.7025   6.7382   7.3524   7.3805

          k = 0.5000-0.2468 0.2500 (  5137 PWs)   bands (ev):

   -64.8287 -64.8283 -64.8263 -64.8256 -31.6295 -31.6269 -31.6228 -31.6192
   -31.5932 -31.5928 -31.5816 -31.5798 -31.5792 -31.5782 -31.5770 -31.5757
    -8.4040  -8.3937  -8.0024  -7.9914   3.8104   3.8328   4.1897   4.2066
     5.8252   5.8356   6.7244   6.7569   6.8574   6.8798   7.0120   7.0220

     highest occupied level (ev):     7.6960

!    total energy              =    -608.39273003 Ry
     Harris-Foulkes estimate   =    -608.39273003 Ry
     estimated scf accuracy    <          9.6E-11 Ry

     The total energy is the sum of the following terms:

     one-electron contribution =    -303.55439895 Ry
     hartree contribution      =     168.06674917 Ry
     xc contribution           =     -97.84641106 Ry
     ewald contribution        =    -375.05866919 Ry

     convergence has been achieved in   5 iterations

     Forces acting on atoms (cartesian axes, Ry/au):

     atom    1 type  1   force =     0.00076002   -0.00000853   -0.00000043
     atom    2 type  1   force =    -0.00083219    0.00000717    0.00000064
     atom    3 type  1   force =     0.00086901   -0.00000772    0.00000061
     atom    4 type  1   force =    -0.00082521    0.00000748   -0.00000065
     atom    5 type  2   force =     0.00080779   -0.00000265   -0.00000032
     atom    6 type  2   force =    -0.00077196    0.00000386   -0.00000028
     atom    7 type  2   force =     0.00077431   -0.00000283    0.00000020
     atom    8 type  2   force =    -0.00078176    0.00000321    0.00000023

     Total force =     0.002273     Total SCF correction =     0.000021


     Computing stress (Cartesian axis) and pressure

          total   stress  (Ry/bohr**3)                   (kbar)     P=  -68.06
  -0.00046324   0.00006217   0.00000000        -68.14      9.15      0.00
   0.00006217  -0.00046235  -0.00000000          9.15    -68.01     -0.00
   0.00000000  -0.00000000  -0.00046248          0.00     -0.00    -68.03


     number of scf cycles    =   4
     number of bfgs steps    =   3

     energy   old            =    -608.3927056891 Ry
     energy   new            =    -608.3927300329 Ry

     CASE: energy  _new < energy  _old

     new trust radius        =       0.0049365341 bohr
     new conv_thr            =       0.0000000002 Ry


ATOMIC_POSITIONS (alat)
Mg       0.001289185   0.000019946  -0.000003167
Mg      -0.001395782   0.499977825   0.500003226
Mg       0.501357790   0.000020601   0.500003239
Mg       0.498761004   0.499981135  -0.000003356
O        0.501512157   0.000010986  -0.000003385
O       -0.001542393   0.499989071  -0.000003407
O        0.001489343   0.000010928   0.500003417
O        0.498528696   0.499989507   0.500003434



     Writing output data file diamond..70.4.save
     NEW-OLD atomic charge density approx. for the potential

     Check: negative/imaginary core charge=   -0.000007    0.000000

     total cpu time spent up to now is       34.7 secs

     per-process dynamical memory:    52.8 Mb

     Self-consistent Calculation

     iteration #  1     ecut=    70.00 Ry     beta=0.70
     Davidson diagonalization with overlap
     ethr =  1.00E-06,  avg # of iterations =  3.0

     Threshold (ethr) on eigenvalues was too large:
     Diagonalizing with lowered threshold

     Davidson diagonalization with overlap
     ethr =  1.49E-08,  avg # of iterations =  2.0

     total cpu time spent up to now is       37.6 secs

     total energy              =    -608.39274664 Ry
     Harris-Foulkes estimate   =    -608.39275192 Ry
     estimated scf accuracy    <       0.00000954 Ry

     iteration #  2     ecut=    70.00 Ry     beta=0.70
     Davidson diagonalization with overlap
     ethr =  1.49E-08,  avg # of iterations =  2.0

[...]
     new conv_thr            =            1.0E-10 Ry


ATOMIC_POSITIONS (alat)
Mg       0.001466580   0.000007754  -0.000002545
Mg      -0.001596396   0.499990819   0.500002722
Mg       0.501616114   0.000007995   0.500002729
Mg       0.498493901   0.499992563  -0.000002846
O        0.501647752   0.000005634  -0.000002656
O       -0.001640723   0.499994760  -0.000002669
O        0.001609309   0.000005735   0.500002653
O        0.498403463   0.499994739   0.500002612



     Writing output data file diamond..70.4.save
     NEW-OLD atomic charge density approx. for the potential

     Check: negative/imaginary core charge=   -0.000007    0.000000

     total cpu time spent up to now is       57.5 secs

     per-process dynamical memory:    52.8 Mb

     Self-consistent Calculation

     iteration #  1     ecut=    70.00 Ry     beta=0.70
     Davidson diagonalization with overlap
     ethr =  1.00E-06,  avg # of iterations =  2.0

     Threshold (ethr) on eigenvalues was too large:
     Diagonalizing with lowered threshold

     Davidson diagonalization with overlap
     ethr =  2.81E-11,  avg # of iterations =  3.5

     total cpu time spent up to now is       60.4 secs

     total energy              =    -608.39274951 Ry
     Harris-Foulkes estimate   =    -608.39274953 Ry
     estimated scf accuracy    <       0.00000003 Ry

     iteration #  2     ecut=    70.00 Ry     beta=0.70
     Davidson diagonalization with overlap
     ethr =  4.83E-11,  avg # of iterations =  2.0

     total cpu time spent up to now is       61.6 secs

     total energy              =    -608.39274952 Ry
     Harris-Foulkes estimate   =    -608.39274952 Ry
     estimated scf accuracy    <          1.3E-09 Ry

     iteration #  3     ecut=    70.00 Ry     beta=0.70
     Davidson diagonalization with overlap
     ethr =  2.09E-12,  avg # of iterations =  3.0

     total cpu time spent up to now is       62.9 secs

     total energy              =    -608.39274952 Ry
     Harris-Foulkes estimate   =    -608.39274952 Ry
     estimated scf accuracy    <          7.0E-10 Ry

     iteration #  4     ecut=    70.00 Ry     beta=0.70
     Davidson diagonalization with overlap
     ethr =  1.09E-12,  avg # of iterations =  3.0

     total cpu time spent up to now is       64.1 secs

     End of self-consistent calculation

          k = 0.0000 0.0000 0.0000 (  5153 PWs)   bands (ev):

   -64.8345 -64.8250 -64.8250 -64.8243 -31.6312 -31.6311 -31.6309 -31.5949
   -31.5934 -31.5934 -31.5932 -31.5931 -31.5919 -31.5657 -31.5639 -31.5638
    -9.3645  -7.9136  -7.9134  -7.9133   3.7582   3.7584   3.7584   6.3430
     6.3802   6.3802   6.3802   6.3806   6.4179   7.6492   7.6725   7.6960

          k = 0.0000 0.0000 0.2500 (  5157 PWs)   bands (ev):

   -64.8331 -64.8263 -64.8250 -64.8244 -31.6248 -31.6247 -31.6203 -31.5979
   -31.5979 -31.5940 -31.5940 -31.5900 -31.5872 -31.5782 -31.5732 -31.5696
    -9.1560  -8.1284  -7.8850  -7.8849   4.0488   4.0488   4.0956   5.8582
     5.8582   6.1708   6.1711   6.5074   6.5794   6.6590   7.4246   7.4766

          k = 0.0000 0.0000-0.5000 (  5126 PWs)   bands (ev):

   -64.8299 -64.8294 -64.8250 -64.8245 -31.6126 -31.6124 -31.6077 -31.6074
   -31.6019 -31.6019 -31.5910 -31.5909 -31.5823 -31.5820 -31.5789 -31.5786
    -8.6458  -8.6457  -7.8562  -7.8561   4.8435   4.8435   4.8521   4.8522
     5.1227   5.1230   5.9737   5.9740   6.9372   6.9372   7.0002   7.0002

          k = 0.0000 0.2500 0.0000 (  5165 PWs)   bands (ev):

   -64.8331 -64.8263 -64.8250 -64.8245 -31.6249 -31.6244 -31.6211 -31.5990
   -31.5983 -31.5934 -31.5933 -31.5890 -31.5888 -31.5790 -31.5715 -31.5710
    -9.1560  -8.1283  -7.8851  -7.8849   4.0485   4.0487   4.0954   5.8551
     5.8583   6.1708   6.1740   6.5430   6.5432   6.6587   7.4504   7.4509

          k = 0.0000 0.2500 0.2500 (  5159 PWs)   bands (ev):

   -64.8319 -64.8262 -64.8259 -64.8248 -31.6212 -31.6209 -31.6196 -31.6071
   -31.5942 -31.5939 -31.5930 -31.5875 -31.5865 -31.5862 -31.5757 -31.5686
    -8.9659  -8.0637  -8.0635  -7.8899   4.1613   4.1618   4.3290   5.0715
     5.8471   6.0544   6.0557   6.4852   6.4868   6.5838   7.1732   7.5060

          k = 0.0000 0.2500-0.5000 (  5152 PWs)   bands (ev):

   -64.8292 -64.8287 -64.8257 -64.8252 -31.6178 -31.6176 -31.6101 -31.6100
   -31.6064 -31.6062 -31.5851 -31.5849 -31.5837 -31.5837 -31.5754 -31.5752
    -8.5094  -8.5093  -7.9466  -7.9465   4.4186   4.4187   4.7511   4.7514
     5.0965   5.0965   6.5480   6.5483   6.5755   6.5756   7.0950   7.0951

          k = 0.0000-0.5000 0.0000 (  5112 PWs)   bands (ev):

   -64.8299 -64.8294 -64.8250 -64.8245 -31.6102 -31.6100 -31.6095 -31.6092
   -31.6017 -31.6017 -31.5910 -31.5909 -31.5804 -31.5802 -31.5801 -31.5798
    -8.6457  -8.6456  -7.8563  -7.8562   4.8478   4.8478   4.8481   4.8481
     5.1230   5.1233   5.9737   5.9740   6.9687   6.9687   6.9687   6.9688

          k = 0.0000-0.5000 0.2500 (  5152 PWs)   bands (ev):

   -64.8292 -64.8287 -64.8257 -64.8252 -31.6174 -31.6172 -31.6102 -31.6102
   -31.6067 -31.6065 -31.5850 -31.5848 -31.5838 -31.5838 -31.5753 -31.5751
    -8.5094  -8.5093  -7.9467  -7.9466   4.4185   4.4185   4.7513   4.7515
     5.0967   5.0967   6.5480   6.5482   6.5761   6.5761   7.0943   7.0944

          k = 0.0000-0.5000-0.5000 (  5188 PWs)   bands (ev):

   -64.8275 -64.8274 -64.8274 -64.8265 -31.6192 -31.6190 -31.6189 -31.6189
   -31.5969 -31.5967 -31.5967 -31.5964 -31.5761 -31.5759 -31.5758 -31.5758
    -8.2052  -8.2050  -8.2050  -8.2050   4.2934   4.2934   4.2934   4.2936
     5.7678   5.7679   5.7681   5.7682   7.0636   7.0637   7.0637   7.0639

          k = 0.2500 0.0016 0.0000 (  5165 PWs)   bands (ev):

   -64.8331 -64.8263 -64.8250 -64.8245 -31.6249 -31.6244 -31.6211 -31.5990
   -31.5983 -31.5934 -31.5933 -31.5890 -31.5888 -31.5790 -31.5715 -31.5710
    -9.1560  -8.1283  -7.8851  -7.8849   4.0485   4.0487   4.0954   5.8551
     5.8583   6.1708   6.1740   6.5430   6.5432   6.6587   7.4504   7.4509

          k = 0.2500 0.0016 0.2500 (  5159 PWs)   bands (ev):

   -64.8319 -64.8262 -64.8259 -64.8248 -31.6212 -31.6209 -31.6196 -31.6071
   -31.5942 -31.5939 -31.5930 -31.5875 -31.5865 -31.5862 -31.5757 -31.5686
    -8.9659  -8.0637  -8.0635  -7.8899   4.1612   4.1619   4.3290   5.0715
     5.8471   6.0543   6.0558   6.4852   6.4868   6.5838   7.1732   7.5060

          k = 0.2500 0.0016-0.5000 (  5152 PWs)   bands (ev):

   -64.8292 -64.8287 -64.8257 -64.8252 -31.6178 -31.6176 -31.6101 -31.6100
   -31.6064 -31.6062 -31.5851 -31.5849 -31.5837 -31.5837 -31.5754 -31.5752
    -8.5094  -8.5093  -7.9466  -7.9465   4.4186   4.4187   4.7511   4.7514
     5.0965   5.0965   6.5480   6.5483   6.5755   6.5756   7.0950   7.0951

          k = 0.2500 0.2516 0.0000 (  5155 PWs)   bands (ev):

   -64.8318 -64.8263 -64.8259 -64.8248 -31.6195 -31.6193 -31.6192 -31.6095
   -31.5943 -31.5942 -31.5940 -31.5876 -31.5875 -31.5863 -31.5753 -31.5671
    -8.9626  -8.0677  -8.0675  -7.8862   4.1632   4.1633   4.3323   5.0915
     5.8586   6.0504   6.0507   6.4920   6.4920   6.5504   7.1798   7.4828

          k = 0.2500 0.2516 0.2500 (  5156 PWs)   bands (ev):

   -64.8308 -64.8263 -64.8262 -64.8255 -31.6257 -31.6235 -31.6234 -31.6068
   -31.5955 -31.5953 -31.5950 -31.5836 -31.5836 -31.5825 -31.5718 -31.5699
    -8.7927  -8.0345  -8.0344  -8.0268   3.9975   3.9976   4.0127   5.1034
     5.8499   5.8501   5.8558   6.6735   6.7089   6.7091   7.3308   7.3586

          k = 0.2500 0.2516-0.5000 (  5148 PWs)   bands (ev):

   -64.8286 -64.8282 -64.8263 -64.8257 -31.6267 -31.6266 -31.6221 -31.6220
   -31.5954 -31.5952 -31.5801 -31.5800 -31.5789 -31.5788 -31.5761 -31.5759
    -8.3955  -8.3954  -8.0009  -8.0007   3.8150   3.8151   4.2131   4.2132
     5.8392   5.8393   6.7435   6.7437   6.8726   6.8727   6.9877   6.9877

          k = 0.2500-0.4984 0.0000 (  5148 PWs)   bands (ev):

   -64.8292 -64.8287 -64.8257 -64.8252 -31.6196 -31.6148 -31.6122 -31.6080
   -31.6068 -31.6066 -31.5851 -31.5850 -31.5848 -31.5821 -31.5766 -31.5737
    -8.5145  -8.5042  -7.9523  -7.9410   4.4116   4.4256   4.7484   4.7544
     5.0907   5.1022   6.5258   6.5680   6.5709   6.5842   7.0777   7.1114

          k = 0.2500-0.4984 0.2500 (  5137 PWs)   bands (ev):

   -64.8287 -64.8282 -64.8262 -64.8256 -31.6295 -31.6268 -31.6228 -31.6191
   -31.5932 -31.5927 -31.5816 -31.5798 -31.5791 -31.5782 -31.5770 -31.5757
    -8.4040  -8.3937  -8.0024  -7.9914   3.8104   3.8329   4.1897   4.2066
     5.8252   5.8356   6.7243   6.7569   6.8574   6.8798   7.0119   7.0220

          k = 0.2500-0.4984-0.5000 (  5144 PWs)   bands (ev):

   -64.8275 -64.8274 -64.8274 -64.8264 -31.6332 -31.6331 -31.6301 -31.6300
   -31.5841 -31.5838 -31.5824 -31.5822 -31.5754 -31.5752 -31.5749 -31.5748
    -8.1728  -8.1727  -8.1624  -8.1623   3.6286   3.6286   3.6524   3.6525
     6.5075   6.5075   6.5418   6.5418   7.0596   7.0597   7.0698   7.0699

          k = 0.2500-0.2484 0.0000 (  5159 PWs)   bands (ev):

   -64.8319 -64.8262 -64.8258 -64.8249 -31.6226 -31.6225 -31.6197 -31.6058
   -31.5941 -31.5941 -31.5907 -31.5887 -31.5854 -31.5852 -31.5755 -31.5704
    -8.9691  -8.0596  -8.0595  -7.8940   4.1600   4.1601   4.3254   5.0515
     5.8362   6.0609   6.0613   6.4781   6.4781   6.6174   7.1671   7.5287

          k = 0.2500-0.2484 0.2500 (  5146 PWs)   bands (ev):

   -64.8309 -64.8263 -64.8262 -64.8254 -31.6267 -31.6265 -31.6243 -31.6048
   -31.5921 -31.5920 -31.5918 -31.5853 -31.5839 -31.5838 -31.5729 -31.5706
    -8.7993  -8.0342  -8.0265  -8.0264   3.9884   4.0037   4.0037   5.0754
     5.8362   5.8421   5.8422   6.7023   6.7025   6.7382   7.3524   7.3804

          k = 0.2500-0.2484-0.5000 (  5124 PWs)   bands (ev):

   -64.8287 -64.8283 -64.8262 -64.8256 -31.6298 -31.6296 -31.6199 -31.6198
   -31.5906 -31.5904 -31.5813 -31.5813 -31.5790 -31.5787 -31.5764 -31.5763
    -8.4024  -8.4023  -7.9930  -7.9929   3.8281   3.8282   4.1831   4.1832
     5.8219   5.8220   6.7372   6.7375   6.8653   6.8654   7.0453   7.0453

          k =-0.5000-0.0032 0.0000 (  5112 PWs)   bands (ev):

   -64.8299 -64.8294 -64.8250 -64.8245 -31.6102 -31.6100 -31.6094 -31.6092
   -31.6018 -31.6017 -31.5910 -31.5909 -31.5804 -31.5802 -31.5800 -31.5798
    -8.6460  -8.6453  -7.8563  -7.8562   4.8473   4.8476   4.8483   4.8487
     5.1230   5.1234   5.9737   5.9740   6.9684   6.9685   6.9690   6.9690

          k =-0.5000-0.0032 0.2500 (  5152 PWs)   bands (ev):

   -64.8292 -64.8288 -64.8257 -64.8252 -31.6173 -31.6172 -31.6102 -31.6102
   -31.6067 -31.6065 -31.5850 -31.5848 -31.5838 -31.5838 -31.5753 -31.5752
    -8.5096  -8.5090  -7.9467  -7.9466   4.4182   4.4187   4.7512   4.7516
     5.0962   5.0972   6.5479   6.5483   6.5758   6.5765   7.0942   7.0944

          k =-0.5000-0.0032-0.5000 (  5188 PWs)   bands (ev):

   -64.8275 -64.8274 -64.8274 -64.8265 -31.6193 -31.6191 -31.6189 -31.6189
   -31.5969 -31.5967 -31.5967 -31.5964 -31.5761 -31.5759 -31.5758 -31.5758
    -8.2053  -8.2052  -8.2050  -8.2047   4.2931   4.2933   4.2937   4.2938
     5.7673   5.7677   5.7682   5.7688   7.0634   7.0637   7.0638   7.0639

          k =-0.5000 0.2468 0.0000 (  5148 PWs)   bands (ev):

   -64.8292 -64.8287 -64.8257 -64.8252 -31.6196 -31.6148 -31.6122 -31.6080
   -31.6068 -31.6066 -31.5851 -31.5850 -31.5848 -31.5821 -31.5766 -31.5737
    -8.5145  -8.5042  -7.9523  -7.9410   4.4116   4.4256   4.7484   4.7544
     5.0907   5.1023   6.5258   6.5679   6.5709   6.5842   7.0777   7.1114

          k =-0.5000 0.2468 0.2500 (  5137 PWs)   bands (ev):

   -64.8287 -64.8283 -64.8262 -64.8256 -31.6295 -31.6268 -31.6228 -31.6191
   -31.5932 -31.5928 -31.5816 -31.5798 -31.5791 -31.5782 -31.5770 -31.5757
    -8.4040  -8.3937  -8.0024  -7.9914   3.8104   3.8329   4.1897   4.2066
     5.8252   5.8356   6.7243   6.7569   6.8574   6.8798   7.0119   7.0220

          k =-0.5000 0.2468-0.5000 (  5144 PWs)   bands (ev):

   -64.8275 -64.8274 -64.8274 -64.8264 -31.6332 -31.6331 -31.6301 -31.6300
   -31.5841 -31.5838 -31.5824 -31.5822 -31.5754 -31.5752 -31.5749 -31.5748
    -8.1728  -8.1727  -8.1624  -8.1623   3.6286   3.6286   3.6524   3.6525
     6.5075   6.5075   6.5418   6.5418   7.0596   7.0597   7.0698   7.0699

          k =-0.5000-0.5032 0.0000 (  5180 PWs)   bands (ev):

   -64.8276 -64.8275 -64.8273 -64.8264 -31.6214 -31.6212 -31.6162 -31.6160
   -31.5970 -31.5969 -31.5968 -31.5965 -31.5767 -31.5764 -31.5749 -31.5747
    -8.2128  -8.2127  -8.1974  -8.1973   4.2891   4.2891   4.2978   4.2979
     5.7581   5.7585   5.7770   5.7773   7.0379   7.0379   7.0901   7.0901

          k =-0.5000-0.5032 0.2500 (  5138 PWs)   bands (ev):

   -64.8275 -64.8274 -64.8273 -64.8264 -31.6331 -31.6330 -31.6301 -31.6300
   -31.5835 -31.5834 -31.5821 -31.5821 -31.5768 -31.5766 -31.5736 -31.5734
    -8.1752  -8.1751  -8.1600  -8.1599   3.6307   3.6307   3.6502   3.6502
     6.5217   6.5220   6.5272   6.5275   7.0390   7.0391   7.0907   7.0908

          k =-0.5000-0.5032-0.5000 (  5136 PWs)   bands (ev):

   -64.8275 -64.8274 -64.8273 -64.8264 -31.6397 -31.6394 -31.6394 -31.6394
   -31.5760 -31.5758 -31.5753 -31.5752 -31.5746 -31.5746 -31.5741 -31.5738
    -8.1371  -8.1369  -8.1220  -8.1218   3.2056   3.2056   3.2297   3.2298
     7.0397   7.0398   7.0646   7.0648   7.0661   7.0663   7.0917   7.0918

          k = 0.0000-0.2500 0.2500 (  5159 PWs)   bands (ev):

   -64.8319 -64.8262 -64.8259 -64.8248 -31.6212 -31.6209 -31.6196 -31.6071
   -31.5942 -31.5939 -31.5930 -31.5875 -31.5865 -31.5862 -31.5757 -31.5686
    -8.9659  -8.0637  -8.0635  -7.8899   4.1613   4.1618   4.3290   5.0715
     5.8471   6.0544   6.0557   6.4852   6.4868   6.5838   7.1732   7.5060

          k =-0.2500-0.0016 0.2500 (  5159 PWs)   bands (ev):

   -64.8319 -64.8262 -64.8259 -64.8248 -31.6212 -31.6209 -31.6196 -31.6071
   -31.5942 -31.5939 -31.5930 -31.5875 -31.5865 -31.5862 -31.5757 -31.5686
    -8.9659  -8.0637  -8.0635  -7.8899   4.1612   4.1619   4.3290   5.0715
     5.8471   6.0543   6.0558   6.4852   6.4868   6.5838   7.1732   7.5060

          k =-0.2500-0.2516 0.2500 (  5156 PWs)   bands (ev):

   -64.8308 -64.8263 -64.8262 -64.8255 -31.6257 -31.6235 -31.6234 -31.6068
   -31.5955 -31.5953 -31.5950 -31.5836 -31.5836 -31.5825 -31.5718 -31.5699
    -8.7927  -8.0345  -8.0344  -8.0268   3.9975   3.9976   4.0127   5.1034
     5.8499   5.8501   5.8558   6.6735   6.7089   6.7091   7.3308   7.3586

          k =-0.2500 0.4984 0.2500 (  5137 PWs)   bands (ev):

   -64.8287 -64.8282 -64.8262 -64.8256 -31.6295 -31.6268 -31.6228 -31.6191
   -31.5932 -31.5927 -31.5816 -31.5798 -31.5791 -31.5782 -31.5770 -31.5757
    -8.4040  -8.3937  -8.0024  -7.9914   3.8104   3.8329   4.1897   4.2066
     5.8252   5.8356   6.7243   6.7569   6.8574   6.8798   7.0119   7.0220

          k =-0.2500 0.2484 0.2500 (  5146 PWs)   bands (ev):

   -64.8309 -64.8263 -64.8262 -64.8254 -31.6267 -31.6265 -31.6243 -31.6048
   -31.5921 -31.5920 -31.5918 -31.5853 -31.5839 -31.5838 -31.5729 -31.5706
    -8.7993  -8.0342  -8.0265  -8.0264   3.9884   4.0037   4.0037   5.0754
     5.8362   5.8421   5.8422   6.7023   6.7025   6.7382   7.3524   7.3804

          k = 0.5000-0.2468 0.2500 (  5137 PWs)   bands (ev):

   -64.8287 -64.8283 -64.8262 -64.8256 -31.6295 -31.6268 -31.6228 -31.6191
   -31.5932 -31.5928 -31.5816 -31.5798 -31.5791 -31.5782 -31.5770 -31.5757
    -8.4040  -8.3937  -8.0024  -7.9914   3.8104   3.8329   4.1897   4.2066
     5.8252   5.8356   6.7243   6.7569   6.8574   6.8798   7.0119   7.0220

     highest occupied level (ev):     7.6960

!    total energy              =    -608.39274952 Ry
     Harris-Foulkes estimate   =    -608.39274952 Ry
     estimated scf accuracy    <          6.9E-11 Ry

     The total energy is the sum of the following terms:

     one-electron contribution =    -303.55467201 Ry
     hartree contribution      =     168.06689209 Ry
     xc contribution           =     -97.84641787 Ry
     ewald contribution        =    -375.05855172 Ry

     convergence has been achieved in   4 iterations

     Forces acting on atoms (cartesian axes, Ry/au):

     atom    1 type  1   force =    -0.00001003   -0.00000561    0.00000053
     atom    2 type  1   force =     0.00000143    0.00000791   -0.00000051
     atom    3 type  1   force =     0.00005670   -0.00000716   -0.00000054
     atom    4 type  1   force =    -0.00007388    0.00000593    0.00000054
     atom    5 type  2   force =    -0.00004387   -0.00000148    0.00000020
     atom    6 type  2   force =     0.00005443    0.00000124    0.00000024
     atom    7 type  2   force =    -0.00003950   -0.00000121   -0.00000022
     atom    8 type  2   force =     0.00005471    0.00000037   -0.00000024

     Total force =     0.000136     Total SCF correction =     0.000010


     Computing stress (Cartesian axis) and pressure

          total   stress  (Ry/bohr**3)                   (kbar)     P=  -68.07
  -0.00046324   0.00006218   0.00000000        -68.15      9.15      0.00
   0.00006218  -0.00046245  -0.00000000          9.15    -68.03     -0.00
   0.00000000  -0.00000000  -0.00046244          0.00     -0.00    -68.03


     bfgs converged in   8 scf cycles and   7 bfgs steps
     (criteria: energy <  1.0E-05 Ry, force <  1.0E-04 Ry/Bohr)

     End of BFGS Geometry Optimization

     Final energy   =    -608.3927495197 Ry
Begin final coordinates

ATOMIC_POSITIONS (alat)
Mg       0.001466580   0.000007754  -0.000002545
Mg      -0.001596396   0.499990819   0.500002722
Mg       0.501616114   0.000007995   0.500002729
Mg       0.498493901   0.499992563  -0.000002846
O        0.501647752   0.000005634  -0.000002656
O       -0.001640723   0.499994760  -0.000002669
O        0.001609309   0.000005735   0.500002653
O        0.498403463   0.499994739   0.500002612
End final coordinates



     Writing output data file diamond..70.4.save
 
     init_run     :      0.50s CPU      0.52s WALL (       1 calls)
     electrons    :     57.34s CPU     59.35s WALL (       8 calls)
     update_pot   :      0.58s CPU      0.59s WALL (       7 calls)
     forces       :      1.03s CPU      1.03s WALL (       8 calls)
     stress       :      2.48s CPU      2.50s WALL (       8 calls)

     Called by init_run:
     wfcinit      :      0.41s CPU      0.43s WALL (       1 calls)
     potinit      :      0.04s CPU      0.04s WALL (       1 calls)

     Called by electrons:
     c_bands      :     50.53s CPU     52.35s WALL (      46 calls)
     sum_band     :      6.59s CPU      6.75s WALL (      46 calls)
     v_of_rho     :      0.19s CPU      0.19s WALL (      47 calls)
     mix_rho      :      0.02s CPU      0.03s WALL (      46 calls)

     Called by c_bands:
     init_us_2    :      0.70s CPU      0.76s WALL (    3924 calls)
     cegterg      :     47.45s CPU     49.08s WALL (    1656 calls)

     Called by sum_band:

     Called by *egterg:
     h_psi        :     35.54s CPU     36.41s WALL (    5705 calls)
     g_psi        :      0.13s CPU      0.14s WALL (    4013 calls)
     cdiaghg      :      7.05s CPU      7.07s WALL (    5165 calls)

     Called by h_psi:
     h_psi:pot    :     35.34s CPU     36.14s WALL (    5705 calls)
     h_psi:calbec :      1.50s CPU      1.50s WALL (    5705 calls)
     vloc_psi     :     32.64s CPU     33.42s WALL (    5705 calls)
     add_vuspsi   :      1.19s CPU      1.20s WALL (    5705 calls)

     General routines
     calbec       :      2.00s CPU      2.00s WALL (    7145 calls)
     fft          :      0.14s CPU      0.14s WALL (     730 calls)
     fftw         :     37.22s CPU     37.04s WALL (  335226 calls)
     davcio       :      0.00s CPU      0.01s WALL (      36 calls)
 
     Parallel routines
     fft_scatter  :      7.40s CPU      7.67s WALL (  335956 calls)
 
     PWSCF        :  1m 2.42s CPU     1m 4.67s WALL

 
   This run was terminated on:  19: 2:37  22Apr2018            

=------------------------------------------------------------------------------=
   JOB DONE.
=------------------------------------------------------------------------------=
