
     Program PWSCF v.6.1 (svn rev. 13369) starts on 22Apr2018 at 18:39:15 

     This program is part of the open-source Quantum ESPRESSO suite
     for quantum simulation of materials; please cite
         "P. Giannozzi et al., J. Phys.:Condens. Matter 21 395502 (2009);
          URL http://www.quantum-espresso.org", 
     in publications or presentations arising from this work. More details at
     http://www.quantum-espresso.org/quote

     Parallel version (MPI), running on     8 processors
     R & G space division:  proc/nbgrp/npool/nimage =       8
     Waiting for input...
     Reading input from standard input
Warning: card       &CELL ignored
Warning: card          CELL_DYNAMICS = 'BFGS' ignored
Warning: card          PRESS = 0.0D0 ignored
Warning: card          PRESS_CONV_THR = 0.01D0 ignored
Warning: card       / ignored

     Current dimensions of program PWSCF are:
     Max number of different atomic species (ntypx) = 10
     Max number of k-points (npk) =  40000
     Max angular momentum in pseudopotentials (lmaxx) =  3

     Subspace diagonalization in iterative solution of the eigenvalue problem:
     a serial algorithm will be used

     Found symmetry operation: I + ( -0.5000  0.0000  0.5000)
     This is a supercell, fractional translations are disabled
 
     Parallelization info
     --------------------
     sticks:   dense  smooth     PW     G-vecs:    dense   smooth      PW
     Min         181     181     52                 5155     5155     816
     Max         182     182     53                 5157     5157     819
     Sum        1449    1449    421                41251    41251    6543
 


     bravais-lattice index     =           12
     lattice parameter (alat)  =       8.0448  a.u.
     unit-cell volume          =     520.6396 (a.u.)^3
     number of atoms/cell      =            8
     number of atomic types    =            2
     number of electrons       =        64.00
     number of Kohn-Sham states=           32
     kinetic-energy cutoff     =      70.0000  Ry
     charge density cutoff     =     280.0000  Ry
     convergence threshold     =      1.0E-08
     mixing beta               =       0.7000
     number of iterations used =            8  plain     mixing
     Exchange-correlation      = PBE ( 1  4  3  4 0 0)
     nstep                     =           50


     celldm(1)=   8.044750  celldm(2)=   1.000000  celldm(3)=   1.000001
     celldm(4)=   0.002143  celldm(5)=   0.000000  celldm(6)=   0.000000

     crystal axes: (cart. coord. in units of alat)
               a(1) = (   1.000000   0.000000   0.000000 )  
               a(2) = (   0.002143   0.999998   0.000000 )  
               a(3) = (   0.000000   0.000000   1.000001 )  

     reciprocal axes: (cart. coord. in units 2 pi/alat)
               b(1) = (  1.000000 -0.002143  0.000000 )  
               b(2) = (  0.000000  1.000002  0.000000 )  
               b(3) = (  0.000000  0.000000  0.999999 )  


     PseudoPot. # 1 for Mg read from file:
     ../pseudo/Mg.pbe.UPF
     MD5 check sum: 4c04d8c6e0476e83eaecaf72fa8acc4d
     Pseudo is Norm-conserving, Zval = 10.0
     Generated using ONCVPSP code by D. R. Hamann
     Using radial grid of 1510 points,  4 beta functions with: 
                l(1) =   0
                l(2) =   0
                l(3) =   1
                l(4) =   1

     PseudoPot. # 2 for O  read from file:
     ../pseudo/O.pbe.UPF
     MD5 check sum: 3e3f909f7470e8921608ab6b1f57bbae
     Pseudo is Norm-conserving + core correction, Zval =  6.0
     Generated using ONCVPSP code by D. R. Hamann
     Using radial grid of  936 points,  5 beta functions with: 
                l(1) =   0
                l(2) =   0
                l(3) =   1
                l(4) =   1
                l(5) =   2

     atomic species   valence    mass     pseudopotential
        Mg            10.00    24.30500     Mg( 1.00)
        O              6.00    15.99940     O ( 1.00)

      2 Sym. Ops. (no inversion) found



   Cartesian axes

     site n.     atom                  positions (alat units)
         1           Mg  tau(   1) = (   0.0000000   0.0000000   0.0000000  )
         2           Mg  tau(   2) = (   0.0000000   0.5000000   0.5000000  )
         3           Mg  tau(   3) = (   0.5000000   0.0000000   0.5000000  )
         4           Mg  tau(   4) = (   0.5000000   0.5000000   0.0000000  )
         5           O   tau(   5) = (   0.5000000   0.0000000   0.0000000  )
         6           O   tau(   6) = (   0.0000000   0.5000000   0.0000000  )
         7           O   tau(   7) = (   0.0000000   0.0000000   0.5000000  )
         8           O   tau(   8) = (   0.5000000   0.5000000   0.5000000  )

     number of k points=    30
                       cart. coord. in units 2pi/alat
        k(    1) = (   0.0000000   0.0000000   0.0000000), wk =   0.0312500
        k(    2) = (   0.0000000   0.0000000   0.2499997), wk =   0.0625000
        k(    3) = (   0.0000000   0.0000000  -0.4999994), wk =   0.0312500
        k(    4) = (   0.0000000   0.2500006   0.0000000), wk =   0.0625000
        k(    5) = (   0.0000000   0.2500006   0.2499997), wk =   0.1250000
        k(    6) = (   0.0000000   0.2500006  -0.4999994), wk =   0.0625000
        k(    7) = (   0.0000000  -0.5000011   0.0000000), wk =   0.0312500
        k(    8) = (   0.0000000  -0.5000011   0.2499997), wk =   0.0625000
        k(    9) = (   0.0000000  -0.5000011  -0.4999994), wk =   0.0312500
        k(   10) = (   0.2500000  -0.0005358   0.0000000), wk =   0.0625000
        k(   11) = (   0.2500000  -0.0005358   0.2499997), wk =   0.1250000
        k(   12) = (   0.2500000  -0.0005358  -0.4999994), wk =   0.0625000
        k(   13) = (   0.2500000   0.2494648   0.0000000), wk =   0.0625000
        k(   14) = (   0.2500000   0.2494648   0.2499997), wk =   0.1250000
        k(   15) = (   0.2500000   0.2494648  -0.4999994), wk =   0.0625000
        k(   16) = (   0.2500000  -0.5005369   0.0000000), wk =   0.0625000
        k(   17) = (   0.2500000  -0.5005369   0.2499997), wk =   0.1250000
        k(   18) = (   0.2500000  -0.5005369  -0.4999994), wk =   0.0625000
        k(   19) = (   0.2500000  -0.2505363   0.0000000), wk =   0.0625000
        k(   20) = (   0.2500000  -0.2505363   0.2499997), wk =   0.1250000
        k(   21) = (   0.2500000  -0.2505363  -0.4999994), wk =   0.0625000
        k(   22) = (  -0.5000000   0.0010715   0.0000000), wk =   0.0312500
        k(   23) = (  -0.5000000   0.0010715   0.2499997), wk =   0.0625000
        k(   24) = (  -0.5000000   0.0010715  -0.4999994), wk =   0.0312500
        k(   25) = (  -0.5000000   0.2510721   0.0000000), wk =   0.0625000
        k(   26) = (  -0.5000000   0.2510721   0.2499997), wk =   0.1250000
        k(   27) = (  -0.5000000   0.2510721  -0.4999994), wk =   0.0625000
        k(   28) = (  -0.5000000  -0.4989296   0.0000000), wk =   0.0312500
        k(   29) = (  -0.5000000  -0.4989296   0.2499997), wk =   0.0625000
        k(   30) = (  -0.5000000  -0.4989296  -0.4999994), wk =   0.0312500

     Dense  grid:    41251 G-vectors     FFT dimensions: (  45,  45,  45)

     Estimated max dynamical RAM per process >      15.33MB

     Estimated total allocated dynamical RAM >     122.66MB

     Check: negative/imaginary core charge=   -0.000008    0.000000

     Initial potential from superposition of free atoms

     starting charge   63.99678, renormalised to   64.00000
     Starting wfc are   36 randomized atomic wfcs

     total cpu time spent up to now is        0.5 secs

     per-process dynamical memory:    51.6 Mb

     Self-consistent Calculation

     iteration #  1     ecut=    70.00 Ry     beta=0.70
     Davidson diagonalization with overlap
     ethr =  1.00E-02,  avg # of iterations =  2.0

     total cpu time spent up to now is        1.5 secs

     total energy              =    -607.71930520 Ry
     Harris-Foulkes estimate   =    -608.84376269 Ry
     estimated scf accuracy    <       1.56235294 Ry

     iteration #  2     ecut=    70.00 Ry     beta=0.70
     Davidson diagonalization with overlap
     ethr =  2.44E-03,  avg # of iterations =  2.9

     total cpu time spent up to now is        2.6 secs

     total energy              =    -608.10562632 Ry
     Harris-Foulkes estimate   =    -608.80414518 Ry
     estimated scf accuracy    <       1.45039926 Ry

     iteration #  3     ecut=    70.00 Ry     beta=0.70
     Davidson diagonalization with overlap
     ethr =  2.27E-03,  avg # of iterations =  2.0

     total cpu time spent up to now is        3.6 secs

     total energy              =    -608.39138543 Ry
     Harris-Foulkes estimate   =    -608.39203542 Ry
     estimated scf accuracy    <       0.00674514 Ry

     iteration #  4     ecut=    70.00 Ry     beta=0.70
     Davidson diagonalization with overlap
     ethr =  1.05E-05,  avg # of iterations =  2.0

     total cpu time spent up to now is        4.6 secs

     total energy              =    -608.39286208 Ry
     Harris-Foulkes estimate   =    -608.39290707 Ry
     estimated scf accuracy    <       0.00011190 Ry

     iteration #  5     ecut=    70.00 Ry     beta=0.70
     Davidson diagonalization with overlap
     ethr =  1.75E-07,  avg # of iterations =  1.5

     total cpu time spent up to now is        5.4 secs

     total energy              =    -608.39286941 Ry
     Harris-Foulkes estimate   =    -608.39286794 Ry
     estimated scf accuracy    <       0.00001041 Ry

     iteration #  6     ecut=    70.00 Ry     beta=0.70
     Davidson diagonalization with overlap
     ethr =  1.63E-08,  avg # of iterations =  2.0

     total cpu time spent up to now is        6.6 secs

     total energy              =    -608.39287106 Ry
     Harris-Foulkes estimate   =    -608.39287147 Ry
     estimated scf accuracy    <       0.00000109 Ry

     iteration #  7     ecut=    70.00 Ry     beta=0.70
     Davidson diagonalization with overlap
     ethr =  1.70E-09,  avg # of iterations =  2.0

     total cpu time spent up to now is        7.6 secs

     total energy              =    -608.39287104 Ry
     Harris-Foulkes estimate   =    -608.39287115 Ry
     estimated scf accuracy    <       0.00000028 Ry

     iteration #  8     ecut=    70.00 Ry     beta=0.70
     Davidson diagonalization with overlap
     ethr =  4.34E-10,  avg # of iterations =  2.0

     total cpu time spent up to now is        8.5 secs

     total energy              =    -608.39287105 Ry
     Harris-Foulkes estimate   =    -608.39287107 Ry
     estimated scf accuracy    <       0.00000004 Ry

     iteration #  9     ecut=    70.00 Ry     beta=0.70
     Davidson diagonalization with overlap
     ethr =  6.81E-11,  avg # of iterations =  2.0

     total cpu time spent up to now is        9.6 secs

     End of self-consistent calculation

          k = 0.0000 0.0000 0.0000 (  5137 PWs)   bands (ev):

   -64.8343 -64.8248 -64.8248 -64.8240 -31.6308 -31.6308 -31.6308 -31.5937
   -31.5932 -31.5932 -31.5932 -31.5932 -31.5927 -31.5638 -31.5631 -31.5624
    -9.3646  -7.9138  -7.9137  -7.9137   3.7581   3.7581   3.7581   6.3676
     6.3799   6.3800   6.3801   6.3803   6.3926   7.6648   7.6725   7.6803

          k = 0.0000 0.0000 0.2500 (  5157 PWs)   bands (ev):

   -64.8329 -64.8260 -64.8248 -64.8242 -31.6240 -31.6240 -31.6202 -31.5979
   -31.5979 -31.5938 -31.5937 -31.5894 -31.5883 -31.5780 -31.5718 -31.5707
    -9.1562  -8.1286  -7.8853  -7.8852   4.0485   4.0486   4.0956   5.8581
     5.8581   6.1705   6.1709   6.5308   6.5547   6.6589   7.4416   7.4589

          k = 0.0000 0.0000-0.5000 (  5110 PWs)   bands (ev):

   -64.8297 -64.8292 -64.8248 -64.8242 -31.6103 -31.6100 -31.6081 -31.6079
   -31.6018 -31.6017 -31.5906 -31.5905 -31.5809 -31.5807 -31.5798 -31.5796
    -8.6460  -8.6459  -7.8565  -7.8564   4.8465   4.8465   4.8493   4.8494
     5.1227   5.1230   5.9734   5.9737   6.9578   6.9579   6.9788   6.9789

          k = 0.0000 0.2500 0.0000 (  5159 PWs)   bands (ev):

   -64.8329 -64.8260 -64.8248 -64.8242 -31.6242 -31.6242 -31.6203 -31.5981
   -31.5981 -31.5937 -31.5934 -31.5889 -31.5888 -31.5780 -31.5713 -31.5712
    -9.1562  -8.1286  -7.8853  -7.8852   4.0484   4.0484   4.0955   5.8577
     5.8581   6.1706   6.1713   6.5427   6.5427   6.6589   7.4502   7.4503

          k = 0.0000 0.2500 0.2500 (  5162 PWs)   bands (ev):

   -64.8316 -64.8260 -64.8256 -64.8246 -31.6212 -31.6208 -31.6193 -31.6069
   -31.5939 -31.5939 -31.5928 -31.5877 -31.5867 -31.5864 -31.5752 -31.5682
    -8.9661  -8.0639  -8.0638  -7.8902   4.1612   4.1614   4.3287   5.0713
     5.8471   6.0553   6.0556   6.4847   6.4850   6.5835   7.1733   7.5056

          k = 0.0000 0.2500-0.5000 (  5152 PWs)   bands (ev):

   -64.8289 -64.8285 -64.8255 -64.8249 -31.6172 -31.6170 -31.6099 -31.6098
   -31.6066 -31.6064 -31.5848 -31.5846 -31.5835 -31.5835 -31.5752 -31.5751
    -8.5096  -8.5095  -7.9469  -7.9468   4.4184   4.4185   4.7511   4.7513
     5.0962   5.0963   6.5478   6.5480   6.5757   6.5758   7.0942   7.0942

          k = 0.0000-0.5000 0.0000 (  5110 PWs)   bands (ev):

   -64.8296 -64.8292 -64.8248 -64.8242 -31.6093 -31.6092 -31.6090 -31.6090
   -31.6018 -31.6017 -31.5905 -31.5904 -31.5804 -31.5804 -31.5802 -31.5801
    -8.6460  -8.6459  -7.8565  -7.8564   4.8478   4.8479   4.8480   4.8480
     5.1227   5.1230   5.9734   5.9738   6.9683   6.9683   6.9684   6.9684

          k = 0.0000-0.5000 0.2500 (  5150 PWs)   bands (ev):

   -64.8289 -64.8285 -64.8255 -64.8249 -31.6171 -31.6170 -31.6099 -31.6098
   -31.6066 -31.6064 -31.5848 -31.5846 -31.5836 -31.5836 -31.5750 -31.5749
    -8.5096  -8.5095  -7.9470  -7.9469   4.4184   4.4184   4.7511   4.7513
     5.0963   5.0964   6.5478   6.5480   6.5758   6.5758   7.0941   7.0942

          k = 0.0000-0.5000-0.5000 (  5216 PWs)   bands (ev):

   -64.8272 -64.8272 -64.8272 -64.8262 -31.6192 -31.6191 -31.6189 -31.6189
   -31.5973 -31.5971 -31.5971 -31.5968 -31.5767 -31.5765 -31.5764 -31.5764
    -8.2055  -8.2053  -8.2053  -8.2053   4.2932   4.2933   4.2933   4.2934
     5.7669   5.7670   5.7673   5.7673   7.0631   7.0633   7.0633   7.0635

          k = 0.2500-0.0005 0.0000 (  5159 PWs)   bands (ev):

   -64.8329 -64.8260 -64.8248 -64.8242 -31.6242 -31.6242 -31.6203 -31.5981
   -31.5980 -31.5937 -31.5934 -31.5889 -31.5888 -31.5780 -31.5713 -31.5712
    -9.1562  -8.1286  -7.8853  -7.8852   4.0484   4.0484   4.0955   5.8578
     5.8581   6.1706   6.1711   6.5427   6.5427   6.6589   7.4502   7.4503

          k = 0.2500-0.0005 0.2500 (  5162 PWs)   bands (ev):

   -64.8316 -64.8260 -64.8256 -64.8246 -31.6212 -31.6208 -31.6193 -31.6069
   -31.5941 -31.5938 -31.5928 -31.5877 -31.5867 -31.5864 -31.5752 -31.5682
    -8.9661  -8.0656  -8.0622  -7.8902   4.1584   4.1641   4.3287   5.0713
     5.8471   6.0512   6.0597   6.4829   6.4867   6.5834   7.1733   7.5056

          k = 0.2500-0.0005-0.5000 (  5152 PWs)   bands (ev):

   -64.8289 -64.8285 -64.8255 -64.8249 -31.6172 -31.6170 -31.6099 -31.6098
   -31.6066 -31.6064 -31.5848 -31.5846 -31.5835 -31.5835 -31.5752 -31.5751
    -8.5096  -8.5095  -7.9469  -7.9468   4.4183   4.4184   4.7511   4.7513
     5.0962   5.0963   6.5478   6.5480   6.5758   6.5758   7.0941   7.0942

          k = 0.2500 0.2495 0.0000 (  5161 PWs)   bands (ev):

   -64.8317 -64.8260 -64.8256 -64.8246 -31.6211 -31.6210 -31.6193 -31.6062
   -31.5942 -31.5942 -31.5920 -31.5882 -31.5863 -31.5861 -31.5752 -31.5689
    -8.9672  -8.0626  -8.0625  -7.8916   4.1610   4.1610   4.3275   5.0647
     5.8434   6.0569   6.0573   6.4824   6.4824   6.5946   7.1712   7.5132

          k = 0.2500 0.2495 0.2500 (  5154 PWs)   bands (ev):

   -64.8307 -64.8260 -64.8260 -64.8252 -31.6255 -31.6253 -31.6247 -31.6056
   -31.5932 -31.5928 -31.5926 -31.5841 -31.5840 -31.5839 -31.5714 -31.5709
    -8.7973  -8.0325  -8.0294  -8.0289   3.9957   4.0014   4.0021   5.0845
     5.8392   5.8445   5.8477   6.7041   6.7043   6.7163   7.3543   7.3636

          k = 0.2500 0.2495-0.5000 (  5128 PWs)   bands (ev):

   -64.8284 -64.8280 -64.8260 -64.8253 -31.6280 -31.6278 -31.6205 -31.6204
   -31.5918 -31.5915 -31.5805 -31.5805 -31.5783 -31.5780 -31.5771 -31.5770
    -8.4003  -8.4002  -7.9959  -7.9958   3.8237   3.8237   4.1929   4.1930
     5.8276   5.8276   6.7392   6.7394   6.8675   6.8676   7.0256   7.0256

          k = 0.2500-0.5005 0.0000 (  5148 PWs)   bands (ev):

   -64.8289 -64.8285 -64.8255 -64.8249 -31.6178 -31.6161 -31.6106 -31.6091
   -31.6066 -31.6064 -31.5847 -31.5844 -31.5839 -31.5830 -31.5755 -31.5747
    -8.5113  -8.5079  -7.9488  -7.9450   4.4161   4.4207   4.7502   4.7522
     5.0944   5.0982   6.5405   6.5555   6.5731   6.5785   7.0885   7.0998

          k = 0.2500-0.5005 0.2500 (  5134 PWs)   bands (ev):

   -64.8284 -64.8280 -64.8260 -64.8254 -31.6279 -31.6272 -31.6214 -31.6201
   -31.5927 -31.5925 -31.5806 -31.5801 -31.5782 -31.5778 -31.5773 -31.5768
    -8.4008  -8.3974  -7.9990  -7.9953   3.8177   3.8253   4.1952   4.2008
     5.8287   5.8321   6.7349   6.7458   6.8650   6.8725   7.0144   7.0177

          k = 0.2500-0.5005-0.5000 (  5138 PWs)   bands (ev):

   -64.8272 -64.8272 -64.8272 -64.8262 -31.6318 -31.6317 -31.6307 -31.6306
   -31.5830 -31.5828 -31.5824 -31.5822 -31.5753 -31.5751 -31.5749 -31.5749
    -8.1696  -8.1695  -8.1661  -8.1660   3.6363   3.6364   3.6443   3.6444
     6.5187   6.5187   6.5301   6.5301   7.0626   7.0628   7.0661   7.0662

          k = 0.2500-0.2505 0.0000 (  5161 PWs)   bands (ev):

   -64.8316 -64.8260 -64.8256 -64.8246 -31.6204 -31.6203 -31.6193 -31.6077
   -31.5941 -31.5941 -31.5935 -31.5871 -31.5868 -31.5866 -31.5752 -31.5676
    -8.9650  -8.0653  -8.0652  -7.8890   4.1619   4.1619   4.3298   5.0779
     5.8508   6.0535   6.0539   6.4870   6.4871   6.5723   7.1754   7.4980

          k = 0.2500-0.2505 0.2500 (  5158 PWs)   bands (ev):

   -64.8306 -64.8260 -64.8260 -64.8252 -31.6250 -31.6243 -31.6242 -31.6062
   -31.5942 -31.5940 -31.5937 -31.5839 -31.5839 -31.5834 -31.5712 -31.5708
    -8.7951  -8.0325  -8.0320  -8.0290   3.9987   3.9994   4.0052   5.0938
     5.8438   5.8470   5.8523   6.6946   6.7063   6.7065   7.3471   7.3564

          k = 0.2500-0.2505-0.5000 (  5140 PWs)   bands (ev):

   -64.8284 -64.8280 -64.8260 -64.8254 -31.6274 -31.6272 -31.6212 -31.6211
   -31.5935 -31.5932 -31.5803 -31.5802 -31.5779 -31.5778 -31.5771 -31.5769
    -8.3980  -8.3979  -7.9985  -7.9984   3.8193   3.8193   4.2029   4.2030
     5.8332   5.8333   6.7412   6.7414   6.8700   6.8701   7.0064   7.0065

          k =-0.5000 0.0011 0.0000 (  5110 PWs)   bands (ev):

   -64.8296 -64.8292 -64.8248 -64.8242 -31.6092 -31.6092 -31.6090 -31.6090
   -31.6018 -31.6017 -31.5905 -31.5904 -31.5804 -31.5803 -31.5802 -31.5801
    -8.6460  -8.6459  -7.8565  -7.8564   4.8479   4.8479   4.8479   4.8480
     5.1227   5.1229   5.9734   5.9737   6.9683   6.9683   6.9684   6.9684

          k =-0.5000 0.0011 0.2500 (  5150 PWs)   bands (ev):

   -64.8289 -64.8285 -64.8255 -64.8249 -31.6171 -31.6170 -31.6099 -31.6098
   -31.6066 -31.6064 -31.5848 -31.5846 -31.5836 -31.5836 -31.5750 -31.5749
    -8.5096  -8.5096  -7.9469  -7.9469   4.4183   4.4184   4.7511   4.7513
     5.0963   5.0963   6.5477   6.5480   6.5758   6.5758   7.0941   7.0942

          k =-0.5000 0.0011-0.5000 (  5216 PWs)   bands (ev):

   -64.8272 -64.8272 -64.8272 -64.8262 -31.6193 -31.6191 -31.6189 -31.6189
   -31.5974 -31.5972 -31.5969 -31.5967 -31.5767 -31.5766 -31.5763 -31.5763
    -8.2077  -8.2076  -8.2031  -8.2030   4.2890   4.2891   4.2975   4.2976
     5.7616   5.7617   5.7726   5.7727   7.0608   7.0610   7.0655   7.0657

          k =-0.5000 0.2511 0.0000 (  5148 PWs)   bands (ev):

   -64.8289 -64.8285 -64.8255 -64.8249 -31.6178 -31.6161 -31.6106 -31.6091
   -31.6066 -31.6064 -31.5847 -31.5844 -31.5839 -31.5830 -31.5755 -31.5747
    -8.5113  -8.5079  -7.9488  -7.9450   4.4161   4.4207   4.7502   4.7522
     5.0944   5.0982   6.5404   6.5554   6.5731   6.5785   7.0885   7.0998

          k =-0.5000 0.2511 0.2500 (  5134 PWs)   bands (ev):

   -64.8284 -64.8280 -64.8260 -64.8254 -31.6279 -31.6272 -31.6214 -31.6201
   -31.5927 -31.5925 -31.5806 -31.5801 -31.5781 -31.5778 -31.5773 -31.5768
    -8.4008  -8.3974  -7.9990  -7.9953   3.8177   3.8253   4.1952   4.2008
     5.8287   5.8321   6.7349   6.7457   6.8650   6.8725   7.0144   7.0177

          k =-0.5000 0.2511-0.5000 (  5138 PWs)   bands (ev):

   -64.8272 -64.8272 -64.8272 -64.8262 -31.6319 -31.6317 -31.6307 -31.6306
   -31.5831 -31.5828 -31.5823 -31.5821 -31.5753 -31.5752 -31.5749 -31.5749
    -8.1702  -8.1701  -8.1655  -8.1654   3.6353   3.6354   3.6453   3.6454
     6.5174   6.5174   6.5314   6.5314   7.0620   7.0621   7.0667   7.0669

          k =-0.5000-0.4989 0.0000 (  5216 PWs)   bands (ev):

   -64.8272 -64.8272 -64.8272 -64.8262 -31.6201 -31.6199 -31.6182 -31.6179
   -31.5973 -31.5971 -31.5970 -31.5968 -31.5772 -31.5769 -31.5760 -31.5758
    -8.2079  -8.2078  -8.2028  -8.2027   4.2918   4.2919   4.2947   4.2947
     5.7638   5.7641   5.7701   5.7705   7.0547   7.0547   7.0719   7.0720

          k =-0.5000-0.4989 0.2500 (  5136 PWs)   bands (ev):

   -64.8272 -64.8272 -64.8272 -64.8262 -31.6317 -31.6315 -31.6306 -31.6304
   -31.5829 -31.5828 -31.5824 -31.5823 -31.5759 -31.5756 -31.5746 -31.5744
    -8.1704  -8.1703  -8.1653  -8.1652   3.6371   3.6372   3.6436   3.6436
     6.5233   6.5236   6.5252   6.5254   7.0558   7.0559   7.0730   7.0731

          k =-0.5000-0.4989-0.5000 (  5136 PWs)   bands (ev):

   -64.8272 -64.8272 -64.8272 -64.8262 -31.6405 -31.6403 -31.6380 -31.6379
   -31.5752 -31.5751 -31.5751 -31.5748 -31.5745 -31.5744 -31.5743 -31.5742
    -8.1323  -8.1322  -8.1272  -8.1271   3.2133   3.2133   3.2217   3.2218
     7.0564   7.0565   7.0651   7.0653   7.0653   7.0655   7.0742   7.0742

     highest occupied level (ev):     7.6803

!    total energy              =    -608.39287105 Ry
     Harris-Foulkes estimate   =    -608.39287105 Ry
     estimated scf accuracy    <          1.3E-09 Ry

     The total energy is the sum of the following terms:

     one-electron contribution =    -303.55761958 Ry
     hartree contribution      =     168.06807416 Ry
     xc contribution           =     -97.84641667 Ry
     ewald contribution        =    -375.05690896 Ry

     convergence has been achieved in   9 iterations

     Forces acting on atoms (cartesian axes, Ry/au):

     atom    1 type  1   force =    -0.00050446    0.00000671    0.00000000
     atom    2 type  1   force =     0.00054838   -0.00000662    0.00000000
     atom    3 type  1   force =    -0.00050465    0.00000601    0.00000000
     atom    4 type  1   force =     0.00044104   -0.00000532    0.00000000
     atom    5 type  2   force =    -0.00063044    0.00000362    0.00000000
     atom    6 type  2   force =     0.00066909   -0.00000402    0.00000000
     atom    7 type  2   force =    -0.00062971    0.00000333    0.00000000
     atom    8 type  2   force =     0.00061076   -0.00000371    0.00000000

     Total force =     0.001618     Total SCF correction =     0.000005


     Computing stress (Cartesian axis) and pressure

          total   stress  (Ry/bohr**3)                   (kbar)     P=  -68.02
  -0.00046279  -0.00002038   0.00000000        -68.08     -3.00      0.00
  -0.00002038  -0.00046265   0.00000000         -3.00    -68.06      0.00
   0.00000000   0.00000000  -0.00046172          0.00      0.00    -67.92


     BFGS Geometry Optimization

     number of scf cycles    =   1
     number of bfgs steps    =   0

     energy   new            =    -608.3928710527 Ry

     new trust radius        =       0.0006691014 bohr
     new conv_thr            =       0.0000000100 Ry


ATOMIC_POSITIONS (alat)
Mg      -0.000062707   0.000000834   0.000000000
Mg       0.000068166   0.499999177   0.500000000
Mg       0.499937269   0.000000747   0.500000000
Mg       0.500054824   0.499999338   0.000000000
O        0.499921633   0.000000450   0.000000000
O        0.000083171   0.499999501   0.000000000
O       -0.000078276   0.000000414   0.500000000
O        0.500075920   0.499999539   0.500000000



     Writing output data file diamond..70.4.save
     NEW-OLD atomic charge density approx. for the potential

     Check: negative/imaginary core charge=   -0.000008    0.000000

     total cpu time spent up to now is       10.2 secs

     per-process dynamical memory:    52.3 Mb

     Self-consistent Calculation

     iteration #  1     ecut=    70.00 Ry     beta=0.70
     Davidson diagonalization with overlap
     ethr =  1.00E-06,  avg # of iterations =  2.0

     Threshold (ethr) on eigenvalues was too large:
     Diagonalizing with lowered threshold

     Davidson diagonalization with overlap
     ethr =  1.83E-10,  avg # of iterations =  3.0

     total cpu time spent up to now is       12.5 secs

     total energy              =    -608.39287346 Ry
     Harris-Foulkes estimate   =    -608.39287356 Ry
     estimated scf accuracy    <       0.00000018 Ry

     iteration #  2     ecut=    70.00 Ry     beta=0.70
     Davidson diagonalization with overlap
     ethr =  2.74E-10,  avg # of iterations =  2.0

     total cpu time spent up to now is       13.5 secs

     End of self-consistent calculation

          k = 0.0000 0.0000 0.0000 (  5137 PWs)   bands (ev):

   -64.8344 -64.8250 -64.8250 -64.8242 -31.6309 -31.6309 -31.6309 -31.5938
   -31.5934 -31.5933 -31.5933 -31.5933 -31.5928 -31.5639 -31.5633 -31.5626
    -9.3647  -7.9138  -7.9138  -7.9136   3.7581   3.7581   3.7581   6.3676
     6.3799   6.3800   6.3800   6.3803   6.3925   7.6648   7.6725   7.6802

          k = 0.0000 0.0000 0.2500 (  5157 PWs)   bands (ev):

   -64.8330 -64.8262 -64.8250 -64.8244 -31.6241 -31.6241 -31.6204 -31.5981
   -31.5980 -31.5939 -31.5939 -31.5895 -31.5885 -31.5781 -31.5720 -31.5708
    -9.1562  -8.1286  -7.8853  -7.8852   4.0485   4.0486   4.0956   5.8581
     5.8581   6.1705   6.1708   6.5308   6.5547   6.6589   7.4416   7.4589

          k = 0.0000 0.0000-0.5000 (  5110 PWs)   bands (ev):

   -64.8298 -64.8294 -64.8250 -64.8244 -31.6104 -31.6102 -31.6083 -31.6080
   -31.6019 -31.6018 -31.5907 -31.5906 -31.5811 -31.5808 -31.5800 -31.5797
    -8.6460  -8.6459  -7.8565  -7.8564   4.8464   4.8465   4.8493   4.8494
     5.1227   5.1230   5.9734   5.9737   6.9578   6.9579   6.9788   6.9789

          k = 0.0000 0.2500 0.0000 (  5159 PWs)   bands (ev):

   -64.8330 -64.8262 -64.8250 -64.8244 -31.6243 -31.6243 -31.6204 -31.5983
   -31.5982 -31.5938 -31.5935 -31.5890 -31.5890 -31.5782 -31.5714 -31.5713
    -9.1562  -8.1286  -7.8854  -7.8852   4.0484   4.0484   4.0955   5.8577
     5.8581   6.1706   6.1712   6.5427   6.5427   6.6589   7.4502   7.4503

          k = 0.0000 0.2500 0.2500 (  5162 PWs)   bands (ev):

   -64.8318 -64.8262 -64.8258 -64.8247 -31.6213 -31.6209 -31.6195 -31.6071
   -31.5941 -31.5940 -31.5929 -31.5878 -31.5868 -31.5866 -31.5753 -31.5683
    -8.9661  -8.0639  -8.0639  -7.8903   4.1611   4.1613   4.3287   5.0713
     5.8470   6.0553   6.0556   6.4847   6.4850   6.5834   7.1733   7.5056

          k = 0.0000 0.2500-0.5000 (  5152 PWs)   bands (ev):

   -64.8291 -64.8287 -64.8257 -64.8251 -31.6173 -31.6171 -31.6100 -31.6100
   -31.6068 -31.6065 -31.5850 -31.5847 -31.5837 -31.5836 -31.5754 -31.5752
    -8.5097  -8.5095  -7.9470  -7.9469   4.4184   4.4184   4.7511   4.7513
     5.0962   5.0963   6.5477   6.5480   6.5757   6.5758   7.0941   7.0942

          k = 0.0000-0.5000 0.0000 (  5110 PWs)   bands (ev):

   -64.8298 -64.8294 -64.8250 -64.8244 -31.6094 -31.6094 -31.6092 -31.6091
   -31.6019 -31.6019 -31.5906 -31.5906 -31.5805 -31.5805 -31.5803 -31.5803
    -8.6460  -8.6459  -7.8566  -7.8564   4.8478   4.8479   4.8480   4.8480
     5.1226   5.1230   5.9734   5.9738   6.9683   6.9683   6.9684   6.9684

          k = 0.0000-0.5000 0.2500 (  5150 PWs)   bands (ev):

   -64.8291 -64.8287 -64.8257 -64.8251 -31.6173 -31.6171 -31.6100 -31.6100
   -31.6067 -31.6065 -31.5850 -31.5847 -31.5837 -31.5837 -31.5752 -31.5750
    -8.5097  -8.5095  -7.9470  -7.9469   4.4183   4.4184   4.7511   4.7513
     5.0963   5.0964   6.5477   6.5480   6.5758   6.5758   7.0941   7.0941

          k = 0.0000-0.5000-0.5000 (  5216 PWs)   bands (ev):

   -64.8274 -64.8274 -64.8274 -64.8263 -31.6194 -31.6192 -31.6191 -31.6191
   -31.5974 -31.5972 -31.5972 -31.5969 -31.5768 -31.5766 -31.5765 -31.5765
    -8.2055  -8.2054  -8.2054  -8.2052   4.2931   4.2933   4.2933   4.2934
     5.7669   5.7671   5.7672   5.7672   7.0631   7.0633   7.0633   7.0634

          k = 0.2500-0.0005 0.0000 (  5159 PWs)   bands (ev):

   -64.8330 -64.8262 -64.8250 -64.8244 -31.6243 -31.6243 -31.6204 -31.5983
   -31.5982 -31.5938 -31.5935 -31.5890 -31.5890 -31.5782 -31.5714 -31.5713
    -9.1562  -8.1286  -7.8853  -7.8853   4.0484   4.0484   4.0955   5.8578
     5.8581   6.1706   6.1710   6.5427   6.5427   6.6588   7.4502   7.4503

          k = 0.2500-0.0005 0.2500 (  5162 PWs)   bands (ev):

   -64.8318 -64.8262 -64.8258 -64.8247 -31.6213 -31.6209 -31.6195 -31.6071
   -31.5942 -31.5939 -31.5929 -31.5878 -31.5868 -31.5866 -31.5753 -31.5683
    -8.9661  -8.0653  -8.0625  -7.8903   4.1588   4.1637   4.3287   5.0713
     5.8470   6.0519   6.0590   6.4831   6.4865   6.5834   7.1733   7.5056

          k = 0.2500-0.0005-0.5000 (  5152 PWs)   bands (ev):

   -64.8291 -64.8287 -64.8257 -64.8251 -31.6173 -31.6172 -31.6100 -31.6100
   -31.6068 -31.6065 -31.5850 -31.5847 -31.5837 -31.5837 -31.5754 -31.5752
    -8.5097  -8.5095  -7.9470  -7.9469   4.4183   4.4184   4.7511   4.7513
     5.0962   5.0963   6.5478   6.5480   6.5757   6.5758   7.0941   7.0942

          k = 0.2500 0.2495 0.0000 (  5161 PWs)   bands (ev):

   -64.8318 -64.8262 -64.8258 -64.8248 -31.6213 -31.6211 -31.6194 -31.6063
   -31.5944 -31.5943 -31.5921 -31.5883 -31.5864 -31.5863 -31.5754 -31.5690
    -8.9672  -8.0626  -8.0625  -7.8916   4.1610   4.1610   4.3275   5.0647
     5.8434   6.0569   6.0573   6.4823   6.4824   6.5946   7.1712   7.5131

          k = 0.2500 0.2495 0.2500 (  5154 PWs)   bands (ev):

   -64.8308 -64.8262 -64.8261 -64.8253 -31.6256 -31.6254 -31.6249 -31.6057
   -31.5933 -31.5930 -31.5928 -31.5843 -31.5841 -31.5841 -31.5715 -31.5711
    -8.7973  -8.0324  -8.0294  -8.0290   3.9958   4.0014   4.0019   5.0845
     5.8398   5.8445   5.8471   6.7041   6.7043   6.7163   7.3542   7.3636

          k = 0.2500 0.2495-0.5000 (  5128 PWs)   bands (ev):

   -64.8286 -64.8282 -64.8261 -64.8255 -31.6281 -31.6280 -31.6206 -31.6205
   -31.5919 -31.5917 -31.5806 -31.5806 -31.5784 -31.5782 -31.5773 -31.5772
    -8.4003  -8.4002  -7.9959  -7.9958   3.8237   3.8237   4.1929   4.1930
     5.8275   5.8276   6.7391   6.7394   6.8675   6.8676   7.0255   7.0256

          k = 0.2500-0.5005 0.0000 (  5148 PWs)   bands (ev):

   -64.8291 -64.8287 -64.8257 -64.8251 -31.6179 -31.6162 -31.6107 -31.6092
   -31.6067 -31.6065 -31.5849 -31.5845 -31.5840 -31.5832 -31.5757 -31.5748
    -8.5113  -8.5079  -7.9488  -7.9451   4.4161   4.4207   4.7502   4.7522
     5.0944   5.0982   6.5404   6.5554   6.5731   6.5785   7.0885   7.0997

          k = 0.2500-0.5005 0.2500 (  5134 PWs)   bands (ev):

   -64.8286 -64.8282 -64.8262 -64.8255 -31.6280 -31.6273 -31.6216 -31.6203
   -31.5928 -31.5926 -31.5808 -31.5802 -31.5783 -31.5780 -31.5775 -31.5770
    -8.4008  -8.3974  -7.9990  -7.9953   3.8177   3.8253   4.1951   4.2007
     5.8287   5.8321   6.7349   6.7457   6.8650   6.8724   7.0144   7.0177

          k = 0.2500-0.5005-0.5000 (  5138 PWs)   bands (ev):

   -64.8274 -64.8274 -64.8273 -64.8263 -31.6320 -31.6318 -31.6308 -31.6307
   -31.5832 -31.5830 -31.5825 -31.5823 -31.5755 -31.5753 -31.5751 -31.5750
    -8.1696  -8.1695  -8.1662  -8.1660   3.6363   3.6364   3.6443   3.6444
     6.5186   6.5187   6.5301   6.5301   7.0626   7.0628   7.0660   7.0662

          k = 0.2500-0.2505 0.0000 (  5161 PWs)   bands (ev):

   -64.8318 -64.8262 -64.8258 -64.8247 -31.6205 -31.6204 -31.6195 -31.6079
   -31.5943 -31.5942 -31.5936 -31.5873 -31.5869 -31.5868 -31.5753 -31.5677
    -8.9650  -8.0653  -8.0652  -7.8890   4.1618   4.1619   4.3298   5.0779
     5.8508   6.0535   6.0539   6.4870   6.4871   6.5723   7.1754   7.4980

          k = 0.2500-0.2505 0.2500 (  5158 PWs)   bands (ev):

   -64.8308 -64.8262 -64.8262 -64.8254 -31.6252 -31.6245 -31.6243 -31.6064
   -31.5943 -31.5942 -31.5939 -31.5840 -31.5840 -31.5836 -31.5713 -31.5709
    -8.7951  -8.0325  -8.0321  -8.0291   3.9989   3.9994   4.0050   5.0938
     5.8443   5.8470   5.8517   6.6946   6.7063   6.7065   7.3470   7.3564

          k = 0.2500-0.2505-0.5000 (  5140 PWs)   bands (ev):

   -64.8286 -64.8282 -64.8262 -64.8256 -31.6275 -31.6274 -31.6213 -31.6212
   -31.5936 -31.5934 -31.5804 -31.5804 -31.5781 -31.5780 -31.5773 -31.5770
    -8.3980  -8.3979  -7.9986  -7.9984   3.8193   3.8193   4.2029   4.2030
     5.8332   5.8333   6.7412   6.7414   6.8699   6.8701   7.0064   7.0065

          k =-0.5000 0.0011 0.0000 (  5110 PWs)   bands (ev):

   -64.8298 -64.8294 -64.8250 -64.8244 -31.6094 -31.6094 -31.6092 -31.6091
   -31.6019 -31.6019 -31.5906 -31.5906 -31.5805 -31.5805 -31.5803 -31.5803
    -8.6460  -8.6459  -7.8565  -7.8565   4.8479   4.8479   4.8480   4.8480
     5.1227   5.1229   5.9734   5.9737   6.9683   6.9683   6.9684   6.9684

          k =-0.5000 0.0011 0.2500 (  5150 PWs)   bands (ev):

   -64.8291 -64.8287 -64.8257 -64.8251 -31.6173 -31.6171 -31.6100 -31.6100
   -31.6067 -31.6065 -31.5849 -31.5847 -31.5837 -31.5837 -31.5752 -31.5750
    -8.5096  -8.5096  -7.9469  -7.9469   4.4183   4.4184   4.7511   4.7513
     5.0963   5.0964   6.5477   6.5479   6.5758   6.5759   7.0941   7.0942

          k =-0.5000 0.0011-0.5000 (  5216 PWs)   bands (ev):

   -64.8274 -64.8274 -64.8273 -64.8263 -31.6194 -31.6192 -31.6190 -31.6190
   -31.5975 -31.5973 -31.5971 -31.5968 -31.5769 -31.5767 -31.5765 -31.5764
    -8.2074  -8.2072  -8.2035  -8.2034   4.2896   4.2897   4.2968   4.2969
     5.7624   5.7625   5.7718   5.7718   7.0612   7.0613   7.0652   7.0654

          k =-0.5000 0.2511 0.0000 (  5148 PWs)   bands (ev):

   -64.8291 -64.8287 -64.8257 -64.8251 -31.6179 -31.6162 -31.6107 -31.6092
   -31.6067 -31.6065 -31.5849 -31.5845 -31.5840 -31.5832 -31.5757 -31.5748
    -8.5113  -8.5079  -7.9488  -7.9451   4.4161   4.4207   4.7502   4.7522
     5.0944   5.0982   6.5404   6.5554   6.5731   6.5785   7.0885   7.0997

          k =-0.5000 0.2511 0.2500 (  5134 PWs)   bands (ev):

   -64.8286 -64.8282 -64.8262 -64.8255 -31.6280 -31.6273 -31.6216 -31.6203
   -31.5928 -31.5926 -31.5808 -31.5802 -31.5783 -31.5780 -31.5774 -31.5770
    -8.4008  -8.3974  -7.9990  -7.9953   3.8177   3.8253   4.1951   4.2007
     5.8287   5.8321   6.7349   6.7457   6.8650   6.8725   7.0144   7.0177

          k =-0.5000 0.2511-0.5000 (  5138 PWs)   bands (ev):

   -64.8274 -64.8274 -64.8273 -64.8263 -31.6320 -31.6318 -31.6308 -31.6307
   -31.5832 -31.5830 -31.5825 -31.5823 -31.5755 -31.5753 -31.5751 -31.5750
    -8.1701  -8.1700  -8.1656  -8.1655   3.6355   3.6356   3.6451   3.6451
     6.5177   6.5177   6.5310   6.5311   7.0621   7.0623   7.0665   7.0667

          k =-0.5000-0.4989 0.0000 (  5216 PWs)   bands (ev):

   -64.8274 -64.8274 -64.8273 -64.8263 -31.6203 -31.6200 -31.6183 -31.6181
   -31.5974 -31.5973 -31.5972 -31.5969 -31.5773 -31.5771 -31.5762 -31.5759
    -8.2080  -8.2078  -8.2029  -8.2027   4.2918   4.2919   4.2947   4.2948
     5.7637   5.7641   5.7701   5.7705   7.0546   7.0547   7.0719   7.0720

          k =-0.5000-0.4989 0.2500 (  5136 PWs)   bands (ev):

   -64.8274 -64.8274 -64.8273 -64.8263 -31.6318 -31.6316 -31.6307 -31.6306
   -31.5830 -31.5829 -31.5825 -31.5825 -31.5760 -31.5758 -31.5748 -31.5745
    -8.1704  -8.1703  -8.1653  -8.1652   3.6371   3.6372   3.6436   3.6436
     6.5233   6.5235   6.5251   6.5254   7.0558   7.0558   7.0730   7.0730

          k =-0.5000-0.4989-0.5000 (  5136 PWs)   bands (ev):

   -64.8274 -64.8274 -64.8273 -64.8263 -31.6406 -31.6405 -31.6382 -31.6381
   -31.5753 -31.5752 -31.5752 -31.5749 -31.5747 -31.5745 -31.5744 -31.5744
    -8.1324  -8.1323  -8.1272  -8.1271   3.2133   3.2133   3.2217   3.2218
     7.0564   7.0565   7.0650   7.0652   7.0653   7.0655   7.0741   7.0742

     highest occupied level (ev):     7.6802

!    total energy              =    -608.39287349 Ry
     Harris-Foulkes estimate   =    -608.39287349 Ry
     estimated scf accuracy    <          5.9E-09 Ry

     The total energy is the sum of the following terms:

     one-electron contribution =    -303.55786614 Ry
     hartree contribution      =     168.06836103 Ry
     xc contribution           =     -97.84647926 Ry
     ewald contribution        =    -375.05688912 Ry

     convergence has been achieved in   2 iterations

     Forces acting on atoms (cartesian axes, Ry/au):

     atom    1 type  1   force =    -0.00040700    0.00000360    0.00000000
     atom    2 type  1   force =     0.00045070   -0.00000399    0.00000000
     atom    3 type  1   force =    -0.00042094    0.00000384    0.00000000
     atom    4 type  1   force =     0.00036761   -0.00000344    0.00000000
     atom    5 type  2   force =    -0.00052619    0.00000179    0.00000000
     atom    6 type  2   force =     0.00054049   -0.00000160    0.00000000
     atom    7 type  2   force =    -0.00051675    0.00000155    0.00000000
     atom    8 type  2   force =     0.00051208   -0.00000175    0.00000000

     Total force =     0.001334     Total SCF correction =     0.000326
     SCF correction compared to forces is large: reduce conv_thr to get better values


     Computing stress (Cartesian axis) and pressure

          total   stress  (Ry/bohr**3)                   (kbar)     P=  -67.94
  -0.00046222  -0.00002038   0.00000000        -67.99     -3.00      0.00
  -0.00002038  -0.00046208   0.00000000         -3.00    -67.98      0.00
   0.00000000   0.00000000  -0.00046114          0.00      0.00    -67.84


     number of scf cycles    =   2
     number of bfgs steps    =   1

     energy   old            =    -608.3928710527 Ry
     energy   new            =    -608.3928734887 Ry

     CASE: energy  _new < energy  _old


     WARNING: bfgs curvature condition failed, Theta= 0.971
     new trust radius        =       0.0007360115 bohr
     new conv_thr            =            1.0E-10 Ry


ATOMIC_POSITIONS (alat)
Mg      -0.000131602   0.000001452   0.000000000
Mg       0.000144418   0.499998494   0.500000000
Mg       0.499866081   0.000001403   0.500000000
Mg       0.500116994   0.499998751   0.000000000
O        0.499832648   0.000000758   0.000000000
O        0.000174660   0.499999223   0.000000000
O       -0.000165707   0.000000683   0.500000000
O        0.500162508   0.499999237   0.500000000



     Writing output data file diamond..70.4.save
     NEW-OLD atomic charge density approx. for the potential

     Check: negative/imaginary core charge=   -0.000008    0.000000

     total cpu time spent up to now is       14.1 secs

     per-process dynamical memory:    52.3 Mb

     Self-consistent Calculation

     iteration #  1     ecut=    70.00 Ry     beta=0.70
     Davidson diagonalization with overlap
     ethr =  1.00E-06,  avg # of iterations =  2.0

     Threshold (ethr) on eigenvalues was too large:
     Diagonalizing with lowered threshold

     Davidson diagonalization with overlap
     ethr =  2.63E-10,  avg # of iterations =  3.0

     total cpu time spent up to now is       16.5 secs

     total energy              =    -608.39287574 Ry
     Harris-Foulkes estimate   =    -608.39287589 Ry
     estimated scf accuracy    <       0.00000025 Ry

     iteration #  2     ecut=    70.00 Ry     beta=0.70
     Davidson diagonalization with overlap
     ethr =  3.83E-10,  avg # of iterations =  2.0

     total cpu time spent up to now is       17.5 secs

     total energy              =    -608.39287579 Ry
     Harris-Foulkes estimate   =    -608.39287579 Ry
     estimated scf accuracy    <       0.00000001 Ry

     iteration #  3     ecut=    70.00 Ry     beta=0.70
     Davidson diagonalization with overlap
     ethr =  2.22E-11,  avg # of iterations =  3.0

     total cpu time spent up to now is       18.6 secs

     total energy              =    -608.39287579 Ry
     Harris-Foulkes estimate   =    -608.39287579 Ry
     estimated scf accuracy    <          8.7E-09 Ry

     iteration #  4     ecut=    70.00 Ry     beta=0.70
     Davidson diagonalization with overlap
     ethr =  1.35E-11,  avg # of iterations =  2.9

     total cpu time spent up to now is       19.7 secs

     total energy              =    -608.39287579 Ry
     Harris-Foulkes estimate   =    -608.39287579 Ry
     estimated scf accuracy    <          6.9E-10 Ry

     iteration #  5     ecut=    70.00 Ry     beta=0.70
     Davidson diagonalization with overlap
     ethr =  1.07E-12,  avg # of iterations =  3.0

     total cpu time spent up to now is       20.8 secs

     End of self-consistent calculation

          k = 0.0000 0.0000 0.0000 (  5137 PWs)   bands (ev):

   -64.8345 -64.8250 -64.8250 -64.8242 -31.6309 -31.6309 -31.6309 -31.5938
   -31.5934 -31.5933 -31.5933 -31.5933 -31.5929 -31.5639 -31.5633 -31.5626
    -9.3646  -7.9138  -7.9137  -7.9136   3.7581   3.7581   3.7581   6.3676
     6.3799   6.3801   6.3801   6.3803   6.3926   7.6648   7.6725   7.6803

          k = 0.0000 0.0000 0.2500 (  5157 PWs)   bands (ev):

   -64.8330 -64.8262 -64.8250 -64.8244 -31.6241 -31.6241 -31.6204 -31.5981
   -31.5981 -31.5939 -31.5939 -31.5895 -31.5885 -31.5782 -31.5720 -31.5708
    -9.1562  -8.1286  -7.8853  -7.8852   4.0486   4.0486   4.0956   5.8581
     5.8581   6.1705   6.1709   6.5308   6.5547   6.6589   7.4416   7.4590

          k = 0.0000 0.0000-0.5000 (  5110 PWs)   bands (ev):

   -64.8298 -64.8294 -64.8250 -64.8244 -31.6104 -31.6102 -31.6083 -31.6081
   -31.6019 -31.6019 -31.5907 -31.5906 -31.5811 -31.5809 -31.5800 -31.5797
    -8.6460  -8.6459  -7.8565  -7.8564   4.8465   4.8465   4.8494   4.8494
     5.1227   5.1230   5.9734   5.9738   6.9579   6.9579   6.9789   6.9789

          k = 0.0000 0.2500 0.0000 (  5159 PWs)   bands (ev):

   -64.8330 -64.8262 -64.8250 -64.8244 -31.6244 -31.6243 -31.6204 -31.5983
   -31.5982 -31.5939 -31.5935 -31.5890 -31.5890 -31.5782 -31.5714 -31.5713
    -9.1562  -8.1285  -7.8853  -7.8852   4.0484   4.0484   4.0955   5.8577
     5.8581   6.1706   6.1712   6.5427   6.5427   6.6589   7.4503   7.4503

          k = 0.0000 0.2500 0.2500 (  5162 PWs)   bands (ev):

   -64.8318 -64.8262 -64.8258 -64.8248 -31.6213 -31.6209 -31.6195 -31.6071
   -31.5941 -31.5940 -31.5929 -31.5878 -31.5868 -31.5866 -31.5754 -31.5684
    -8.9660  -8.0639  -8.0638  -7.8902   4.1612   4.1614   4.3287   5.0713
     5.8471   6.0553   6.0557   6.4847   6.4850   6.5835   7.1733   7.5056

          k = 0.0000 0.2500-0.5000 (  5152 PWs)   bands (ev):

   -64.8291 -64.8287 -64.8257 -64.8251 -31.6173 -31.6172 -31.6100 -31.6100
   -31.6068 -31.6065 -31.5850 -31.5848 -31.5837 -31.5837 -31.5754 -31.5752
    -8.5096  -8.5095  -7.9469  -7.9468   4.4184   4.4185   4.7511   4.7513
     5.0963   5.0963   6.5478   6.5480   6.5758   6.5758   7.0942   7.0942

          k = 0.0000-0.5000 0.0000 (  5110 PWs)   bands (ev):

   -64.8298 -64.8294 -64.8250 -64.8244 -31.6094 -31.6094 -31.6092 -31.6092
   -31.6019 -31.6019 -31.5907 -31.5906 -31.5806 -31.5805 -31.5803 -31.5803
    -8.6459  -8.6459  -7.8565  -7.8564   4.8479   4.8479   4.8480   4.8480
     5.1227   5.1230   5.9735   5.9738   6.9683   6.9684   6.9684   6.9684

          k = 0.0000-0.5000 0.2500 (  5150 PWs)   bands (ev):

   -64.8291 -64.8287 -64.8257 -64.8251 -31.6173 -31.6171 -31.6100 -31.6100
   -31.6067 -31.6065 -31.5850 -31.5847 -31.5838 -31.5837 -31.5752 -31.5750
    -8.5096  -8.5095  -7.9469  -7.9469   4.4184   4.4184   4.7511   4.7513
     5.0963   5.0964   6.5478   6.5480   6.5758   6.5758   7.0941   7.0942

          k = 0.0000-0.5000-0.5000 (  5216 PWs)   bands (ev):

   -64.8274 -64.8274 -64.8274 -64.8264 -31.6194 -31.6192 -31.6191 -31.6191
   -31.5974 -31.5972 -31.5972 -31.5969 -31.5768 -31.5767 -31.5765 -31.5765
    -8.2055  -8.2053  -8.2053  -8.2053   4.2932   4.2933   4.2933   4.2935
     5.7670   5.7670   5.7673   5.7673   7.0632   7.0633   7.0633   7.0635

          k = 0.2500-0.0005 0.0000 (  5159 PWs)   bands (ev):

   -64.8330 -64.8262 -64.8250 -64.8244 -31.6244 -31.6243 -31.6204 -31.5983
   -31.5982 -31.5939 -31.5935 -31.5890 -31.5890 -31.5782 -31.5714 -31.5713
    -9.1562  -8.1286  -7.8853  -7.8852   4.0484   4.0484   4.0955   5.8578
     5.8581   6.1706   6.1711   6.5427   6.5427   6.6589   7.4503   7.4503

          k = 0.2500-0.0005 0.2500 (  5162 PWs)   bands (ev):

   -64.8318 -64.8262 -64.8258 -64.8248 -31.6213 -31.6209 -31.6195 -31.6071
   -31.5942 -31.5940 -31.5929 -31.5878 -31.5868 -31.5866 -31.5754 -31.5684
    -8.9660  -8.0650  -8.0627  -7.8902   4.1593   4.1632   4.3287   5.0713
     5.8471   6.0526   6.0584   6.4835   6.4862   6.5835   7.1733   7.5056

          k = 0.2500-0.0005-0.5000 (  5152 PWs)   bands (ev):

   -64.8291 -64.8287 -64.8257 -64.8251 -31.6173 -31.6172 -31.6100 -31.6100
   -31.6068 -31.6065 -31.5850 -31.5848 -31.5837 -31.5837 -31.5754 -31.5752
    -8.5096  -8.5095  -7.9469  -7.9468   4.4184   4.4185   4.7511   4.7513
     5.0962   5.0963   6.5478   6.5480   6.5758   6.5758   7.0942   7.0942

          k = 0.2500 0.2495 0.0000 (  5161 PWs)   bands (ev):

   -64.8318 -64.8262 -64.8258 -64.8248 -31.6213 -31.6211 -31.6195 -31.6064
   -31.5944 -31.5943 -31.5922 -31.5883 -31.5865 -31.5863 -31.5754 -31.5690
    -8.9671  -8.0625  -8.0624  -7.8915   4.1610   4.1611   4.3275   5.0647
     5.8434   6.0569   6.0573   6.4824   6.4824   6.5946   7.1712   7.5132

          k = 0.2500 0.2495 0.2500 (  5154 PWs)   bands (ev):

   -64.8308 -64.8262 -64.8262 -64.8254 -31.6256 -31.6255 -31.6249 -31.6058
   -31.5933 -31.5930 -31.5928 -31.5843 -31.5841 -31.5841 -31.5715 -31.5711
    -8.7973  -8.0322  -8.0294  -8.0291   3.9960   4.0015   4.0018   5.0845
     5.8405   5.8445   5.8465   6.7042   6.7043   6.7163   7.3543   7.3636

          k = 0.2500 0.2495-0.5000 (  5128 PWs)   bands (ev):

   -64.8286 -64.8282 -64.8262 -64.8255 -31.6281 -31.6280 -31.6206 -31.6206
   -31.5919 -31.5917 -31.5807 -31.5806 -31.5784 -31.5782 -31.5773 -31.5772
    -8.4003  -8.4002  -7.9958  -7.9958   3.8237   3.8238   4.1929   4.1930
     5.8276   5.8276   6.7392   6.7394   6.8675   6.8677   7.0256   7.0256

          k = 0.2500-0.5005 0.0000 (  5148 PWs)   bands (ev):

   -64.8291 -64.8287 -64.8257 -64.8251 -31.6180 -31.6163 -31.6108 -31.6092
   -31.6068 -31.6065 -31.5849 -31.5846 -31.5840 -31.5832 -31.5757 -31.5748
    -8.5113  -8.5078  -7.9488  -7.9450   4.4161   4.4207   4.7502   4.7522
     5.0944   5.0982   6.5405   6.5555   6.5731   6.5785   7.0885   7.0998

          k = 0.2500-0.5005 0.2500 (  5134 PWs)   bands (ev):

   -64.8286 -64.8282 -64.8262 -64.8256 -31.6280 -31.6274 -31.6216 -31.6203
   -31.5929 -31.5926 -31.5808 -31.5802 -31.5783 -31.5780 -31.5775 -31.5770
    -8.4008  -8.3974  -7.9990  -7.9953   3.8177   3.8253   4.1952   4.2008
     5.8287   5.8321   6.7349   6.7458   6.8650   6.8725   7.0144   7.0178

          k = 0.2500-0.5005-0.5000 (  5138 PWs)   bands (ev):

   -64.8274 -64.8274 -64.8274 -64.8264 -31.6320 -31.6319 -31.6309 -31.6307
   -31.5832 -31.5830 -31.5825 -31.5823 -31.5755 -31.5753 -31.5751 -31.5751
    -8.1696  -8.1695  -8.1661  -8.1660   3.6364   3.6364   3.6443   3.6444
     6.5187   6.5187   6.5301   6.5302   7.0627   7.0628   7.0661   7.0662

          k = 0.2500-0.2505 0.0000 (  5161 PWs)   bands (ev):

   -64.8318 -64.8262 -64.8258 -64.8247 -31.6206 -31.6204 -31.6195 -31.6079
   -31.5943 -31.5943 -31.5936 -31.5873 -31.5870 -31.5868 -31.5753 -31.5677
    -8.9649  -8.0652  -8.0652  -7.8889   4.1619   4.1619   4.3298   5.0780
     5.8508   6.0535   6.0539   6.4871   6.4871   6.5723   7.1754   7.4980

          k = 0.2500-0.2505 0.2500 (  5158 PWs)   bands (ev):

   -64.8308 -64.8262 -64.8262 -64.8254 -31.6252 -31.6245 -31.6244 -31.6064
   -31.5943 -31.5942 -31.5939 -31.5840 -31.5840 -31.5836 -31.5713 -31.5709
    -8.7951  -8.0323  -8.0320  -8.0292   3.9991   3.9994   4.0048   5.0938
     5.8450   5.8470   5.8511   6.6946   6.7064   6.7065   7.3471   7.3564

          k = 0.2500-0.2505-0.5000 (  5140 PWs)   bands (ev):

   -64.8286 -64.8282 -64.8262 -64.8256 -31.6275 -31.6274 -31.6213 -31.6212
   -31.5936 -31.5934 -31.5805 -31.5804 -31.5781 -31.5780 -31.5773 -31.5770
    -8.3980  -8.3979  -7.9985  -7.9984   3.8193   3.8193   4.2029   4.2030
     5.8333   5.8333   6.7412   6.7414   6.8700   6.8701   7.0065   7.0065

          k =-0.5000 0.0011 0.0000 (  5110 PWs)   bands (ev):

   -64.8298 -64.8294 -64.8250 -64.8244 -31.6094 -31.6094 -31.6092 -31.6092
   -31.6019 -31.6019 -31.5907 -31.5906 -31.5806 -31.5805 -31.5803 -31.5803
    -8.6460  -8.6458  -7.8565  -7.8564   4.8479   4.8479   4.8480   4.8480
     5.1227   5.1230   5.9734   5.9738   6.9683   6.9683   6.9684   6.9684

          k =-0.5000 0.0011 0.2500 (  5150 PWs)   bands (ev):

   -64.8291 -64.8287 -64.8257 -64.8251 -31.6173 -31.6171 -31.6100 -31.6100
   -31.6067 -31.6065 -31.5850 -31.5847 -31.5838 -31.5837 -31.5752 -31.5750
    -8.5096  -8.5095  -7.9469  -7.9468   4.4183   4.4184   4.7511   4.7514
     5.0963   5.0964   6.5478   6.5480   6.5758   6.5759   7.0941   7.0942

          k =-0.5000 0.0011-0.5000 (  5216 PWs)   bands (ev):

   -64.8274 -64.8274 -64.8274 -64.8264 -31.6194 -31.6192 -31.6191 -31.6191
   -31.5975 -31.5973 -31.5971 -31.5969 -31.5769 -31.5767 -31.5765 -31.5765
    -8.2069  -8.2068  -8.2038  -8.2037   4.2904   4.2905   4.2961   4.2962
     5.7634   5.7635   5.7708   5.7709   7.0616   7.0618   7.0648   7.0650

          k =-0.5000 0.2511 0.0000 (  5148 PWs)   bands (ev):

   -64.8291 -64.8287 -64.8257 -64.8251 -31.6180 -31.6163 -31.6108 -31.6092
   -31.6068 -31.6065 -31.5849 -31.5846 -31.5840 -31.5832 -31.5757 -31.5748
    -8.5113  -8.5078  -7.9488  -7.9450   4.4161   4.4207   4.7502   4.7522
     5.0944   5.0982   6.5404   6.5554   6.5731   6.5785   7.0885   7.0998

          k =-0.5000 0.2511 0.2500 (  5134 PWs)   bands (ev):

   -64.8286 -64.8282 -64.8262 -64.8256 -31.6280 -31.6274 -31.6216 -31.6203
   -31.5929 -31.5926 -31.5808 -31.5802 -31.5783 -31.5780 -31.5775 -31.5770
    -8.4008  -8.3974  -7.9990  -7.9953   3.8177   3.8253   4.1952   4.2008
     5.8287   5.8321   6.7349   6.7458   6.8650   6.8725   7.0144   7.0178

          k =-0.5000 0.2511-0.5000 (  5138 PWs)   bands (ev):

   -64.8274 -64.8274 -64.8274 -64.8264 -31.6320 -31.6319 -31.6309 -31.6307
   -31.5832 -31.5830 -31.5825 -31.5823 -31.5755 -31.5753 -31.5751 -31.5750
    -8.1699  -8.1698  -8.1657  -8.1657   3.6358   3.6359   3.6448   3.6449
     6.5181   6.5181   6.5307   6.5308   7.0623   7.0625   7.0664   7.0666

          k =-0.5000-0.4989 0.0000 (  5216 PWs)   bands (ev):

   -64.8274 -64.8274 -64.8274 -64.8264 -31.6203 -31.6200 -31.6183 -31.6181
   -31.5974 -31.5973 -31.5972 -31.5970 -31.5773 -31.5771 -31.5762 -31.5760
    -8.2079  -8.2078  -8.2028  -8.2027   4.2918   4.2919   4.2947   4.2948
     5.7638   5.7641   5.7702   5.7705   7.0547   7.0547   7.0719   7.0720

          k =-0.5000-0.4989 0.2500 (  5136 PWs)   bands (ev):

   -64.8274 -64.8274 -64.8274 -64.8264 -31.6318 -31.6317 -31.6307 -31.6306
   -31.5830 -31.5829 -31.5825 -31.5825 -31.5760 -31.5758 -31.5748 -31.5746
    -8.1703  -8.1702  -8.1653  -8.1652   3.6371   3.6372   3.6436   3.6436
     6.5233   6.5236   6.5252   6.5254   7.0558   7.0559   7.0730   7.0731

          k =-0.5000-0.4989-0.5000 (  5136 PWs)   bands (ev):

   -64.8274 -64.8274 -64.8273 -64.8263 -31.6406 -31.6405 -31.6382 -31.6381
   -31.5753 -31.5753 -31.5752 -31.5750 -31.5747 -31.5745 -31.5744 -31.5744
    -8.1323  -8.1322  -8.1271  -8.1270   3.2133   3.2133   3.2217   3.2218
     7.0565   7.0565   7.0651   7.0653   7.0653   7.0655   7.0742   7.0742

     highest occupied level (ev):     7.6803

!    total energy              =    -608.39287579 Ry
     Harris-Foulkes estimate   =    -608.39287579 Ry
     estimated scf accuracy    <          8.6E-11 Ry

     The total energy is the sum of the following terms:

     one-electron contribution =    -303.55784097 Ry
     hartree contribution      =     168.06827937 Ry
     xc contribution           =     -97.84644440 Ry
     ewald contribution        =    -375.05686978 Ry

     convergence has been achieved in   5 iterations

     Forces acting on atoms (cartesian axes, Ry/au):

     atom    1 type  1   force =    -0.00037711    0.00000123    0.00000000
     atom    2 type  1   force =     0.00040654   -0.00000152    0.00000000
     atom    3 type  1   force =    -0.00039666    0.00000139    0.00000000
     atom    4 type  1   force =     0.00036430   -0.00000122    0.00000000
     atom    5 type  2   force =    -0.00042477    0.00000091    0.00000000
     atom    6 type  2   force =     0.00043241   -0.00000078    0.00000000
     atom    7 type  2   force =    -0.00041814    0.00000089    0.00000000
     atom    8 type  2   force =     0.00041342   -0.00000090    0.00000000

     Total force =     0.001145     Total SCF correction =     0.000008


     Computing stress (Cartesian axis) and pressure

          total   stress  (Ry/bohr**3)                   (kbar)     P=  -67.96
  -0.00046238  -0.00002037   0.00000000        -68.02     -3.00      0.00
  -0.00002037  -0.00046227   0.00000000         -3.00    -68.00      0.00
   0.00000000   0.00000000  -0.00046130          0.00      0.00    -67.86


     number of scf cycles    =   3
     number of bfgs steps    =   2

     energy   old            =    -608.3928734887 Ry
     energy   new            =    -608.3928757904 Ry

     CASE: energy  _new < energy  _old

     new trust radius        =       0.0011040173 bohr
     new conv_thr            =            1.0E-10 Ry


ATOMIC_POSITIONS (alat)
Mg      -0.000246414   0.000002012   0.000000000
Mg       0.000269030   0.499997843   0.500000000
Mg       0.499745967   0.000002012   0.500000000
Mg       0.500225878   0.499998213   0.000000000
O        0.499698331   0.000001104   0.000000000
O        0.000311894   0.499998915   0.000000000
O       -0.000297900   0.000001007   0.500000000
O        0.500293214   0.499998893   0.500000000



     Writing output data file diamond..70.4.save
     NEW-OLD atomic charge density approx. for the potential

     Check: negative/imaginary core charge=   -0.000008    0.000000

     total cpu time spent up to now is       21.3 secs

     per-process dynamical memory:    52.3 Mb

     Self-consistent Calculation

     iteration #  1     ecut=    70.00 Ry     beta=0.70
     Davidson diagonalization with overlap
     ethr =  1.00E-06,  avg # of iterations =  2.4

     Threshold (ethr) on eigenvalues was too large:
     Diagonalizing with lowered threshold

     Davidson diagonalization with overlap
     ethr =  5.70E-10,  avg # of iterations =  3.0

     total cpu time spent up to now is       23.7 secs

     total energy              =    -608.39287842 Ry
     Harris-Foulkes estimate   =    -608.39287869 Ry
     estimated scf accuracy    <       0.00000048 Ry

     iteration #  2     ecut=    70.00 Ry     beta=0.70
     Davidson diagonalization with overlap
     ethr =  7.49E-10,  avg # of iterations =  2.0

     total cpu time spent up to now is       24.7 secs

     total energy              =    -608.39287850 Ry
     Harris-Foulkes estimate   =    -608.39287851 Ry
     estimated scf accuracy    <       0.00000001 Ry

     iteration #  3     ecut=    70.00 Ry     beta=0.70
     Davidson diagonalization with overlap
     ethr =  1.93E-11,  avg # of iterations =  2.0

     total cpu time spent up to now is       25.6 secs

     total energy              =    -608.39287850 Ry
     Harris-Foulkes estimate   =    -608.39287850 Ry
     estimated scf accuracy    <          1.0E-09 Ry

     iteration #  4     ecut=    70.00 Ry     beta=0.70
     Davidson diagonalization with overlap
     ethr =  1.61E-12,  avg # of iterations =  3.0

     total cpu time spent up to now is       26.8 secs

     total energy              =    -608.39287850 Ry
     Harris-Foulkes estimate   =    -608.39287850 Ry
     estimated scf accuracy    <          7.2E-10 Ry

     iteration #  5     ecut=    70.00 Ry     beta=0.70
     Davidson diagonalization with overlap
     ethr =  1.13E-12,  avg # of iterations =  2.7

     total cpu time spent up to now is       27.8 secs

     End of self-consistent calculation

          k = 0.0000 0.0000 0.0000 (  5137 PWs)   bands (ev):

   -64.8345 -64.8250 -64.8250 -64.8242 -31.6309 -31.6309 -31.6309 -31.5938
   -31.5934 -31.5934 -31.5933 -31.5933 -31.5929 -31.5639 -31.5633 -31.5626
    -9.3646  -7.9138  -7.9137  -7.9136   3.7581   3.7581   3.7581   6.3676
     6.3799   6.3801   6.3801   6.3803   6.3926   7.6648   7.6725   7.6803

          k = 0.0000 0.0000 0.2500 (  5157 PWs)   bands (ev):

   -64.8330 -64.8262 -64.8250 -64.8244 -31.6241 -31.6241 -31.6204 -31.5981
   -31.5981 -31.5939 -31.5939 -31.5895 -31.5885 -31.5782 -31.5720 -31.5708
    -9.1562  -8.1286  -7.8853  -7.8852   4.0486   4.0486   4.0955   5.8581
     5.8581   6.1705   6.1709   6.5308   6.5547   6.6589   7.4416   7.4590

          k = 0.0000 0.0000-0.5000 (  5110 PWs)   bands (ev):

   -64.8298 -64.8294 -64.8250 -64.8244 -31.6104 -31.6102 -31.6083 -31.6081
   -31.6019 -31.6019 -31.5907 -31.5906 -31.5811 -31.5809 -31.5800 -31.5797
    -8.6460  -8.6459  -7.8565  -7.8564   4.8465   4.8465   4.8494   4.8494
     5.1227   5.1230   5.9734   5.9738   6.9579   6.9579   6.9789   6.9789

          k = 0.0000 0.2500 0.0000 (  5159 PWs)   bands (ev):

   -64.8330 -64.8262 -64.8250 -64.8244 -31.6244 -31.6243 -31.6204 -31.5983
   -31.5982 -31.5939 -31.5935 -31.5890 -31.5890 -31.5782 -31.5714 -31.5713
    -9.1562  -8.1285  -7.8853  -7.8852   4.0484   4.0484   4.0955   5.8578
     5.8581   6.1706   6.1712   6.5427   6.5427   6.6589   7.4503   7.4503

          k = 0.0000 0.2500 0.2500 (  5162 PWs)   bands (ev):

   -64.8318 -64.8262 -64.8258 -64.8248 -31.6213 -31.6209 -31.6195 -31.6071
   -31.5941 -31.5940 -31.5929 -31.5878 -31.5868 -31.5866 -31.5754 -31.5684
    -8.9660  -8.0639  -8.0638  -7.8902   4.1612   4.1614   4.3287   5.0714
     5.8471   6.0553   6.0557   6.4847   6.4850   6.5835   7.1733   7.5056

          k = 0.0000 0.2500-0.5000 (  5152 PWs)   bands (ev):

   -64.8291 -64.8287 -64.8257 -64.8251 -31.6173 -31.6172 -31.6100 -31.6100
   -31.6068 -31.6065 -31.5850 -31.5848 -31.5837 -31.5837 -31.5754 -31.5752
    -8.5096  -8.5095  -7.9469  -7.9468   4.4184   4.4185   4.7511   4.7513
     5.0963   5.0963   6.5478   6.5481   6.5758   6.5758   7.0942   7.0942

          k = 0.0000-0.5000 0.0000 (  5110 PWs)   bands (ev):

   -64.8298 -64.8294 -64.8250 -64.8244 -31.6094 -31.6094 -31.6092 -31.6092
   -31.6019 -31.6019 -31.5907 -31.5906 -31.5806 -31.5805 -31.5803 -31.5803
    -8.6459  -8.6458  -7.8565  -7.8564   4.8479   4.8479   4.8480   4.8480
     5.1227   5.1230   5.9734   5.9738   6.9683   6.9684   6.9684   6.9684

          k = 0.0000-0.5000 0.2500 (  5150 PWs)   bands (ev):

   -64.8291 -64.8287 -64.8257 -64.8251 -31.6173 -31.6171 -31.6100 -31.6100
   -31.6067 -31.6065 -31.5850 -31.5847 -31.5838 -31.5837 -31.5752 -31.5750
    -8.5096  -8.5095  -7.9469  -7.9468   4.4184   4.4184   4.7511   4.7514
     5.0963   5.0964   6.5478   6.5480   6.5758   6.5759   7.0941   7.0942

          k = 0.0000-0.5000-0.5000 (  5216 PWs)   bands (ev):

   -64.8274 -64.8274 -64.8274 -64.8264 -31.6194 -31.6192 -31.6191 -31.6191
   -31.5974 -31.5972 -31.5972 -31.5970 -31.5768 -31.5767 -31.5765 -31.5765
    -8.2054  -8.2053  -8.2053  -8.2052   4.2932   4.2933   4.2933   4.2935
     5.7670   5.7670   5.7673   5.7673   7.0632   7.0633   7.0633   7.0635

          k = 0.2500-0.0005 0.0000 (  5159 PWs)   bands (ev):

   -64.8330 -64.8262 -64.8250 -64.8244 -31.6244 -31.6243 -31.6204 -31.5983
   -31.5982 -31.5939 -31.5935 -31.5890 -31.5890 -31.5782 -31.5714 -31.5713
    -9.1562  -8.1285  -7.8853  -7.8852   4.0484   4.0484   4.0955   5.8578
     5.8581   6.1706   6.1711   6.5427   6.5427   6.6589   7.4503   7.4503

          k = 0.2500-0.0005 0.2500 (  5162 PWs)   bands (ev):

   -64.8318 -64.8262 -64.8258 -64.8248 -31.6213 -31.6209 -31.6195 -31.6071
   -31.5942 -31.5940 -31.5929 -31.5878 -31.5868 -31.5866 -31.5754 -31.5684
    -8.9660  -8.0646  -8.0631  -7.8902   4.1601   4.1625   4.3287   5.0714
     5.8471   6.0537   6.0573   6.4840   6.4857   6.5835   7.1733   7.5056

          k = 0.2500-0.0005-0.5000 (  5152 PWs)   bands (ev):

   -64.8291 -64.8287 -64.8257 -64.8251 -31.6173 -31.6172 -31.6100 -31.6100
   -31.6068 -31.6065 -31.5850 -31.5848 -31.5837 -31.5837 -31.5754 -31.5752
    -8.5096  -8.5095  -7.9469  -7.9468   4.4184   4.4185   4.7511   4.7513
     5.0963   5.0963   6.5478   6.5481   6.5758   6.5758   7.0942   7.0942

          k = 0.2500 0.2495 0.0000 (  5161 PWs)   bands (ev):

   -64.8318 -64.8262 -64.8258 -64.8248 -31.6213 -31.6211 -31.6195 -31.6064
   -31.5944 -31.5943 -31.5922 -31.5883 -31.5865 -31.5863 -31.5754 -31.5690
    -8.9671  -8.0625  -8.0624  -7.8915   4.1610   4.1611   4.3275   5.0647
     5.8434   6.0569   6.0573   6.4824   6.4824   6.5947   7.1712   7.5132

          k = 0.2500 0.2495 0.2500 (  5154 PWs)   bands (ev):

   -64.8308 -64.8262 -64.8262 -64.8254 -31.6256 -31.6255 -31.6249 -31.6058
   -31.5933 -31.5930 -31.5928 -31.5843 -31.5841 -31.5841 -31.5715 -31.5711
    -8.7973  -8.0320  -8.0294  -8.0292   3.9962   4.0015   4.0016   5.0845
     5.8414   5.8445   5.8455   6.7042   6.7043   6.7163   7.3543   7.3637

          k = 0.2500 0.2495-0.5000 (  5128 PWs)   bands (ev):

   -64.8286 -64.8282 -64.8262 -64.8255 -31.6281 -31.6280 -31.6206 -31.6206
   -31.5919 -31.5917 -31.5807 -31.5806 -31.5784 -31.5782 -31.5773 -31.5772
    -8.4003  -8.4002  -7.9958  -7.9957   3.8237   3.8238   4.1929   4.1930
     5.8276   5.8276   6.7392   6.7394   6.8675   6.8677   7.0256   7.0256

          k = 0.2500-0.5005 0.0000 (  5148 PWs)   bands (ev):

   -64.8291 -64.8287 -64.8257 -64.8251 -31.6180 -31.6163 -31.6108 -31.6092
   -31.6068 -31.6065 -31.5849 -31.5846 -31.5840 -31.5832 -31.5757 -31.5748
    -8.5113  -8.5078  -7.9488  -7.9450   4.4161   4.4207   4.7502   4.7522
     5.0944   5.0983   6.5405   6.5555   6.5731   6.5786   7.0885   7.0998

          k = 0.2500-0.5005 0.2500 (  5134 PWs)   bands (ev):

   -64.8286 -64.8282 -64.8262 -64.8256 -31.6280 -31.6274 -31.6216 -31.6203
   -31.5929 -31.5926 -31.5808 -31.5802 -31.5783 -31.5780 -31.5775 -31.5770
    -8.4008  -8.3973  -7.9990  -7.9953   3.8178   3.8253   4.1952   4.2008
     5.8287   5.8321   6.7349   6.7458   6.8650   6.8725   7.0144   7.0178

          k = 0.2500-0.5005-0.5000 (  5138 PWs)   bands (ev):

   -64.8274 -64.8274 -64.8274 -64.8264 -31.6320 -31.6319 -31.6309 -31.6307
   -31.5832 -31.5830 -31.5825 -31.5823 -31.5755 -31.5753 -31.5751 -31.5751
    -8.1696  -8.1695  -8.1661  -8.1660   3.6364   3.6365   3.6443   3.6444
     6.5187   6.5187   6.5301   6.5302   7.0627   7.0628   7.0661   7.0662

          k = 0.2500-0.2505 0.0000 (  5161 PWs)   bands (ev):

   -64.8318 -64.8262 -64.8258 -64.8247 -31.6206 -31.6204 -31.6195 -31.6079
   -31.5943 -31.5943 -31.5936 -31.5873 -31.5870 -31.5868 -31.5753 -31.5677
    -8.9649  -8.0652  -8.0651  -7.8889   4.1619   4.1619   4.3298   5.0780
     5.8508   6.0535   6.0539   6.4871   6.4871   6.5723   7.1755   7.4980

          k = 0.2500-0.2505 0.2500 (  5158 PWs)   bands (ev):

   -64.8308 -64.8262 -64.8262 -64.8254 -31.6252 -31.6245 -31.6244 -31.6064
   -31.5943 -31.5942 -31.5939 -31.5840 -31.5840 -31.5836 -31.5713 -31.5709
    -8.7951  -8.0321  -8.0320  -8.0294   3.9993   3.9994   4.0046   5.0938
     5.8460   5.8470   5.8501   6.6946   6.7064   6.7065   7.3471   7.3564

          k = 0.2500-0.2505-0.5000 (  5140 PWs)   bands (ev):

   -64.8286 -64.8282 -64.8262 -64.8256 -31.6275 -31.6274 -31.6213 -31.6212
   -31.5936 -31.5934 -31.5805 -31.5804 -31.5781 -31.5780 -31.5773 -31.5770
    -8.3980  -8.3979  -7.9985  -7.9984   3.8193   3.8194   4.2029   4.2030
     5.8333   5.8333   6.7412   6.7415   6.8700   6.8701   7.0065   7.0065

          k =-0.5000 0.0011 0.0000 (  5110 PWs)   bands (ev):

   -64.8298 -64.8294 -64.8250 -64.8244 -31.6094 -31.6094 -31.6092 -31.6092
   -31.6019 -31.6019 -31.5907 -31.5906 -31.5806 -31.5805 -31.5803 -31.5803
    -8.6460  -8.6458  -7.8565  -7.8564   4.8478   4.8478   4.8481   4.8481
     5.1227   5.1230   5.9734   5.9738   6.9683   6.9683   6.9684   6.9684

          k =-0.5000 0.0011 0.2500 (  5150 PWs)   bands (ev):

   -64.8291 -64.8287 -64.8257 -64.8251 -31.6173 -31.6171 -31.6100 -31.6100
   -31.6067 -31.6065 -31.5850 -31.5847 -31.5838 -31.5837 -31.5752 -31.5750
    -8.5096  -8.5095  -7.9469  -7.9468   4.4183   4.4185   4.7511   4.7514
     5.0962   5.0965   6.5478   6.5480   6.5758   6.5759   7.0941   7.0942

          k =-0.5000 0.0011-0.5000 (  5216 PWs)   bands (ev):

   -64.8274 -64.8274 -64.8274 -64.8264 -31.6194 -31.6192 -31.6191 -31.6191
   -31.5975 -31.5973 -31.5972 -31.5969 -31.5769 -31.5767 -31.5765 -31.5765
    -8.2064  -8.2062  -8.2043  -8.2043   4.2915   4.2916   4.2950   4.2952
     5.7647   5.7650   5.7694   5.7696   7.0622   7.0623   7.0642   7.0644

          k =-0.5000 0.2511 0.0000 (  5148 PWs)   bands (ev):

   -64.8291 -64.8287 -64.8257 -64.8251 -31.6180 -31.6163 -31.6108 -31.6092
   -31.6068 -31.6065 -31.5849 -31.5846 -31.5840 -31.5832 -31.5757 -31.5748
    -8.5113  -8.5078  -7.9488  -7.9450   4.4161   4.4208   4.7502   4.7522
     5.0944   5.0983   6.5404   6.5555   6.5731   6.5786   7.0885   7.0998

          k =-0.5000 0.2511 0.2500 (  5134 PWs)   bands (ev):

   -64.8286 -64.8282 -64.8262 -64.8256 -31.6280 -31.6274 -31.6216 -31.6203
   -31.5929 -31.5926 -31.5808 -31.5802 -31.5783 -31.5780 -31.5775 -31.5770
    -8.4008  -8.3973  -7.9989  -7.9953   3.8178   3.8253   4.1952   4.2008
     5.8287   5.8321   6.7349   6.7458   6.8650   6.8725   7.0144   7.0178

          k =-0.5000 0.2511-0.5000 (  5138 PWs)   bands (ev):

   -64.8274 -64.8274 -64.8274 -64.8264 -31.6320 -31.6319 -31.6309 -31.6307
   -31.5832 -31.5830 -31.5825 -31.5823 -31.5755 -31.5753 -31.5751 -31.5750
    -8.1697  -8.1696  -8.1659  -8.1659   3.6362   3.6362   3.6445   3.6446
     6.5184   6.5185   6.5304   6.5304   7.0625   7.0627   7.0662   7.0664

          k =-0.5000-0.4989 0.0000 (  5216 PWs)   bands (ev):

   -64.8274 -64.8274 -64.8274 -64.8264 -31.6203 -31.6200 -31.6183 -31.6181
   -31.5974 -31.5973 -31.5972 -31.5970 -31.5773 -31.5771 -31.5762 -31.5760
    -8.2079  -8.2078  -8.2028  -8.2027   4.2918   4.2919   4.2947   4.2948
     5.7638   5.7641   5.7702   5.7705   7.0547   7.0547   7.0719   7.0720

          k =-0.5000-0.4989 0.2500 (  5136 PWs)   bands (ev):

   -64.8274 -64.8274 -64.8274 -64.8264 -31.6318 -31.6317 -31.6307 -31.6306
   -31.5830 -31.5829 -31.5825 -31.5825 -31.5760 -31.5758 -31.5748 -31.5746
    -8.1703  -8.1702  -8.1653  -8.1652   3.6371   3.6372   3.6436   3.6437
     6.5233   6.5236   6.5252   6.5255   7.0558   7.0559   7.0730   7.0731

          k =-0.5000-0.4989-0.5000 (  5136 PWs)   bands (ev):

   -64.8274 -64.8274 -64.8273 -64.8263 -31.6407 -31.6405 -31.6382 -31.6381
   -31.5753 -31.5753 -31.5752 -31.5750 -31.5747 -31.5745 -31.5744 -31.5744
    -8.1323  -8.1322  -8.1271  -8.1270   3.2133   3.2133   3.2217   3.2218
     7.0565   7.0565   7.0651   7.0653   7.0654   7.0655   7.0742   7.0742

     highest occupied level (ev):     7.6803

!    total energy              =    -608.39287850 Ry
     Harris-Foulkes estimate   =    -608.39287850 Ry
     estimated scf accuracy    <          1.9E-11 Ry

     The total energy is the sum of the following terms:

     one-electron contribution =    -303.55786727 Ry
     hartree contribution      =     168.06827017 Ry
     xc contribution           =     -97.84643342 Ry
     ewald contribution        =    -375.05684799 Ry

     convergence has been achieved in   5 iterations

     Forces acting on atoms (cartesian axes, Ry/au):

     atom    1 type  1   force =    -0.00025965   -0.00000122    0.00000000
     atom    2 type  1   force =     0.00027924    0.00000106    0.00000000
     atom    3 type  1   force =    -0.00029249   -0.00000110    0.00000000
     atom    4 type  1   force =     0.00028151    0.00000109    0.00000000
     atom    5 type  2   force =    -0.00026482   -0.00000037    0.00000000
     atom    6 type  2   force =     0.00025391    0.00000051    0.00000000
     atom    7 type  2   force =    -0.00025436   -0.00000034    0.00000000
     atom    8 type  2   force =     0.00025666    0.00000038    0.00000000

     Total force =     0.000759     Total SCF correction =     0.000011


     Computing stress (Cartesian axis) and pressure

          total   stress  (Ry/bohr**3)                   (kbar)     P=  -67.97
  -0.00046243  -0.00002037   0.00000000        -68.03     -3.00      0.00
  -0.00002037  -0.00046233   0.00000000         -3.00    -68.01      0.00
   0.00000000   0.00000000  -0.00046135          0.00      0.00    -67.87


     number of scf cycles    =   4
     number of bfgs steps    =   3

     energy   old            =    -608.3928757904 Ry
     energy   new            =    -608.3928785040 Ry

     CASE: energy  _new < energy  _old

     new trust radius        =       0.0016560259 bohr
     new conv_thr            =            1.0E-10 Ry


ATOMIC_POSITIONS (alat)
Mg      -0.000429159   0.000002303   0.000000000
Mg       0.000467204   0.499997420   0.500000000
Mg       0.499549113   0.000002382   0.500000000
Mg       0.500408130   0.499997917   0.000000000
O        0.499492480   0.000001364   0.000000000
O        0.000517655   0.499998730   0.000000000
O       -0.000498634   0.000001245   0.500000000
O        0.500493212   0.499998639   0.500000000



     Writing output data file diamond..70.4.save
     NEW-OLD atomic charge density approx. for the potential

     Check: negative/imaginary core charge=   -0.000008    0.000000

     total cpu time spent up to now is       28.4 secs

     per-process dynamical memory:    52.3 Mb

     Self-consistent Calculation

     iteration #  1     ecut=    70.00 Ry     beta=0.70
     Davidson diagonalization with overlap
     ethr =  1.00E-06,  avg # of iterations =  3.0

     Threshold (ethr) on eigenvalues was too large:
     Diagonalizing with lowered threshold

     Davidson diagonalization with overlap
     ethr =  1.53E-09,  avg # of iterations =  2.9

     total cpu time spent up to now is       30.7 secs

     total energy              =    -608.39288035 Ry
     Harris-Foulkes estimate   =    -608.39288095 Ry
     estimated scf accuracy    <       0.00000108 Ry

     iteration #  2     ecut=    70.00 Ry     beta=0.70
     Davidson diagonalization with overlap
     ethr =  1.68E-09,  avg # of iterations =  2.0

     total cpu time spent up to now is       31.7 secs

     total energy              =    -608.39288053 Ry
     Harris-Foulkes estimate   =    -608.39288054 Ry
     estimated scf accuracy    <       0.00000003 Ry

     iteration #  3     ecut=    70.00 Ry     beta=0.70
     Davidson diagonalization with overlap
     ethr =  4.24E-11,  avg # of iterations =  2.0

     total cpu time spent up to now is       32.7 secs

     total energy              =    -608.39288054 Ry
     Harris-Foulkes estimate   =    -608.39288053 Ry
     estimated scf accuracy    <          1.8E-09 Ry

     iteration #  4     ecut=    70.00 Ry     beta=0.70
     Davidson diagonalization with overlap
     ethr =  2.85E-12,  avg # of iterations =  2.9

     total cpu time spent up to now is       33.7 secs

     total energy              =    -608.39288054 Ry
     Harris-Foulkes estimate   =    -608.39288054 Ry
     estimated scf accuracy    <          5.1E-10 Ry

     iteration #  5     ecut=    70.00 Ry     beta=0.70
     Davidson diagonalization with overlap
     ethr =  7.97E-13,  avg # of iterations =  2.9

     total cpu time spent up to now is       34.8 secs

     End of self-consistent calculation

          k = 0.0000 0.0000 0.0000 (  5137 PWs)   bands (ev):

   -64.8345 -64.8250 -64.8250 -64.8242 -31.6309 -31.6309 -31.6309 -31.5938
   -31.5934 -31.5933 -31.5933 -31.5933 -31.5929 -31.5639 -31.5633 -31.5626
    -9.3646  -7.9138  -7.9136  -7.9136   3.7581   3.7581   3.7581   6.3676
     6.3799   6.3801   6.3801   6.3803   6.3926   7.6648   7.6725   7.6803

          k = 0.0000 0.0000 0.2500 (  5157 PWs)   bands (ev):

   -64.8330 -64.8262 -64.8250 -64.8244 -31.6241 -31.6241 -31.6204 -31.5981
   -31.5981 -31.5939 -31.5939 -31.5895 -31.5885 -31.5782 -31.5720 -31.5708
    -9.1562  -8.1286  -7.8853  -7.8852   4.0486   4.0486   4.0955   5.8581
     5.8581   6.1705   6.1709   6.5308   6.5547   6.6589   7.4416   7.4590

          k = 0.0000 0.0000-0.5000 (  5110 PWs)   bands (ev):

   -64.8298 -64.8294 -64.8250 -64.8244 -31.6104 -31.6102 -31.6083 -31.6081
   -31.6019 -31.6019 -31.5907 -31.5906 -31.5811 -31.5809 -31.5800 -31.5797
    -8.6459  -8.6459  -7.8565  -7.8564   4.8465   4.8465   4.8494   4.8494
     5.1227   5.1230   5.9734   5.9738   6.9579   6.9579   6.9789   6.9789

          k = 0.0000 0.2500 0.0000 (  5159 PWs)   bands (ev):

   -64.8330 -64.8262 -64.8250 -64.8244 -31.6244 -31.6243 -31.6204 -31.5983
   -31.5982 -31.5939 -31.5935 -31.5890 -31.5890 -31.5782 -31.5714 -31.5713
    -9.1562  -8.1285  -7.8853  -7.8852   4.0484   4.0484   4.0955   5.8578
     5.8581   6.1706   6.1711   6.5427   6.5427   6.6589   7.4503   7.4503

          k = 0.0000 0.2500 0.2500 (  5162 PWs)   bands (ev):

   -64.8318 -64.8262 -64.8258 -64.8248 -31.6213 -31.6209 -31.6195 -31.6071
   -31.5941 -31.5940 -31.5929 -31.5878 -31.5868 -31.5866 -31.5754 -31.5684
    -8.9660  -8.0639  -8.0638  -7.8902   4.1612   4.1614   4.3287   5.0714
     5.8471   6.0553   6.0557   6.4847   6.4850   6.5835   7.1733   7.5056

          k = 0.0000 0.2500-0.5000 (  5152 PWs)   bands (ev):

   -64.8291 -64.8287 -64.8257 -64.8251 -31.6173 -31.6172 -31.6100 -31.6100
   -31.6068 -31.6065 -31.5850 -31.5848 -31.5837 -31.5837 -31.5754 -31.5752
    -8.5096  -8.5095  -7.9469  -7.9468   4.4184   4.4185   4.7511   4.7513
     5.0963   5.0963   6.5478   6.5481   6.5758   6.5758   7.0942   7.0942

          k = 0.0000-0.5000 0.0000 (  5110 PWs)   bands (ev):

   -64.8298 -64.8294 -64.8250 -64.8244 -31.6094 -31.6094 -31.6092 -31.6092
   -31.6019 -31.6019 -31.5906 -31.5906 -31.5806 -31.5805 -31.5803 -31.5803
    -8.6459  -8.6459  -7.8565  -7.8564   4.8479   4.8479   4.8480   4.8480
     5.1227   5.1230   5.9734   5.9738   6.9683   6.9684   6.9684   6.9684

          k = 0.0000-0.5000 0.2500 (  5150 PWs)   bands (ev):

   -64.8291 -64.8287 -64.8257 -64.8251 -31.6173 -31.6171 -31.6100 -31.6100
   -31.6067 -31.6065 -31.5850 -31.5847 -31.5838 -31.5837 -31.5752 -31.5750
    -8.5096  -8.5095  -7.9469  -7.9468   4.4184   4.4184   4.7511   4.7513
     5.0963   5.0964   6.5478   6.5480   6.5758   6.5759   7.0941   7.0942

          k = 0.0000-0.5000-0.5000 (  5216 PWs)   bands (ev):

   -64.8274 -64.8274 -64.8274 -64.8264 -31.6194 -31.6192 -31.6191 -31.6191
   -31.5974 -31.5972 -31.5972 -31.5969 -31.5768 -31.5767 -31.5765 -31.5765
    -8.2054  -8.2053  -8.2053  -8.2052   4.2932   4.2933   4.2933   4.2935
     5.7670   5.7670   5.7673   5.7673   7.0632   7.0633   7.0633   7.0635

          k = 0.2500-0.0005 0.0000 (  5159 PWs)   bands (ev):

   -64.8330 -64.8262 -64.8250 -64.8244 -31.6244 -31.6243 -31.6204 -31.5983
   -31.5982 -31.5939 -31.5935 -31.5890 -31.5890 -31.5782 -31.5714 -31.5713
    -9.1562  -8.1285  -7.8853  -7.8852   4.0484   4.0484   4.0955   5.8578
     5.8581   6.1706   6.1711   6.5427   6.5427   6.6589   7.4503   7.4503

          k = 0.2500-0.0005 0.2500 (  5162 PWs)   bands (ev):

   -64.8318 -64.8262 -64.8258 -64.8248 -31.6213 -31.6209 -31.6195 -31.6071
   -31.5941 -31.5940 -31.5929 -31.5878 -31.5868 -31.5866 -31.5753 -31.5684
    -8.9660  -8.0639  -8.0638  -7.8902   4.1612   4.1614   4.3287   5.0714
     5.8471   6.0552   6.0557   6.4847   6.4851   6.5835   7.1733   7.5056

          k = 0.2500-0.0005-0.5000 (  5152 PWs)   bands (ev):

   -64.8291 -64.8287 -64.8257 -64.8251 -31.6173 -31.6172 -31.6100 -31.6100
   -31.6068 -31.6065 -31.5850 -31.5848 -31.5837 -31.5837 -31.5754 -31.5752
    -8.5096  -8.5095  -7.9469  -7.9468   4.4184   4.4185   4.7511   4.7513
     5.0963   5.0963   6.5478   6.5481   6.5758   6.5758   7.0942   7.0942

          k = 0.2500 0.2495 0.0000 (  5161 PWs)   bands (ev):

   -64.8318 -64.8262 -64.8258 -64.8248 -31.6213 -31.6211 -31.6195 -31.6063
   -31.5944 -31.5943 -31.5922 -31.5883 -31.5865 -31.5863 -31.5754 -31.5690
    -8.9671  -8.0625  -8.0624  -7.8915   4.1610   4.1611   4.3275   5.0647
     5.8434   6.0569   6.0573   6.4824   6.4824   6.5946   7.1712   7.5132

          k = 0.2500 0.2495 0.2500 (  5154 PWs)   bands (ev):

   -64.8308 -64.8262 -64.8262 -64.8254 -31.6256 -31.6255 -31.6249 -31.6058
   -31.5933 -31.5930 -31.5928 -31.5843 -31.5841 -31.5841 -31.5715 -31.5711
    -8.7973  -8.0319  -8.0294  -8.0293   3.9964   4.0014   4.0015   5.0845
     5.8424   5.8445   5.8446   6.7042   6.7043   6.7163   7.3543   7.3637

          k = 0.2500 0.2495-0.5000 (  5128 PWs)   bands (ev):

   -64.8286 -64.8282 -64.8262 -64.8255 -31.6281 -31.6280 -31.6206 -31.6206
   -31.5919 -31.5917 -31.5807 -31.5806 -31.5784 -31.5782 -31.5773 -31.5772
    -8.4003  -8.4002  -7.9958  -7.9958   3.8237   3.8238   4.1929   4.1930
     5.8276   5.8276   6.7392   6.7394   6.8675   6.8677   7.0256   7.0256

          k = 0.2500-0.5005 0.0000 (  5148 PWs)   bands (ev):

   -64.8291 -64.8287 -64.8257 -64.8251 -31.6180 -31.6163 -31.6108 -31.6092
   -31.6068 -31.6065 -31.5849 -31.5846 -31.5840 -31.5832 -31.5757 -31.5748
    -8.5113  -8.5078  -7.9488  -7.9450   4.4161   4.4208   4.7502   4.7522
     5.0944   5.0983   6.5404   6.5555   6.5731   6.5785   7.0885   7.0998

          k = 0.2500-0.5005 0.2500 (  5134 PWs)   bands (ev):

   -64.8286 -64.8282 -64.8262 -64.8256 -31.6280 -31.6274 -31.6216 -31.6203
   -31.5929 -31.5926 -31.5808 -31.5802 -31.5783 -31.5780 -31.5775 -31.5770
    -8.4008  -8.3974  -7.9990  -7.9953   3.8178   3.8253   4.1952   4.2008
     5.8287   5.8321   6.7349   6.7458   6.8650   6.8725   7.0144   7.0178

          k = 0.2500-0.5005-0.5000 (  5138 PWs)   bands (ev):

   -64.8274 -64.8274 -64.8274 -64.8264 -31.6320 -31.6318 -31.6309 -31.6307
   -31.5832 -31.5830 -31.5825 -31.5823 -31.5755 -31.5753 -31.5751 -31.5751
    -8.1695  -8.1695  -8.1661  -8.1660   3.6364   3.6365   3.6443   3.6444
     6.5187   6.5187   6.5301   6.5302   7.0627   7.0628   7.0661   7.0662

          k = 0.2500-0.2505 0.0000 (  5161 PWs)   bands (ev):

   -64.8318 -64.8262 -64.8258 -64.8247 -31.6206 -31.6204 -31.6195 -31.6079
   -31.5943 -31.5943 -31.5936 -31.5873 -31.5870 -31.5868 -31.5753 -31.5677
    -8.9649  -8.0652  -8.0651  -7.8889   4.1619   4.1619   4.3298   5.0780
     5.8508   6.0535   6.0539   6.4871   6.4871   6.5723   7.1755   7.4980

          k = 0.2500-0.2505 0.2500 (  5158 PWs)   bands (ev):

   -64.8308 -64.8262 -64.8262 -64.8254 -31.6252 -31.6245 -31.6244 -31.6064
   -31.5943 -31.5942 -31.5940 -31.5840 -31.5840 -31.5836 -31.5713 -31.5709
    -8.7951  -8.0321  -8.0320  -8.0295   3.9994   3.9995   4.0045   5.0938
     5.8469   5.8471   5.8491   6.6946   6.7064   6.7065   7.3471   7.3564

          k = 0.2500-0.2505-0.5000 (  5140 PWs)   bands (ev):

   -64.8286 -64.8282 -64.8262 -64.8256 -31.6275 -31.6274 -31.6213 -31.6212
   -31.5936 -31.5934 -31.5804 -31.5804 -31.5781 -31.5780 -31.5773 -31.5770
    -8.3980  -8.3979  -7.9985  -7.9984   3.8193   3.8194   4.2029   4.2030
     5.8333   5.8333   6.7412   6.7415   6.8700   6.8701   7.0065   7.0065

          k =-0.5000 0.0011 0.0000 (  5110 PWs)   bands (ev):

   -64.8298 -64.8294 -64.8250 -64.8244 -31.6094 -31.6094 -31.6092 -31.6092
   -31.6019 -31.6019 -31.5906 -31.5906 -31.5806 -31.5805 -31.5803 -31.5803
    -8.6460  -8.6458  -7.8565  -7.8564   4.8478   4.8478   4.8482   4.8482
     5.1227   5.1230   5.9734   5.9738   6.9683   6.9683   6.9685   6.9685

          k =-0.5000 0.0011 0.2500 (  5150 PWs)   bands (ev):

[...]
     Harris-Foulkes estimate   =    -608.39288054 Ry
     estimated scf accuracy    <          2.5E-11 Ry

     The total energy is the sum of the following terms:

     one-electron contribution =    -303.55790008 Ry
     hartree contribution      =     168.06828487 Ry
     xc contribution           =     -97.84643300 Ry
     ewald contribution        =    -375.05683233 Ry

     convergence has been achieved in   5 iterations

     Forces acting on atoms (cartesian axes, Ry/au):

     atom    1 type  1   force =    -0.00006909   -0.00000352    0.00000000
     atom    2 type  1   force =     0.00007512    0.00000368    0.00000000
     atom    3 type  1   force =    -0.00011684   -0.00000360    0.00000000
     atom    4 type  1   force =     0.00013321    0.00000330    0.00000000
     atom    5 type  2   force =    -0.00002328   -0.00000173    0.00000000
     atom    6 type  2   force =    -0.00000684    0.00000182    0.00000000
     atom    7 type  2   force =    -0.00001203   -0.00000168    0.00000000
     atom    8 type  2   force =     0.00001976    0.00000173    0.00000000

     Total force =     0.000207     Total SCF correction =     0.000015


     Computing stress (Cartesian axis) and pressure

          total   stress  (Ry/bohr**3)                   (kbar)     P=  -67.97
  -0.00046243  -0.00002038   0.00000000        -68.03     -3.00      0.00
  -0.00002038  -0.00046235   0.00000000         -3.00    -68.01      0.00
   0.00000000   0.00000000  -0.00046135          0.00      0.00    -67.87


     number of scf cycles    =   5
     number of bfgs steps    =   4

     energy   old            =    -608.3928785040 Ry
     energy   new            =    -608.3928805355 Ry

     CASE: energy  _new < energy  _old

     new trust radius        =       0.0004767307 bohr
     new conv_thr            =            1.0E-10 Ry


ATOMIC_POSITIONS (alat)
Mg      -0.000478464   0.000001880   0.000000000
Mg       0.000520828   0.499997838   0.500000000
Mg       0.499489855   0.000001964   0.500000000
Mg       0.500466455   0.499998308   0.000000000
O        0.499444235   0.000001178   0.000000000
O        0.000561578   0.499998946   0.000000000
O       -0.000544146   0.000001059   0.500000000
O        0.500539660   0.499998827   0.500000000



     Writing output data file diamond..70.4.save
     NEW-OLD atomic charge density approx. for the potential

     Check: negative/imaginary core charge=   -0.000008    0.000000

     total cpu time spent up to now is       35.3 secs

     per-process dynamical memory:    52.3 Mb

     Self-consistent Calculation

     iteration #  1     ecut=    70.00 Ry     beta=0.70
     Davidson diagonalization with overlap
     ethr =  1.00E-06,  avg # of iterations =  2.0

     Threshold (ethr) on eigenvalues was too large:
     Diagonalizing with lowered threshold

     Davidson diagonalization with overlap
     ethr =  1.91E-11,  avg # of iterations =  4.0

     total cpu time spent up to now is       38.0 secs

     total energy              =    -608.39288063 Ry
     Harris-Foulkes estimate   =    -608.39288066 Ry
     estimated scf accuracy    <       0.00000005 Ry

     iteration #  2     ecut=    70.00 Ry     beta=0.70
     Davidson diagonalization with overlap
     ethr =  7.96E-11,  avg # of iterations =  2.0

     total cpu time spent up to now is       39.0 secs

     total energy              =    -608.39288064 Ry
     Harris-Foulkes estimate   =    -608.39288064 Ry
     estimated scf accuracy    <          1.6E-09 Ry

     iteration #  3     ecut=    70.00 Ry     beta=0.70
     Davidson diagonalization with overlap
     ethr =  2.54E-12,  avg # of iterations =  2.6

     total cpu time spent up to now is       40.1 secs

     total energy              =    -608.39288064 Ry
     Harris-Foulkes estimate   =    -608.39288064 Ry
     estimated scf accuracy    <          3.6E-10 Ry

     iteration #  4     ecut=    70.00 Ry     beta=0.70
     Davidson diagonalization with overlap
     ethr =  5.56E-13,  avg # of iterations =  3.0

     total cpu time spent up to now is       41.2 secs

     total energy              =    -608.39288064 Ry
     Harris-Foulkes estimate   =    -608.39288064 Ry
     estimated scf accuracy    <          2.8E-10 Ry

     iteration #  5     ecut=    70.00 Ry     beta=0.70
     Davidson diagonalization with overlap
     ethr =  4.42E-13,  avg # of iterations =  2.4

     total cpu time spent up to now is       42.2 secs

     End of self-consistent calculation

          k = 0.0000 0.0000 0.0000 (  5137 PWs)   bands (ev):

   -64.8345 -64.8250 -64.8250 -64.8242 -31.6309 -31.6309 -31.6309 -31.5938
   -31.5934 -31.5933 -31.5933 -31.5933 -31.5929 -31.5639 -31.5633 -31.5626
    -9.3646  -7.9138  -7.9137  -7.9136   3.7581   3.7581   3.7581   6.3676
     6.3799   6.3801   6.3801   6.3803   6.3926   7.6648   7.6725   7.6803

          k = 0.0000 0.0000 0.2500 (  5157 PWs)   bands (ev):

   -64.8330 -64.8262 -64.8250 -64.8244 -31.6241 -31.6241 -31.6204 -31.5981
   -31.5981 -31.5939 -31.5939 -31.5895 -31.5885 -31.5782 -31.5720 -31.5708
    -9.1562  -8.1286  -7.8853  -7.8852   4.0486   4.0486   4.0955   5.8581
     5.8581   6.1705   6.1709   6.5308   6.5547   6.6589   7.4416   7.4590

          k = 0.0000 0.0000-0.5000 (  5110 PWs)   bands (ev):

   -64.8298 -64.8294 -64.8250 -64.8244 -31.6104 -31.6102 -31.6083 -31.6081
   -31.6019 -31.6019 -31.5907 -31.5906 -31.5811 -31.5809 -31.5800 -31.5797
    -8.6460  -8.6459  -7.8565  -7.8564   4.8465   4.8465   4.8494   4.8494
     5.1227   5.1230   5.9734   5.9738   6.9579   6.9579   6.9789   6.9789

          k = 0.0000 0.2500 0.0000 (  5159 PWs)   bands (ev):

   -64.8330 -64.8262 -64.8250 -64.8244 -31.6244 -31.6243 -31.6204 -31.5983
   -31.5982 -31.5939 -31.5935 -31.5890 -31.5890 -31.5782 -31.5714 -31.5713
    -9.1562  -8.1285  -7.8853  -7.8852   4.0484   4.0484   4.0955   5.8578
     5.8581   6.1706   6.1711   6.5427   6.5427   6.6589   7.4503   7.4503

          k = 0.0000 0.2500 0.2500 (  5162 PWs)   bands (ev):

   -64.8318 -64.8262 -64.8258 -64.8248 -31.6213 -31.6209 -31.6195 -31.6071
   -31.5941 -31.5940 -31.5929 -31.5878 -31.5868 -31.5866 -31.5753 -31.5684
    -8.9660  -8.0639  -8.0638  -7.8902   4.1612   4.1614   4.3287   5.0714
     5.8471   6.0553   6.0557   6.4847   6.4850   6.5835   7.1733   7.5056

          k = 0.0000 0.2500-0.5000 (  5152 PWs)   bands (ev):

   -64.8291 -64.8287 -64.8257 -64.8251 -31.6173 -31.6172 -31.6100 -31.6100
   -31.6068 -31.6065 -31.5850 -31.5848 -31.5837 -31.5837 -31.5754 -31.5752
    -8.5096  -8.5095  -7.9469  -7.9468   4.4184   4.4185   4.7511   4.7513
     5.0963   5.0963   6.5478   6.5481   6.5758   6.5758   7.0942   7.0942

          k = 0.0000-0.5000 0.0000 (  5110 PWs)   bands (ev):

   -64.8298 -64.8294 -64.8250 -64.8244 -31.6094 -31.6094 -31.6092 -31.6092
   -31.6019 -31.6019 -31.5906 -31.5906 -31.5806 -31.5805 -31.5803 -31.5803
    -8.6459  -8.6458  -7.8565  -7.8564   4.8479   4.8479   4.8480   4.8480
     5.1227   5.1230   5.9734   5.9738   6.9683   6.9684   6.9684   6.9684

          k = 0.0000-0.5000 0.2500 (  5150 PWs)   bands (ev):

   -64.8291 -64.8287 -64.8257 -64.8251 -31.6173 -31.6171 -31.6100 -31.6100
   -31.6067 -31.6065 -31.5850 -31.5847 -31.5838 -31.5837 -31.5752 -31.5750
    -8.5096  -8.5095  -7.9469  -7.9468   4.4184   4.4184   4.7511   4.7513
     5.0963   5.0964   6.5478   6.5480   6.5758   6.5759   7.0941   7.0942

          k = 0.0000-0.5000-0.5000 (  5216 PWs)   bands (ev):

   -64.8274 -64.8274 -64.8274 -64.8264 -31.6194 -31.6192 -31.6191 -31.6191
   -31.5974 -31.5972 -31.5972 -31.5969 -31.5768 -31.5767 -31.5765 -31.5765
    -8.2054  -8.2053  -8.2053  -8.2053   4.2932   4.2933   4.2933   4.2935
     5.7670   5.7670   5.7673   5.7673   7.0632   7.0633   7.0633   7.0635

          k = 0.2500-0.0005 0.0000 (  5159 PWs)   bands (ev):

   -64.8330 -64.8262 -64.8250 -64.8244 -31.6244 -31.6243 -31.6204 -31.5983
   -31.5982 -31.5939 -31.5935 -31.5890 -31.5890 -31.5782 -31.5714 -31.5713
    -9.1562  -8.1285  -7.8853  -7.8852   4.0484   4.0484   4.0955   5.8578
     5.8581   6.1706   6.1711   6.5427   6.5427   6.6589   7.4503   7.4503

          k = 0.2500-0.0005 0.2500 (  5162 PWs)   bands (ev):

   -64.8318 -64.8262 -64.8258 -64.8248 -31.6213 -31.6209 -31.6195 -31.6071
   -31.5941 -31.5940 -31.5929 -31.5878 -31.5868 -31.5866 -31.5753 -31.5684
    -8.9660  -8.0639  -8.0638  -7.8902   4.1611   4.1615   4.3287   5.0714
     5.8471   6.0552   6.0557   6.4847   6.4850   6.5835   7.1733   7.5056

          k = 0.2500-0.0005-0.5000 (  5152 PWs)   bands (ev):

   -64.8291 -64.8287 -64.8257 -64.8251 -31.6173 -31.6172 -31.6100 -31.6100
   -31.6068 -31.6065 -31.5850 -31.5848 -31.5837 -31.5837 -31.5754 -31.5752
    -8.5096  -8.5095  -7.9469  -7.9468   4.4184   4.4185   4.7511   4.7513
     5.0963   5.0963   6.5478   6.5481   6.5758   6.5758   7.0942   7.0942

          k = 0.2500 0.2495 0.0000 (  5161 PWs)   bands (ev):

   -64.8318 -64.8262 -64.8258 -64.8248 -31.6213 -31.6211 -31.6195 -31.6063
   -31.5944 -31.5943 -31.5922 -31.5883 -31.5865 -31.5863 -31.5754 -31.5690
    -8.9671  -8.0625  -8.0624  -7.8915   4.1610   4.1611   4.3275   5.0647
     5.8434   6.0569   6.0573   6.4824   6.4824   6.5946   7.1712   7.5132

          k = 0.2500 0.2495 0.2500 (  5154 PWs)   bands (ev):

   -64.8308 -64.8262 -64.8262 -64.8254 -31.6256 -31.6255 -31.6249 -31.6058
   -31.5933 -31.5930 -31.5928 -31.5843 -31.5841 -31.5841 -31.5715 -31.5711
    -8.7973  -8.0319  -8.0294  -8.0293   3.9964   4.0014   4.0015   5.0845
     5.8424   5.8444   5.8446   6.7042   6.7043   6.7163   7.3543   7.3637

          k = 0.2500 0.2495-0.5000 (  5128 PWs)   bands (ev):

   -64.8286 -64.8282 -64.8262 -64.8255 -31.6281 -31.6280 -31.6206 -31.6206
   -31.5919 -31.5917 -31.5807 -31.5806 -31.5784 -31.5782 -31.5773 -31.5772
    -8.4003  -8.4002  -7.9958  -7.9958   3.8237   3.8238   4.1929   4.1930
     5.8276   5.8276   6.7392   6.7394   6.8675   6.8677   7.0256   7.0256

          k = 0.2500-0.5005 0.0000 (  5148 PWs)   bands (ev):

   -64.8291 -64.8287 -64.8257 -64.8251 -31.6180 -31.6163 -31.6108 -31.6092
   -31.6068 -31.6065 -31.5849 -31.5846 -31.5840 -31.5832 -31.5757 -31.5748
    -8.5113  -8.5078  -7.9488  -7.9450   4.4161   4.4208   4.7502   4.7522
     5.0944   5.0983   6.5404   6.5555   6.5731   6.5785   7.0885   7.0998

          k = 0.2500-0.5005 0.2500 (  5134 PWs)   bands (ev):

   -64.8286 -64.8282 -64.8262 -64.8256 -31.6280 -31.6274 -31.6216 -31.6203
   -31.5929 -31.5926 -31.5808 -31.5802 -31.5783 -31.5780 -31.5775 -31.5770
    -8.4008  -8.3974  -7.9990  -7.9953   3.8178   3.8253   4.1952   4.2008
     5.8287   5.8321   6.7349   6.7458   6.8650   6.8725   7.0144   7.0178

          k = 0.2500-0.5005-0.5000 (  5138 PWs)   bands (ev):

   -64.8274 -64.8274 -64.8274 -64.8264 -31.6320 -31.6318 -31.6309 -31.6307
   -31.5832 -31.5830 -31.5825 -31.5823 -31.5755 -31.5753 -31.5751 -31.5751
    -8.1696  -8.1695  -8.1661  -8.1660   3.6364   3.6364   3.6443   3.6444
     6.5187   6.5187   6.5301   6.5302   7.0627   7.0628   7.0661   7.0662

          k = 0.2500-0.2505 0.0000 (  5161 PWs)   bands (ev):

   -64.8318 -64.8262 -64.8258 -64.8247 -31.6206 -31.6204 -31.6195 -31.6079
   -31.5943 -31.5943 -31.5936 -31.5873 -31.5870 -31.5868 -31.5753 -31.5677
    -8.9649  -8.0652  -8.0651  -7.8889   4.1619   4.1619   4.3298   5.0780
     5.8508   6.0535   6.0539   6.4871   6.4871   6.5723   7.1755   7.4980

          k = 0.2500-0.2505 0.2500 (  5158 PWs)   bands (ev):

   -64.8308 -64.8262 -64.8262 -64.8254 -31.6252 -31.6245 -31.6244 -31.6064
   -31.5943 -31.5942 -31.5940 -31.5840 -31.5840 -31.5836 -31.5713 -31.5709
    -8.7951  -8.0321  -8.0320  -8.0295   3.9994   3.9994   4.0045   5.0938
     5.8470   5.8471   5.8491   6.6946   6.7064   6.7065   7.3471   7.3564

          k = 0.2500-0.2505-0.5000 (  5140 PWs)   bands (ev):

   -64.8286 -64.8282 -64.8262 -64.8256 -31.6275 -31.6274 -31.6213 -31.6212
   -31.5936 -31.5934 -31.5804 -31.5804 -31.5781 -31.5780 -31.5773 -31.5770
    -8.3980  -8.3979  -7.9985  -7.9984   3.8193   3.8194   4.2029   4.2030
     5.8333   5.8333   6.7412   6.7415   6.8700   6.8701   7.0065   7.0065

          k =-0.5000 0.0011 0.0000 (  5110 PWs)   bands (ev):

   -64.8298 -64.8294 -64.8250 -64.8244 -31.6094 -31.6094 -31.6092 -31.6092
   -31.6019 -31.6019 -31.5906 -31.5906 -31.5806 -31.5805 -31.5803 -31.5803
    -8.6460  -8.6458  -7.8565  -7.8564   4.8478   4.8478   4.8482   4.8482
     5.1227   5.1230   5.9734   5.9738   6.9683   6.9683   6.9685   6.9685

          k =-0.5000 0.0011 0.2500 (  5150 PWs)   bands (ev):

   -64.8291 -64.8287 -64.8257 -64.8251 -31.6173 -31.6171 -31.6100 -31.6100
   -31.6067 -31.6065 -31.5850 -31.5847 -31.5838 -31.5837 -31.5752 -31.5750
    -8.5097  -8.5094  -7.9469  -7.9468   4.4183   4.4185   4.7511   4.7514
     5.0962   5.0966   6.5478   6.5480   6.5757   6.5760   7.0941   7.0942

          k =-0.5000 0.0011-0.5000 (  5216 PWs)   bands (ev):

   -64.8274 -64.8274 -64.8274 -64.8264 -31.6194 -31.6192 -31.6191 -31.6191
   -31.5974 -31.5972 -31.5972 -31.5969 -31.5768 -31.5767 -31.5765 -31.5765
    -8.2054  -8.2054  -8.2053  -8.2051   4.2930   4.2932   4.2935   4.2936
     5.7668   5.7670   5.7673   5.7676   7.0631   7.0633   7.0634   7.0635

          k =-0.5000 0.2511 0.0000 (  5148 PWs)   bands (ev):

   -64.8291 -64.8287 -64.8257 -64.8251 -31.6180 -31.6163 -31.6108 -31.6092
   -31.6068 -31.6065 -31.5849 -31.5846 -31.5840 -31.5832 -31.5757 -31.5748
    -8.5113  -8.5078  -7.9488  -7.9450   4.4161   4.4208   4.7502   4.7522
     5.0944   5.0983   6.5404   6.5555   6.5731   6.5786   7.0885   7.0998

          k =-0.5000 0.2511 0.2500 (  5134 PWs)   bands (ev):

   -64.8286 -64.8282 -64.8262 -64.8256 -31.6280 -31.6274 -31.6216 -31.6203
   -31.5929 -31.5926 -31.5808 -31.5802 -31.5783 -31.5780 -31.5775 -31.5770
    -8.4008  -8.3973  -7.9990  -7.9953   3.8178   3.8253   4.1952   4.2008
     5.8287   5.8321   6.7349   6.7458   6.8650   6.8725   7.0144   7.0178

          k =-0.5000 0.2511-0.5000 (  5138 PWs)   bands (ev):

   -64.8274 -64.8274 -64.8274 -64.8264 -31.6320 -31.6318 -31.6309 -31.6307
   -31.5832 -31.5830 -31.5825 -31.5823 -31.5755 -31.5753 -31.5751 -31.5751
    -8.1696  -8.1695  -8.1661  -8.1660   3.6364   3.6364   3.6443   3.6444
     6.5187   6.5187   6.5302   6.5302   7.0627   7.0628   7.0661   7.0662

          k =-0.5000-0.4989 0.0000 (  5216 PWs)   bands (ev):

   -64.8274 -64.8274 -64.8274 -64.8264 -31.6203 -31.6200 -31.6183 -31.6181
   -31.5974 -31.5973 -31.5972 -31.5970 -31.5773 -31.5771 -31.5762 -31.5760
    -8.2079  -8.2078  -8.2028  -8.2027   4.2918   4.2919   4.2947   4.2948
     5.7638   5.7641   5.7702   5.7705   7.0547   7.0547   7.0719   7.0720

          k =-0.5000-0.4989 0.2500 (  5136 PWs)   bands (ev):

   -64.8274 -64.8274 -64.8274 -64.8264 -31.6318 -31.6317 -31.6307 -31.6306
   -31.5830 -31.5829 -31.5825 -31.5825 -31.5760 -31.5758 -31.5748 -31.5746
    -8.1703  -8.1702  -8.1653  -8.1652   3.6371   3.6372   3.6436   3.6436
     6.5233   6.5236   6.5252   6.5255   7.0558   7.0559   7.0730   7.0731

          k =-0.5000-0.4989-0.5000 (  5136 PWs)   bands (ev):

   -64.8274 -64.8274 -64.8273 -64.8263 -31.6406 -31.6405 -31.6382 -31.6381
   -31.5753 -31.5752 -31.5752 -31.5750 -31.5747 -31.5745 -31.5744 -31.5744
    -8.1323  -8.1322  -8.1271  -8.1270   3.2133   3.2133   3.2217   3.2218
     7.0565   7.0565   7.0651   7.0653   7.0654   7.0655   7.0742   7.0742

     highest occupied level (ev):     7.6803

!    total energy              =    -608.39288064 Ry
     Harris-Foulkes estimate   =    -608.39288064 Ry
     estimated scf accuracy    <          8.8E-13 Ry

     The total energy is the sum of the following terms:

     one-electron contribution =    -303.55789925 Ry
     hartree contribution      =     168.06828476 Ry
     xc contribution           =     -97.84643306 Ry
     ewald contribution        =    -375.05683310 Ry

     convergence has been achieved in   5 iterations

     Forces acting on atoms (cartesian axes, Ry/au):

     atom    1 type  1   force =    -0.00001372   -0.00000295    0.00000000
     atom    2 type  1   force =     0.00001823    0.00000322    0.00000000
     atom    3 type  1   force =    -0.00005940   -0.00000311    0.00000000
     atom    4 type  1   force =     0.00007597    0.00000281    0.00000000
     atom    5 type  2   force =     0.00003025   -0.00000145    0.00000000
     atom    6 type  2   force =    -0.00005530    0.00000145    0.00000000
     atom    7 type  2   force =     0.00003715   -0.00000137    0.00000000
     atom    8 type  2   force =    -0.00003318    0.00000139    0.00000000

     Total force =     0.000128     Total SCF correction =     0.000003


     Computing stress (Cartesian axis) and pressure

          total   stress  (Ry/bohr**3)                   (kbar)     P=  -67.97
  -0.00046244  -0.00002038   0.00000000        -68.03     -3.00      0.00
  -0.00002038  -0.00046235   0.00000000         -3.00    -68.01      0.00
   0.00000000   0.00000000  -0.00046135          0.00      0.00    -67.87


     bfgs converged in   6 scf cycles and   5 bfgs steps
     (criteria: energy <  1.0E-05 Ry, force <  1.0E-04 Ry/Bohr)

     End of BFGS Geometry Optimization

     Final energy   =    -608.3928806433 Ry
Begin final coordinates

ATOMIC_POSITIONS (alat)
Mg      -0.000478464   0.000001880   0.000000000
Mg       0.000520828   0.499997838   0.500000000
Mg       0.499489855   0.000001964   0.500000000
Mg       0.500466455   0.499998308   0.000000000
O        0.499444235   0.000001178   0.000000000
O        0.000561578   0.499998946   0.000000000
O       -0.000544146   0.000001059   0.500000000
O        0.500539660   0.499998827   0.500000000
End final coordinates



     Writing output data file diamond..70.4.save
 
     init_run     :      0.43s CPU      0.45s WALL (       1 calls)
     electrons    :     37.50s CPU     38.83s WALL (       6 calls)
     update_pot   :      0.46s CPU      0.47s WALL (       5 calls)
     forces       :      0.68s CPU      0.68s WALL (       6 calls)
     stress       :      1.73s CPU      1.75s WALL (       6 calls)

     Called by init_run:
     wfcinit      :      0.34s CPU      0.35s WALL (       1 calls)
     potinit      :      0.04s CPU      0.04s WALL (       1 calls)

     Called by electrons:
     c_bands      :     33.03s CPU     34.22s WALL (      36 calls)
     sum_band     :      4.30s CPU      4.41s WALL (      36 calls)
     v_of_rho     :      0.15s CPU      0.15s WALL (      37 calls)
     mix_rho      :      0.02s CPU      0.02s WALL (      36 calls)

     Called by c_bands:
     init_us_2    :      0.46s CPU      0.50s WALL (    2550 calls)
     cegterg      :     31.03s CPU     32.11s WALL (    1080 calls)

     Called by sum_band:

     Called by *egterg:
     h_psi        :     23.30s CPU     23.89s WALL (    3747 calls)
     g_psi        :      0.08s CPU      0.09s WALL (    2637 calls)
     cdiaghg      :      4.60s CPU      4.62s WALL (    3417 calls)

     Called by h_psi:
     h_psi:pot    :     23.18s CPU     23.72s WALL (    3747 calls)
     h_psi:calbec :      0.99s CPU      0.97s WALL (    3747 calls)
     vloc_psi     :     21.41s CPU     21.93s WALL (    3747 calls)
     add_vuspsi   :      0.78s CPU      0.80s WALL (    3747 calls)

     General routines
     calbec       :      1.32s CPU      1.30s WALL (    4647 calls)
     fft          :      0.10s CPU      0.11s WALL (     566 calls)
     fftw         :     24.40s CPU     24.27s WALL (  219780 calls)
     davcio       :      0.00s CPU      0.00s WALL (      30 calls)
 
     Parallel routines
     fft_scatter  :      4.62s CPU      5.01s WALL (  220346 calls)
 
     PWSCF        :    41.16s CPU        42.66s WALL

 
   This run was terminated on:  18:39:57  22Apr2018            

=------------------------------------------------------------------------------=
   JOB DONE.
=------------------------------------------------------------------------------=
