
     Program PWSCF v.6.1 (svn rev. 13369) starts on 22Apr2018 at 19: 5: 1 

     This program is part of the open-source Quantum ESPRESSO suite
     for quantum simulation of materials; please cite
         "P. Giannozzi et al., J. Phys.:Condens. Matter 21 395502 (2009);
          URL http://www.quantum-espresso.org", 
     in publications or presentations arising from this work. More details at
     http://www.quantum-espresso.org/quote

     Parallel version (MPI), running on     8 processors
     R & G space division:  proc/nbgrp/npool/nimage =       8
     Waiting for input...
     Reading input from standard input
Warning: card       &CELL ignored
Warning: card          CELL_DYNAMICS = 'BFGS' ignored
Warning: card          PRESS = 0.0D0 ignored
Warning: card          PRESS_CONV_THR = 0.01D0 ignored
Warning: card       / ignored

     Current dimensions of program PWSCF are:
     Max number of different atomic species (ntypx) = 10
     Max number of k-points (npk) =  40000
     Max angular momentum in pseudopotentials (lmaxx) =  3

     Subspace diagonalization in iterative solution of the eigenvalue problem:
     a serial algorithm will be used

 
     Parallelization info
     --------------------
     sticks:   dense  smooth     PW     G-vecs:    dense   smooth      PW
     Min         181     181     52                 5151     5151     816
     Max         182     182     53                 5153     5153     819
     Sum        1449    1449    421                41211    41211    6543
 


     bravais-lattice index     =           12
     lattice parameter (alat)  =       8.0448  a.u.
     unit-cell volume          =     520.6271 (a.u.)^3
     number of atoms/cell      =            8
     number of atomic types    =            2
     number of electrons       =        64.00
     number of Kohn-Sham states=           32
     kinetic-energy cutoff     =      70.0000  Ry
     charge density cutoff     =     280.0000  Ry
     convergence threshold     =      1.0E-08
     mixing beta               =       0.7000
     number of iterations used =            8  plain     mixing
     Exchange-correlation      = PBE ( 1  4  3  4 0 0)
     nstep                     =           50


     celldm(1)=   8.044750  celldm(2)=   1.000000  celldm(3)=   1.000025
     celldm(4)=  -0.010000  celldm(5)=   0.000000  celldm(6)=   0.000000

     crystal axes: (cart. coord. in units of alat)
               a(1) = (   1.000000   0.000000   0.000000 )  
               a(2) = (  -0.010000   0.999950   0.000000 )  
               a(3) = (   0.000000   0.000000   1.000025 )  

     reciprocal axes: (cart. coord. in units 2 pi/alat)
               b(1) = (  1.000000  0.010001  0.000000 )  
               b(2) = (  0.000000  1.000050  0.000000 )  
               b(3) = (  0.000000  0.000000  0.999975 )  


     PseudoPot. # 1 for Mg read from file:
     ../pseudo/Mg.pbe.UPF
     MD5 check sum: 4c04d8c6e0476e83eaecaf72fa8acc4d
     Pseudo is Norm-conserving, Zval = 10.0
     Generated using ONCVPSP code by D. R. Hamann
     Using radial grid of 1510 points,  4 beta functions with: 
                l(1) =   0
                l(2) =   0
                l(3) =   1
                l(4) =   1

     PseudoPot. # 2 for O  read from file:
     ../pseudo/O.pbe.UPF
     MD5 check sum: 3e3f909f7470e8921608ab6b1f57bbae
     Pseudo is Norm-conserving + core correction, Zval =  6.0
     Generated using ONCVPSP code by D. R. Hamann
     Using radial grid of  936 points,  5 beta functions with: 
                l(1) =   0
                l(2) =   0
                l(3) =   1
                l(4) =   1
                l(5) =   2

     atomic species   valence    mass     pseudopotential
        Mg            10.00    24.30500     Mg( 1.00)
        O              6.00    15.99940     O ( 1.00)

     No symmetry found



   Cartesian axes

     site n.     atom                  positions (alat units)
         1           Mg  tau(   1) = (   0.0000000   0.0000000   0.0000000  )
         2           Mg  tau(   2) = (   0.0000000   0.5000000   0.5000000  )
         3           Mg  tau(   3) = (   0.5000000   0.0000000   0.5000000  )
         4           Mg  tau(   4) = (   0.5000000   0.5000000   0.0000000  )
         5           O   tau(   5) = (   0.5000000   0.0000000   0.0000000  )
         6           O   tau(   6) = (   0.0000000   0.5000000   0.0000000  )
         7           O   tau(   7) = (   0.0000000   0.0000000   0.5000000  )
         8           O   tau(   8) = (   0.5000000   0.5000000   0.5000000  )

     number of k points=    36
                       cart. coord. in units 2pi/alat
        k(    1) = (   0.0000000   0.0000000   0.0000000), wk =   0.0312500
        k(    2) = (   0.0000000   0.0000000   0.2499938), wk =   0.0625000
        k(    3) = (   0.0000000   0.0000000  -0.4999875), wk =   0.0312500
        k(    4) = (   0.0000000   0.2500125   0.0000000), wk =   0.0625000
        k(    5) = (   0.0000000   0.2500125   0.2499938), wk =   0.0625000
        k(    6) = (   0.0000000   0.2500125  -0.4999875), wk =   0.0625000
        k(    7) = (   0.0000000  -0.5000250   0.0000000), wk =   0.0312500
        k(    8) = (   0.0000000  -0.5000250   0.2499938), wk =   0.0625000
        k(    9) = (   0.0000000  -0.5000250  -0.4999875), wk =   0.0312500
        k(   10) = (   0.2500000   0.0025001   0.0000000), wk =   0.0625000
        k(   11) = (   0.2500000   0.0025001   0.2499938), wk =   0.0625000
        k(   12) = (   0.2500000   0.0025001  -0.4999875), wk =   0.0625000
        k(   13) = (   0.2500000   0.2525126   0.0000000), wk =   0.0625000
        k(   14) = (   0.2500000   0.2525126   0.2499938), wk =   0.0625000
        k(   15) = (   0.2500000   0.2525126  -0.4999875), wk =   0.0625000
        k(   16) = (   0.2500000  -0.4975249   0.0000000), wk =   0.0625000
        k(   17) = (   0.2500000  -0.4975249   0.2499938), wk =   0.0625000
        k(   18) = (   0.2500000  -0.4975249  -0.4999875), wk =   0.0625000
        k(   19) = (   0.2500000  -0.2475124   0.0000000), wk =   0.0625000
        k(   20) = (   0.2500000  -0.2475124   0.2499938), wk =   0.0625000
        k(   21) = (   0.2500000  -0.2475124  -0.4999875), wk =   0.0625000
        k(   22) = (  -0.5000000  -0.0050003   0.0000000), wk =   0.0312500
        k(   23) = (  -0.5000000  -0.0050003   0.2499938), wk =   0.0625000
        k(   24) = (  -0.5000000  -0.0050003  -0.4999875), wk =   0.0312500
        k(   25) = (  -0.5000000   0.2450123   0.0000000), wk =   0.0625000
        k(   26) = (  -0.5000000   0.2450123   0.2499938), wk =   0.0625000
        k(   27) = (  -0.5000000   0.2450123  -0.4999875), wk =   0.0625000
        k(   28) = (  -0.5000000  -0.5050253   0.0000000), wk =   0.0312500
        k(   29) = (  -0.5000000  -0.5050253   0.2499938), wk =   0.0625000
        k(   30) = (  -0.5000000  -0.5050253  -0.4999875), wk =   0.0312500
        k(   31) = (   0.0000000  -0.2500125   0.2499938), wk =   0.0625000
        k(   32) = (  -0.2500000  -0.0025001   0.2499938), wk =   0.0625000
        k(   33) = (  -0.2500000  -0.2525126   0.2499938), wk =   0.0625000
        k(   34) = (  -0.2500000   0.4975249   0.2499938), wk =   0.0625000
        k(   35) = (  -0.2500000   0.2475124   0.2499938), wk =   0.0625000
        k(   36) = (   0.5000000  -0.2450123   0.2499938), wk =   0.0625000

     Dense  grid:    41211 G-vectors     FFT dimensions: (  45,  45,  45)

     Estimated max dynamical RAM per process >      17.21MB

     Estimated total allocated dynamical RAM >     137.72MB

     Check: negative/imaginary core charge=   -0.000007    0.000000

     Initial potential from superposition of free atoms

     starting charge   63.99678, renormalised to   64.00000
     Starting wfc are   36 randomized atomic wfcs

     total cpu time spent up to now is        0.6 secs

     per-process dynamical memory:    52.0 Mb

     Self-consistent Calculation

     iteration #  1     ecut=    70.00 Ry     beta=0.70
     Davidson diagonalization with overlap
     ethr =  1.00E-02,  avg # of iterations =  2.0

     total cpu time spent up to now is        1.9 secs

     total energy              =    -607.71884745 Ry
     Harris-Foulkes estimate   =    -608.84330851 Ry
     estimated scf accuracy    <       1.56233379 Ry

     iteration #  2     ecut=    70.00 Ry     beta=0.70
     Davidson diagonalization with overlap
     ethr =  2.44E-03,  avg # of iterations =  2.9

     total cpu time spent up to now is        3.2 secs

     total energy              =    -608.10507424 Ry
     Harris-Foulkes estimate   =    -608.80362994 Ry
     estimated scf accuracy    <       1.45048816 Ry

     iteration #  3     ecut=    70.00 Ry     beta=0.70
     Davidson diagonalization with overlap
     ethr =  2.27E-03,  avg # of iterations =  2.0

     total cpu time spent up to now is        4.3 secs

     total energy              =    -608.39086803 Ry
     Harris-Foulkes estimate   =    -608.39152212 Ry
     estimated scf accuracy    <       0.00675330 Ry

     iteration #  4     ecut=    70.00 Ry     beta=0.70
     Davidson diagonalization with overlap
     ethr =  1.06E-05,  avg # of iterations =  2.0

     total cpu time spent up to now is        5.5 secs

     total energy              =    -608.39234498 Ry
     Harris-Foulkes estimate   =    -608.39239009 Ry
     estimated scf accuracy    <       0.00011212 Ry

     iteration #  5     ecut=    70.00 Ry     beta=0.70
     Davidson diagonalization with overlap
     ethr =  1.75E-07,  avg # of iterations =  1.5

     total cpu time spent up to now is        6.5 secs

     total energy              =    -608.39235229 Ry
     Harris-Foulkes estimate   =    -608.39235088 Ry
     estimated scf accuracy    <       0.00001044 Ry

     iteration #  6     ecut=    70.00 Ry     beta=0.70
     Davidson diagonalization with overlap
     ethr =  1.63E-08,  avg # of iterations =  2.0

     total cpu time spent up to now is        7.8 secs

     total energy              =    -608.39235394 Ry
     Harris-Foulkes estimate   =    -608.39235434 Ry
     estimated scf accuracy    <       0.00000106 Ry

     iteration #  7     ecut=    70.00 Ry     beta=0.70
     Davidson diagonalization with overlap
     ethr =  1.66E-09,  avg # of iterations =  2.0

     total cpu time spent up to now is        8.9 secs

     total energy              =    -608.39235392 Ry
     Harris-Foulkes estimate   =    -608.39235403 Ry
     estimated scf accuracy    <       0.00000027 Ry

     iteration #  8     ecut=    70.00 Ry     beta=0.70
     Davidson diagonalization with overlap
     ethr =  4.16E-10,  avg # of iterations =  2.0

     total cpu time spent up to now is       10.1 secs

     total energy              =    -608.39235393 Ry
     Harris-Foulkes estimate   =    -608.39235395 Ry
     estimated scf accuracy    <       0.00000004 Ry

     iteration #  9     ecut=    70.00 Ry     beta=0.70
     Davidson diagonalization with overlap
     ethr =  6.97E-11,  avg # of iterations =  2.0

     total cpu time spent up to now is       11.5 secs

     End of self-consistent calculation

          k = 0.0000 0.0000 0.0000 (  5141 PWs)   bands (ev):

   -64.8347 -64.8252 -64.8252 -64.8244 -31.6310 -31.6307 -31.6306 -31.5951
   -31.5934 -31.5932 -31.5927 -31.5925 -31.5912 -31.5671 -31.5653 -31.5635
    -9.3641  -7.9133  -7.9125  -7.9124   3.7586   3.7598   3.7600   6.3229
     6.3804   6.3806   6.3809   6.3814   6.4395   7.6370   7.6723   7.7097

          k = 0.0000 0.0000 0.2500 (  5149 PWs)   bands (ev):

   -64.8333 -64.8264 -64.8252 -64.8246 -31.6255 -31.6253 -31.6205 -31.5976
   -31.5975 -31.5939 -31.5937 -31.5910 -31.5865 -31.5782 -31.5736 -31.5688
    -9.1557  -8.1282  -7.8840  -7.8840   4.0464   4.0494   4.0989   5.8584
     5.8585   6.1713   6.1718   6.4884   6.6003   6.6593   7.4110   7.4925

          k = 0.0000 0.0000-0.5000 (  5130 PWs)   bands (ev):

   -64.8301 -64.8296 -64.8252 -64.8246 -31.6149 -31.6146 -31.6069 -31.6065
   -31.6019 -31.6018 -31.5912 -31.5911 -31.5831 -31.5827 -31.5781 -31.5778
    -8.6455  -8.6454  -7.8552  -7.8552   4.8406   4.8406   4.8541   4.8542
     5.1241   5.1244   5.9742   5.9746   6.9205   6.9206   7.0188   7.0189

          k = 0.0000 0.2500 0.0000 (  5165 PWs)   bands (ev):

   -64.8333 -64.8264 -64.8252 -64.8246 -31.6250 -31.6248 -31.6217 -31.5998
   -31.5982 -31.5935 -31.5927 -31.5892 -31.5887 -31.5799 -31.5717 -31.5706
    -9.1556  -8.1275  -7.8849  -7.8840   4.0489   4.0495   4.0961   5.8486
     5.8589   6.1712   6.1823   6.5433   6.5438   6.6592   7.4505   7.4522

          k = 0.0000 0.2500 0.2500 (  5154 PWs)   bands (ev):

   -64.8320 -64.8264 -64.8261 -64.8250 -31.6215 -31.6210 -31.6202 -31.6072
   -31.5947 -31.5941 -31.5929 -31.5874 -31.5865 -31.5863 -31.5755 -31.5685
    -8.9654  -8.0633  -8.0628  -7.8891   4.1617   4.1625   4.3296   5.0717
     5.8475   6.0525   6.0561   6.4859   6.4905   6.5847   7.1736   7.5075

          k = 0.0000 0.2500-0.5000 (  5150 PWs)   bands (ev):

   -64.8294 -64.8289 -64.8259 -64.8253 -31.6185 -31.6182 -31.6102 -31.6102
   -31.6065 -31.6063 -31.5854 -31.5852 -31.5837 -31.5837 -31.5751 -31.5748
    -8.5091  -8.5089  -7.9458  -7.9458   4.4192   4.4193   4.7513   4.7515
     5.0968   5.0971   6.5482   6.5484   6.5756   6.5758   7.0973   7.0974

          k = 0.0000-0.5000 0.0000 (  5128 PWs)   bands (ev):

   -64.8300 -64.8296 -64.8252 -64.8246 -31.6115 -31.6104 -31.6100 -31.6098
   -31.6027 -31.6019 -31.5920 -31.5916 -31.5806 -31.5803 -31.5799 -31.5796
    -8.6454  -8.6448  -7.8561  -7.8552   4.8453   4.8482   4.8485   4.8487
     5.1236   5.1243   5.9738   5.9779   6.9687   6.9691   6.9696   6.9697

          k = 0.0000-0.5000 0.2500 (  5152 PWs)   bands (ev):

   -64.8293 -64.8289 -64.8259 -64.8253 -31.6180 -31.6174 -31.6108 -31.6104
   -31.6070 -31.6067 -31.5854 -31.5851 -31.5839 -31.5835 -31.5751 -31.5748
    -8.5091  -8.5085  -7.9465  -7.9457   4.4183   4.4188   4.7518   4.7525
     5.0971   5.0975   6.5484   6.5506   6.5763   6.5765   7.0947   7.0957

          k = 0.0000-0.5000-0.5000 (  5180 PWs)   bands (ev):

   -64.8276 -64.8276 -64.8275 -64.8266 -31.6195 -31.6193 -31.6191 -31.6190
   -31.5969 -31.5967 -31.5967 -31.5964 -31.5760 -31.5759 -31.5757 -31.5756
    -8.2049  -8.2048  -8.2042  -8.2041   4.2937   4.2938   4.2941   4.2942
     5.7684   5.7686   5.7687   5.7689   7.0639   7.0641   7.0652   7.0653

          k = 0.2500 0.0025 0.0000 (  5165 PWs)   bands (ev):

   -64.8333 -64.8264 -64.8252 -64.8246 -31.6251 -31.6248 -31.6216 -31.5998
   -31.5982 -31.5933 -31.5929 -31.5892 -31.5887 -31.5799 -31.5717 -31.5706
    -9.1556  -8.1277  -7.8845  -7.8841   4.0489   4.0495   4.0961   5.8516
     5.8590   6.1711   6.1781   6.5436   6.5441   6.6584   7.4505   7.4529

          k = 0.2500 0.0025 0.2500 (  5154 PWs)   bands (ev):

   -64.8320 -64.8264 -64.8260 -64.8250 -31.6215 -31.6209 -31.6203 -31.6072
   -31.5950 -31.5936 -31.5930 -31.5874 -31.5866 -31.5861 -31.5755 -31.5685
    -8.9655  -8.0709  -8.0551  -7.8891   4.1486   4.1756   4.3295   5.0717
     5.8475   6.0351   6.0744   6.4785   6.4967   6.5844   7.1743   7.5071

          k = 0.2500 0.0025-0.5000 (  5150 PWs)   bands (ev):

   -64.8294 -64.8289 -64.8259 -64.8253 -31.6184 -31.6182 -31.6102 -31.6101
   -31.6067 -31.6063 -31.5854 -31.5851 -31.5837 -31.5837 -31.5750 -31.5749
    -8.5091  -8.5090  -7.9457  -7.9457   4.4180   4.4182   4.7523   4.7526
     5.0966   5.0968   6.5485   6.5487   6.5760   6.5762   7.0967   7.0969

          k = 0.2500 0.2525 0.0000 (  5159 PWs)   bands (ev):

   -64.8320 -64.8265 -64.8260 -64.8249 -31.6196 -31.6188 -31.6187 -31.6109
   -31.5953 -31.5945 -31.5943 -31.5885 -31.5883 -31.5855 -31.5758 -31.5666
    -8.9603  -8.0693  -8.0691  -7.8834   4.1647   4.1648   4.3346   5.1025
     5.8655   6.0480   6.0483   6.4962   6.4967   6.5332   7.1833   7.4709

          k = 0.2500 0.2525 0.2500 (  5156 PWs)   bands (ev):

   -64.8310 -64.8265 -64.8263 -64.8256 -31.6263 -31.6231 -31.6229 -31.6077
   -31.5969 -31.5964 -31.5951 -31.5836 -31.5835 -31.5817 -31.5723 -31.5693
    -8.7904  -8.0383  -8.0359  -8.0219   3.9930   3.9963   4.0231   5.1117
     5.8373   5.8528   5.8772   6.6567   6.7114   6.7116   7.3181   7.3608

          k = 0.2500 0.2525-0.5000 (  5152 PWs)   bands (ev):

   -64.8288 -64.8283 -64.8265 -64.8258 -31.6259 -31.6257 -31.6230 -31.6229
   -31.5970 -31.5967 -31.5797 -31.5797 -31.5793 -31.5793 -31.5759 -31.5756
    -8.3932  -8.3931  -8.0022  -8.0021   3.8114   3.8116   4.2222   4.2224
     5.8444   5.8444   6.7458   6.7460   6.8755   6.8757   6.9725   6.9726

          k = 0.2500-0.4975 0.0000 (  5153 PWs)   bands (ev):

   -64.8293 -64.8289 -64.8259 -64.8253 -31.6212 -31.6142 -31.6139 -31.6071
   -31.6068 -31.6067 -31.5863 -31.5852 -31.5849 -31.5812 -31.5777 -31.5730
    -8.5168  -8.5007  -7.9549  -7.9373   4.4076   4.4296   4.7473   4.7565
     5.0878   5.1059   6.5149   6.5639   6.5848   6.5892   7.0691   7.1216

          k = 0.2500-0.4975 0.2500 (  5136 PWs)   bands (ev):

   -64.8288 -64.8284 -64.8264 -64.8258 -31.6306 -31.6261 -31.6241 -31.6184
   -31.5935 -31.5929 -31.5820 -31.5803 -31.5791 -31.5787 -31.5768 -31.5749
    -8.4063  -8.3903  -8.0049  -7.9878   3.8045   3.8395   4.1856   4.2117
     5.8224   5.8385   6.7169   6.7676   6.8510   6.8856   7.0107   7.0265

          k = 0.2500-0.4975-0.5000 (  5146 PWs)   bands (ev):

   -64.8277 -64.8275 -64.8275 -64.8266 -31.6343 -31.6341 -31.6296 -31.6295
   -31.5849 -31.5846 -31.5823 -31.5822 -31.5756 -31.5754 -31.5747 -31.5746
    -8.1752  -8.1751  -8.1589  -8.1588   3.6224   3.6225   3.6595   3.6596
     6.4982   6.4984   6.5515   6.5516   7.0577   7.0579   7.0737   7.0738

          k = 0.2500-0.2475 0.0000 (  5143 PWs)   bands (ev):

   -64.8321 -64.8263 -64.8259 -64.8250 -31.6235 -31.6232 -31.6198 -31.6046
   -31.5942 -31.5941 -31.5896 -31.5890 -31.5845 -31.5842 -31.5754 -31.5710
    -8.9705  -8.0567  -8.0565  -7.8955   4.1600   4.1600   4.3238   5.0405
     5.8306   6.0644   6.0648   6.4748   6.4755   6.6377   7.1641   7.5428

          k = 0.2500-0.2475 0.2500 (  5142 PWs)   bands (ev):

   -64.8311 -64.8264 -64.8263 -64.8255 -31.6279 -31.6276 -31.6243 -31.6047
   -31.5918 -31.5912 -31.5907 -31.5861 -31.5837 -31.5835 -31.5742 -31.5704
    -8.8007  -8.0379  -8.0235  -8.0214   3.9789   4.0059   4.0090   5.0681
     5.8162   5.8405   5.8557   6.7012   6.7014   6.7571   7.3511   7.3951

          k = 0.2500-0.2475-0.5000 (  5128 PWs)   bands (ev):

   -64.8289 -64.8284 -64.8263 -64.8257 -31.6309 -31.6307 -31.6198 -31.6198
   -31.5895 -31.5892 -31.5818 -31.5818 -31.5802 -31.5799 -31.5763 -31.5762
    -8.4039  -8.4038  -7.9900  -7.9899   3.8317   3.8318   4.1756   4.1758
     5.8175   5.8176   6.7359   6.7362   6.8638   6.8640   7.0622   7.0623

          k =-0.5000-0.0050 0.0000 (  5128 PWs)   bands (ev):

   -64.8300 -64.8296 -64.8251 -64.8246 -31.6110 -31.6110 -31.6100 -31.6099
   -31.6022 -31.6022 -31.5919 -31.5919 -31.5805 -31.5804 -31.5798 -31.5798
    -8.6452  -8.6452  -7.8555  -7.8555   4.8479   4.8479   4.8484   4.8484
     5.1236   5.1238   5.9740   5.9741   6.9691   6.9691   6.9698   6.9699

          k =-0.5000-0.0050 0.2500 (  5152 PWs)   bands (ev):

   -64.8293 -64.8289 -64.8258 -64.8253 -31.6177 -31.6176 -31.6106 -31.6105
   -31.6069 -31.6069 -31.5853 -31.5852 -31.5838 -31.5837 -31.5750 -31.5749
    -8.5089  -8.5089  -7.9459  -7.9459   4.4178   4.4179   4.7524   4.7525
     5.0974   5.0975   6.5484   6.5485   6.5773   6.5774   7.0950   7.0950

          k =-0.5000-0.0050-0.5000 (  5180 PWs)   bands (ev):

   -64.8278 -64.8276 -64.8275 -64.8266 -31.6195 -31.6194 -31.6190 -31.6190
   -31.5979 -31.5975 -31.5959 -31.5956 -31.5763 -31.5762 -31.5753 -31.5753
    -8.2152  -8.2151  -8.1938  -8.1938   4.2738   4.2740   4.3133   4.3135
     5.7436   5.7436   5.7948   5.7948   7.0532   7.0534   7.0751   7.0753

          k =-0.5000 0.2450 0.0000 (  5153 PWs)   bands (ev):

   -64.8293 -64.8289 -64.8259 -64.8253 -31.6213 -31.6143 -31.6138 -31.6071
   -31.6068 -31.6068 -31.5863 -31.5851 -31.5849 -31.5813 -31.5777 -31.5730
    -8.5168  -8.5008  -7.9548  -7.9372   4.4077   4.4297   4.7472   4.7564
     5.0879   5.1060   6.5141   6.5639   6.5840   6.5891   7.0695   7.1220

          k =-0.5000 0.2450 0.2500 (  5136 PWs)   bands (ev):

   -64.8288 -64.8284 -64.8264 -64.8258 -31.6306 -31.6262 -31.6241 -31.6183
   -31.5935 -31.5930 -31.5820 -31.5803 -31.5791 -31.5787 -31.5767 -31.5750
    -8.4063  -8.3904  -8.0047  -7.9877   3.8042   3.8391   4.1858   4.2119
     5.8226   5.8386   6.7162   6.7667   6.8515   6.8860   7.0107   7.0266

          k =-0.5000 0.2450-0.5000 (  5146 PWs)   bands (ev):

   -64.8278 -64.8276 -64.8275 -64.8265 -31.6343 -31.6341 -31.6296 -31.6295
   -31.5851 -31.5847 -31.5822 -31.5820 -31.5756 -31.5755 -31.5745 -31.5745
    -8.1782  -8.1781  -8.1558  -8.1558   3.6174   3.6175   3.6644   3.6645
     6.4927   6.4928   6.5578   6.5579   7.0542   7.0544   7.0764   7.0766

          k =-0.5000-0.5050 0.0000 (  5188 PWs)   bands (ev):

   -64.8278 -64.8276 -64.8275 -64.8266 -31.6234 -31.6231 -31.6158 -31.6154
   -31.5971 -31.5971 -31.5969 -31.5967 -31.5779 -31.5776 -31.5741 -31.5738
    -8.2165  -8.2164  -8.1926  -8.1925   4.2867   4.2868   4.3005   4.3005
     5.7533   5.7536   5.7828   5.7831   7.0247   7.0248   7.1057   7.1057

          k =-0.5000-0.5050 0.2500 (  5144 PWs)   bands (ev):

   -64.8278 -64.8276 -64.8275 -64.8265 -31.6344 -31.6342 -31.6295 -31.6293
   -31.5841 -31.5841 -31.5819 -31.5819 -31.5780 -31.5777 -31.5733 -31.5730
    -8.1788  -8.1788  -8.1552  -8.1552   3.6257   3.6258   3.6559   3.6560
     6.5205   6.5208   6.5291   6.5293   7.0258   7.0259   7.1063   7.1064

          k =-0.5000-0.5050-0.5000 (  5136 PWs)   bands (ev):

   -64.8278 -64.8275 -64.8274 -64.8265 -31.6410 -31.6408 -31.6387 -31.6386
   -31.5773 -31.5769 -31.5759 -31.5759 -31.5743 -31.5742 -31.5733 -31.5729
    -8.1406  -8.1405  -8.1172  -8.1172   3.1994   3.1995   3.2367   3.2368
     7.0266   7.0267   7.0643   7.0646   7.0669   7.0672   7.1072   7.1072

          k = 0.0000-0.2500 0.2500 (  5154 PWs)   bands (ev):

   -64.8320 -64.8264 -64.8261 -64.8250 -31.6215 -31.6210 -31.6202 -31.6072
   -31.5947 -31.5941 -31.5929 -31.5874 -31.5865 -31.5863 -31.5755 -31.5685
    -8.9654  -8.0633  -8.0628  -7.8891   4.1617   4.1625   4.3296   5.0717
     5.8475   6.0525   6.0561   6.4859   6.4905   6.5847   7.1736   7.5075

          k =-0.2500-0.0025 0.2500 (  5154 PWs)   bands (ev):

   -64.8320 -64.8264 -64.8260 -64.8250 -31.6215 -31.6209 -31.6203 -31.6072
   -31.5950 -31.5936 -31.5930 -31.5874 -31.5866 -31.5861 -31.5755 -31.5685
    -8.9655  -8.0709  -8.0551  -7.8891   4.1486   4.1756   4.3295   5.0717
     5.8475   6.0351   6.0744   6.4785   6.4967   6.5844   7.1743   7.5071

          k =-0.2500-0.2525 0.2500 (  5156 PWs)   bands (ev):

   -64.8310 -64.8265 -64.8263 -64.8256 -31.6263 -31.6231 -31.6229 -31.6077
   -31.5969 -31.5964 -31.5951 -31.5836 -31.5835 -31.5817 -31.5723 -31.5693
    -8.7904  -8.0383  -8.0359  -8.0219   3.9930   3.9963   4.0231   5.1117
     5.8373   5.8528   5.8772   6.6567   6.7114   6.7116   7.3181   7.3608

          k =-0.2500 0.4975 0.2500 (  5136 PWs)   bands (ev):

   -64.8288 -64.8284 -64.8264 -64.8258 -31.6306 -31.6261 -31.6241 -31.6184
   -31.5935 -31.5929 -31.5820 -31.5803 -31.5791 -31.5787 -31.5768 -31.5749
    -8.4063  -8.3903  -8.0049  -7.9878   3.8045   3.8395   4.1856   4.2117
     5.8224   5.8385   6.7169   6.7676   6.8510   6.8856   7.0107   7.0265

          k =-0.2500 0.2475 0.2500 (  5142 PWs)   bands (ev):

   -64.8311 -64.8264 -64.8263 -64.8255 -31.6279 -31.6276 -31.6243 -31.6047
   -31.5918 -31.5912 -31.5907 -31.5861 -31.5837 -31.5835 -31.5742 -31.5704
    -8.8007  -8.0379  -8.0235  -8.0214   3.9789   4.0059   4.0090   5.0681
     5.8162   5.8405   5.8557   6.7012   6.7014   6.7571   7.3511   7.3951

          k = 0.5000-0.2450 0.2500 (  5136 PWs)   bands (ev):

   -64.8288 -64.8284 -64.8264 -64.8258 -31.6306 -31.6262 -31.6241 -31.6183
   -31.5935 -31.5930 -31.5820 -31.5803 -31.5791 -31.5787 -31.5767 -31.5750
    -8.4063  -8.3904  -8.0047  -7.9877   3.8042   3.8391   4.1858   4.2119
     5.8226   5.8386   6.7162   6.7667   6.8515   6.8860   7.0107   7.0266

     highest occupied level (ev):     7.7097

!    total energy              =    -608.39235393 Ry
     Harris-Foulkes estimate   =    -608.39235393 Ry
     estimated scf accuracy    <          1.2E-09 Ry

     The total energy is the sum of the following terms:

     one-electron contribution =    -303.54595560 Ry
     hartree contribution      =     168.06274776 Ry
     xc contribution           =     -97.84626236 Ry
     ewald contribution        =    -375.06288373 Ry

     convergence has been achieved in   9 iterations

     Forces acting on atoms (cartesian axes, Ry/au):

     atom    1 type  1   force =     0.00236261    0.00012267   -0.00001313
     atom    2 type  1   force =    -0.00250752   -0.00012779    0.00001288
     atom    3 type  1   force =     0.00236303    0.00012304    0.00001338
     atom    4 type  1   force =    -0.00214492   -0.00011490   -0.00001333
     atom    5 type  2   force =     0.00294398    0.00006104   -0.00001530
     atom    6 type  2   force =    -0.00307630   -0.00006384   -0.00001497
     atom    7 type  2   force =     0.00294306    0.00006087    0.00001505
     atom    8 type  2   force =    -0.00288395   -0.00006109    0.00001542

     Total force =     0.007566     Total SCF correction =     0.000006


     Computing stress (Cartesian axis) and pressure

          total   stress  (Ry/bohr**3)                   (kbar)     P=  -68.18
  -0.00046439   0.00009643   0.00000000        -68.31     14.19      0.00
   0.00009643  -0.00046135   0.00000000         14.19    -67.87      0.00
   0.00000000   0.00000000  -0.00046479          0.00      0.00    -68.37


     BFGS Geometry Optimization

     number of scf cycles    =   1
     number of bfgs steps    =   0

     energy   new            =    -608.3923539314 Ry

     new trust radius        =       0.0030769965 bohr
     new conv_thr            =       0.0000000100 Ry


ATOMIC_POSITIONS (alat)
Mg       0.000293683   0.000015248  -0.000001633
Mg      -0.000311696   0.499984115   0.500001601
Mg       0.500293736   0.000015295   0.500001663
Mg       0.499733377   0.499985717  -0.000001656
O        0.500365950   0.000007588  -0.000001901
O       -0.000382398   0.499992064  -0.000001861
O        0.000365837   0.000007566   0.500001871
O        0.499641512   0.499992407   0.500001916



     Writing output data file diamond..70.4.save
     NEW-OLD atomic charge density approx. for the potential

     Check: negative/imaginary core charge=   -0.000007    0.000000

     total cpu time spent up to now is       12.1 secs

     per-process dynamical memory:    52.8 Mb

     Self-consistent Calculation

     iteration #  1     ecut=    70.00 Ry     beta=0.70
     Davidson diagonalization with overlap
     ethr =  1.00E-06,  avg # of iterations =  3.0

     Threshold (ethr) on eigenvalues was too large:
     Diagonalizing with lowered threshold

     Davidson diagonalization with overlap
     ethr =  5.70E-09,  avg # of iterations =  2.1

     total cpu time spent up to now is       14.8 secs

     total energy              =    -608.39240653 Ry
     Harris-Foulkes estimate   =    -608.39240864 Ry
     estimated scf accuracy    <       0.00000373 Ry

     iteration #  2     ecut=    70.00 Ry     beta=0.70
     Davidson diagonalization with overlap
     ethr =  5.82E-09,  avg # of iterations =  2.0

     total cpu time spent up to now is       16.0 secs

     total energy              =    -608.39240716 Ry
     Harris-Foulkes estimate   =    -608.39240719 Ry
     estimated scf accuracy    <       0.00000009 Ry

     iteration #  3     ecut=    70.00 Ry     beta=0.70
     Davidson diagonalization with overlap
     ethr =  1.45E-10,  avg # of iterations =  2.0

     total cpu time spent up to now is       17.2 secs

     End of self-consistent calculation

          k = 0.0000 0.0000 0.0000 (  5141 PWs)   bands (ev):

   -64.8348 -64.8253 -64.8253 -64.8245 -31.6311 -31.6308 -31.6307 -31.5952
   -31.5935 -31.5934 -31.5928 -31.5926 -31.5913 -31.5672 -31.5654 -31.5636
    -9.3641  -7.9133  -7.9126  -7.9124   3.7586   3.7598   3.7599   6.3229
     6.3805   6.3806   6.3809   6.3814   6.4395   7.6370   7.6724   7.7097

          k = 0.0000 0.0000 0.2500 (  5149 PWs)   bands (ev):

   -64.8334 -64.8266 -64.8253 -64.8247 -31.6256 -31.6254 -31.6206 -31.5977
   -31.5976 -31.5940 -31.5938 -31.5912 -31.5866 -31.5783 -31.5737 -31.5689
    -9.1556  -8.1281  -7.8841  -7.8840   4.0472   4.0494   4.0981   5.8585
     5.8586   6.1713   6.1718   6.4884   6.6002   6.6593   7.4109   7.4925

          k = 0.0000 0.0000-0.5000 (  5130 PWs)   bands (ev):

   -64.8302 -64.8297 -64.8253 -64.8247 -31.6150 -31.6147 -31.6070 -31.6066
   -31.6020 -31.6019 -31.5913 -31.5912 -31.5832 -31.5829 -31.5782 -31.5779
    -8.6455  -8.6453  -7.8554  -7.8552   4.8408   4.8408   4.8543   4.8543
     5.1238   5.1241   5.9742   5.9746   6.9205   6.9206   7.0188   7.0189

          k = 0.0000 0.2500 0.0000 (  5165 PWs)   bands (ev):

   -64.8334 -64.8266 -64.8253 -64.8247 -31.6251 -31.6249 -31.6218 -31.5999
   -31.5983 -31.5935 -31.5929 -31.5893 -31.5888 -31.5800 -31.5718 -31.5707
    -9.1556  -8.1275  -7.8848  -7.8840   4.0489   4.0495   4.0960   5.8494
     5.8589   6.1712   6.1814   6.5434   6.5438   6.6590   7.4506   7.4522

          k = 0.0000 0.2500 0.2500 (  5154 PWs)   bands (ev):

   -64.8322 -64.8265 -64.8262 -64.8251 -31.6216 -31.6211 -31.6203 -31.6073
   -31.5948 -31.5941 -31.5930 -31.5875 -31.5866 -31.5864 -31.5756 -31.5686
    -8.9654  -8.0633  -8.0628  -7.8892   4.1617   4.1625   4.3296   5.0718
     5.8475   6.0526   6.0561   6.4859   6.4903   6.5846   7.1736   7.5074

          k = 0.0000 0.2500-0.5000 (  5150 PWs)   bands (ev):

   -64.8295 -64.8290 -64.8260 -64.8254 -31.6185 -31.6183 -31.6103 -31.6103
   -31.6066 -31.6064 -31.5855 -31.5853 -31.5839 -31.5838 -31.5752 -31.5750
    -8.5091  -8.5089  -7.9459  -7.9457   4.4192   4.4193   4.7513   4.7515
     5.0969   5.0970   6.5483   6.5486   6.5756   6.5757   7.0972   7.0972

          k = 0.0000-0.5000 0.0000 (  5128 PWs)   bands (ev):

   -64.8302 -64.8297 -64.8253 -64.8248 -31.6115 -31.6106 -31.6101 -31.6099
   -31.6027 -31.6020 -31.5921 -31.5917 -31.5807 -31.5804 -31.5800 -31.5797
    -8.6453  -8.6449  -7.8560  -7.8553   4.8457   4.8483   4.8484   4.8488
     5.1235   5.1243   5.9737   5.9772   6.9687   6.9692   6.9695   6.9697

          k = 0.0000-0.5000 0.2500 (  5152 PWs)   bands (ev):

   -64.8294 -64.8290 -64.8260 -64.8254 -31.6180 -31.6175 -31.6109 -31.6105
   -31.6071 -31.6068 -31.5855 -31.5852 -31.5840 -31.5837 -31.5752 -31.5749
    -8.5090  -8.5086  -7.9464  -7.9458   4.4183   4.4189   4.7517   4.7524
     5.0971   5.0977   6.5484   6.5502   6.5764   6.5765   7.0947   7.0956

          k = 0.0000-0.5000-0.5000 (  5180 PWs)   bands (ev):

   -64.8278 -64.8277 -64.8277 -64.8267 -31.6196 -31.6194 -31.6192 -31.6191
   -31.5970 -31.5968 -31.5968 -31.5965 -31.5761 -31.5760 -31.5758 -31.5757
    -8.2049  -8.2047  -8.2043  -8.2042   4.2937   4.2938   4.2940   4.2942
     5.7684   5.7685   5.7690   5.7691   7.0639   7.0641   7.0649   7.0651

          k = 0.2500 0.0025 0.0000 (  5165 PWs)   bands (ev):

   -64.8334 -64.8266 -64.8253 -64.8247 -31.6251 -31.6249 -31.6217 -31.5999
   -31.5983 -31.5934 -31.5931 -31.5893 -31.5888 -31.5800 -31.5718 -31.5707
    -9.1556  -8.1276  -7.8846  -7.8841   4.0489   4.0495   4.0960   5.8516
     5.8590   6.1711   6.1783   6.5436   6.5440   6.6584   7.4506   7.4527

          k = 0.2500 0.0025 0.2500 (  5154 PWs)   bands (ev):

   -64.8322 -64.8265 -64.8261 -64.8251 -31.6216 -31.6210 -31.6204 -31.6073
   -31.5951 -31.5938 -31.5931 -31.5875 -31.5867 -31.5863 -31.5756 -31.5686
    -8.9654  -8.0697  -8.0563  -7.8892   4.1507   4.1735   4.3295   5.0718
     5.8474   6.0380   6.0713   6.4798   6.4955   6.5844   7.1742   7.5071

          k = 0.2500 0.0025-0.5000 (  5150 PWs)   bands (ev):

   -64.8295 -64.8290 -64.8260 -64.8254 -31.6185 -31.6183 -31.6103 -31.6102
   -31.6067 -31.6064 -31.5855 -31.5852 -31.5838 -31.5838 -31.5751 -31.5750
    -8.5091  -8.5089  -7.9458  -7.9457   4.4183   4.4185   4.7520   4.7523
     5.0967   5.0969   6.5485   6.5488   6.5758   6.5760   7.0968   7.0969

          k = 0.2500 0.2525 0.0000 (  5159 PWs)   bands (ev):

   -64.8321 -64.8266 -64.8262 -64.8250 -31.6197 -31.6189 -31.6188 -31.6110
   -31.5954 -31.5946 -31.5945 -31.5886 -31.5884 -31.5856 -31.5759 -31.5667
    -8.9602  -8.0693  -8.0691  -7.8834   4.1647   4.1648   4.3346   5.1026
     5.8654   6.0479   6.0484   6.4962   6.4966   6.5330   7.1834   7.4709

          k = 0.2500 0.2525 0.2500 (  5156 PWs)   bands (ev):

   -64.8311 -64.8266 -64.8265 -64.8257 -31.6264 -31.6231 -31.6230 -31.6078
   -31.5969 -31.5965 -31.5953 -31.5837 -31.5836 -31.5818 -31.5724 -31.5694
    -8.7904  -8.0377  -8.0359  -8.0225   3.9939   3.9963   4.0222   5.1117
     5.8402   5.8528   5.8744   6.6566   6.7113   6.7116   7.3180   7.3608

          k = 0.2500 0.2525-0.5000 (  5152 PWs)   bands (ev):

   -64.8289 -64.8284 -64.8266 -64.8260 -31.6260 -31.6258 -31.6231 -31.6230
   -31.5971 -31.5968 -31.5798 -31.5798 -31.5794 -31.5794 -31.5760 -31.5757
    -8.3932  -8.3931  -8.0023  -8.0021   3.8116   3.8117   4.2221   4.2223
     5.8445   5.8445   6.7458   6.7461   6.8754   6.8756   6.9724   6.9725

          k = 0.2500-0.4975 0.0000 (  5153 PWs)   bands (ev):

   -64.8295 -64.8290 -64.8260 -64.8254 -31.6213 -31.6143 -31.6140 -31.6072
   -31.6069 -31.6068 -31.5864 -31.5853 -31.5850 -31.5813 -31.5778 -31.5731
    -8.5167  -8.5007  -7.9549  -7.9373   4.4077   4.4297   4.7473   4.7565
     5.0878   5.1059   6.5147   6.5639   6.5846   6.5892   7.0691   7.1216

          k = 0.2500-0.4975 0.2500 (  5136 PWs)   bands (ev):

   -64.8290 -64.8285 -64.8265 -64.8259 -31.6307 -31.6262 -31.6242 -31.6185
   -31.5936 -31.5930 -31.5821 -31.5804 -31.5792 -31.5788 -31.5769 -31.5751
    -8.4062  -8.3903  -8.0049  -7.9878   3.8046   3.8395   4.1855   4.2117
     5.8225   5.8386   6.7168   6.7674   6.8510   6.8856   7.0106   7.0265

          k = 0.2500-0.4975-0.5000 (  5146 PWs)   bands (ev):

   -64.8279 -64.8277 -64.8276 -64.8267 -31.6344 -31.6342 -31.6297 -31.6296
   -31.5850 -31.5847 -31.5824 -31.5823 -31.5757 -31.5755 -31.5748 -31.5747
    -8.1752  -8.1750  -8.1590  -8.1588   3.6224   3.6225   3.6595   3.6596
     6.4983   6.4984   6.5516   6.5517   7.0576   7.0578   7.0736   7.0737

          k = 0.2500-0.2475 0.0000 (  5143 PWs)   bands (ev):

   -64.8323 -64.8265 -64.8261 -64.8252 -31.6236 -31.6233 -31.6199 -31.6047
   -31.5943 -31.5942 -31.5897 -31.5891 -31.5846 -31.5844 -31.5755 -31.5711
    -8.9705  -8.0567  -8.0565  -7.8955   4.1599   4.1601   4.3238   5.0407
     5.8305   6.0644   6.0648   6.4748   6.4753   6.6376   7.1642   7.5427

          k = 0.2500-0.2475 0.2500 (  5142 PWs)   bands (ev):

   -64.8312 -64.8266 -64.8264 -64.8257 -31.6279 -31.6277 -31.6244 -31.6048
   -31.5919 -31.5913 -31.5909 -31.5862 -31.5838 -31.5836 -31.5743 -31.5705
    -8.8007  -8.0374  -8.0235  -8.0219   3.9798   4.0059   4.0082   5.0681
     5.8190   5.8405   5.8529   6.7011   6.7014   6.7570   7.3511   7.3950

          k = 0.2500-0.2475-0.5000 (  5128 PWs)   bands (ev):

   -64.8291 -64.8286 -64.8265 -64.8258 -31.6310 -31.6308 -31.6200 -31.6199
   -31.5896 -31.5892 -31.5819 -31.5819 -31.5803 -31.5800 -31.5764 -31.5763
    -8.4039  -8.4037  -7.9901  -7.9899   3.8319   3.8319   4.1755   4.1757
     5.8176   5.8177   6.7360   6.7362   6.8637   6.8639   7.0621   7.0622

          k =-0.5000-0.0050 0.0000 (  5128 PWs)   bands (ev):

   -64.8302 -64.8297 -64.8253 -64.8248 -31.6111 -31.6110 -31.6101 -31.6099
   -31.6023 -31.6023 -31.5920 -31.5920 -31.5806 -31.5805 -31.5799 -31.5798
    -8.6453  -8.6450  -7.8557  -7.8554   4.8478   4.8481   4.8482   4.8485
     5.1235   5.1239   5.9740   5.9743   6.9690   6.9692   6.9696   6.9698

          k =-0.5000-0.0050 0.2500 (  5152 PWs)   bands (ev):

   -64.8294 -64.8290 -64.8260 -64.8254 -31.6178 -31.6177 -31.6107 -31.6106
   -31.6070 -31.6070 -31.5854 -31.5853 -31.5839 -31.5838 -31.5751 -31.5750
    -8.5090  -8.5087  -7.9461  -7.9458   4.4180   4.4181   4.7522   4.7524
     5.0973   5.0976   6.5484   6.5487   6.5770   6.5773   7.0949   7.0950

          k =-0.5000-0.0050-0.5000 (  5180 PWs)   bands (ev):

   -64.8279 -64.8277 -64.8276 -64.8267 -31.6196 -31.6195 -31.6191 -31.6191
   -31.5978 -31.5975 -31.5961 -31.5958 -31.5764 -31.5763 -31.5755 -31.5755
    -8.2137  -8.2134  -8.1954  -8.1954   4.2769   4.2771   4.3103   4.3105
     5.7472   5.7476   5.7908   5.7909   7.0549   7.0550   7.0734   7.0737

          k =-0.5000 0.2450 0.0000 (  5153 PWs)   bands (ev):

   -64.8295 -64.8290 -64.8260 -64.8254 -31.6213 -31.6143 -31.6140 -31.6072
   -31.6069 -31.6069 -31.5864 -31.5853 -31.5850 -31.5814 -31.5778 -31.5731
    -8.5168  -8.5008  -7.9548  -7.9372   4.4078   4.4297   4.7472   4.7564
     5.0879   5.1060   6.5141   6.5639   6.5840   6.5891   7.0694   7.1219

          k =-0.5000 0.2450 0.2500 (  5136 PWs)   bands (ev):

   -64.8290 -64.8285 -64.8265 -64.8259 -31.6307 -31.6263 -31.6242 -31.6184
   -31.5936 -31.5931 -31.5821 -31.5804 -31.5792 -31.5788 -31.5768 -31.5751
    -8.4063  -8.3904  -8.0048  -7.9877   3.8043   3.8392   4.1857   4.2118
     5.8226   5.8387   6.7162   6.7667   6.8514   6.8859   7.0106   7.0265

          k =-0.5000 0.2450-0.5000 (  5146 PWs)   bands (ev):

   -64.8279 -64.8277 -64.8276 -64.8267 -31.6344 -31.6342 -31.6297 -31.6296
   -31.5851 -31.5848 -31.5824 -31.5821 -31.5757 -31.5756 -31.5747 -31.5746
    -8.1775  -8.1773  -8.1566  -8.1565   3.6187   3.6187   3.6631   3.6632
     6.4942   6.4943   6.5562   6.5563   7.0550   7.0552   7.0756   7.0759

          k =-0.5000-0.5050 0.0000 (  5188 PWs)   bands (ev):

   -64.8279 -64.8277 -64.8276 -64.8267 -31.6235 -31.6232 -31.6158 -31.6155
   -31.5972 -31.5972 -31.5971 -31.5968 -31.5780 -31.5777 -31.5742 -31.5739
    -8.2165  -8.2164  -8.1926  -8.1925   4.2867   4.2868   4.3004   4.3006
     5.7532   5.7537   5.7827   5.7832   7.0246   7.0247   7.1056   7.1057

          k =-0.5000-0.5050 0.2500 (  5144 PWs)   bands (ev):

   -64.8279 -64.8277 -64.8276 -64.8267 -31.6345 -31.6343 -31.6296 -31.6294
   -31.5842 -31.5842 -31.5820 -31.5820 -31.5781 -31.5778 -31.5734 -31.5731
    -8.1789  -8.1787  -8.1553  -8.1551   3.6257   3.6258   3.6559   3.6560
     6.5205   6.5209   6.5291   6.5294   7.0257   7.0258   7.1062   7.1063

          k =-0.5000-0.5050-0.5000 (  5136 PWs)   bands (ev):

   -64.8279 -64.8277 -64.8276 -64.8267 -31.6411 -31.6409 -31.6388 -31.6387
   -31.5774 -31.5770 -31.5760 -31.5760 -31.5744 -31.5743 -31.5734 -31.5730
    -8.1406  -8.1405  -8.1173  -8.1171   3.1994   3.1995   3.2367   3.2367
     7.0265   7.0266   7.0644   7.0646   7.0670   7.0672   7.1071   7.1071

          k = 0.0000-0.2500 0.2500 (  5154 PWs)   bands (ev):

   -64.8322 -64.8265 -64.8262 -64.8251 -31.6216 -31.6211 -31.6203 -31.6073
   -31.5948 -31.5941 -31.5930 -31.5875 -31.5866 -31.5864 -31.5756 -31.5686
    -8.9654  -8.0633  -8.0628  -7.8892   4.1617   4.1625   4.3296   5.0718
     5.8475   6.0526   6.0561   6.4859   6.4903   6.5846   7.1736   7.5074

          k =-0.2500-0.0025 0.2500 (  5154 PWs)   bands (ev):

   -64.8322 -64.8265 -64.8261 -64.8251 -31.6216 -31.6210 -31.6204 -31.6073
   -31.5951 -31.5938 -31.5931 -31.5875 -31.5867 -31.5863 -31.5756 -31.5686
    -8.9654  -8.0697  -8.0563  -7.8892   4.1507   4.1735   4.3295   5.0718
     5.8474   6.0380   6.0714   6.4798   6.4955   6.5844   7.1742   7.5071

          k =-0.2500-0.2525 0.2500 (  5156 PWs)   bands (ev):

   -64.8311 -64.8266 -64.8265 -64.8257 -31.6264 -31.6231 -31.6230 -31.6078
   -31.5969 -31.5965 -31.5953 -31.5837 -31.5836 -31.5818 -31.5724 -31.5694
    -8.7904  -8.0377  -8.0359  -8.0225   3.9939   3.9963   4.0222   5.1117
     5.8402   5.8528   5.8744   6.6566   6.7113   6.7116   7.3180   7.3608

          k =-0.2500 0.4975 0.2500 (  5136 PWs)   bands (ev):

   -64.8290 -64.8285 -64.8265 -64.8259 -31.6307 -31.6262 -31.6242 -31.6185
   -31.5936 -31.5930 -31.5821 -31.5804 -31.5792 -31.5788 -31.5769 -31.5751
    -8.4062  -8.3903  -8.0049  -7.9878   3.8046   3.8395   4.1855   4.2117
     5.8225   5.8386   6.7168   6.7674   6.8510   6.8856   7.0106   7.0265

          k =-0.2500 0.2475 0.2500 (  5142 PWs)   bands (ev):

   -64.8312 -64.8266 -64.8264 -64.8257 -31.6279 -31.6277 -31.6244 -31.6048
   -31.5919 -31.5913 -31.5909 -31.5862 -31.5838 -31.5836 -31.5743 -31.5705
    -8.8007  -8.0374  -8.0235  -8.0219   3.9798   4.0059   4.0082   5.0681
     5.8190   5.8405   5.8529   6.7011   6.7014   6.7570   7.3511   7.3950

          k = 0.5000-0.2450 0.2500 (  5136 PWs)   bands (ev):

   -64.8290 -64.8285 -64.8265 -64.8259 -31.6307 -31.6263 -31.6242 -31.6184
   -31.5936 -31.5931 -31.5821 -31.5804 -31.5792 -31.5788 -31.5768 -31.5751
    -8.4063  -8.3904  -8.0048  -7.9877   3.8043   3.8392   4.1857   4.2118
     5.8226   5.8387   6.7162   6.7667   6.8514   6.8859   7.0106   7.0265

     highest occupied level (ev):     7.7097

!    total energy              =    -608.39240718 Ry
     Harris-Foulkes estimate   =    -608.39240718 Ry
     estimated scf accuracy    <          8.0E-09 Ry

     The total energy is the sum of the following terms:

     one-electron contribution =    -303.54696179 Ry
     hartree contribution      =     168.06329421 Ry
     xc contribution           =     -97.84628544 Ry
     ewald contribution        =    -375.06245415 Ry

     convergence has been achieved in   3 iterations

     Forces acting on atoms (cartesian axes, Ry/au):

     atom    1 type  1   force =     0.00210774    0.00006655   -0.00000792
     atom    2 type  1   force =    -0.00223646   -0.00007033    0.00000770
     atom    3 type  1   force =     0.00215653    0.00006708    0.00000751
     atom    4 type  1   force =    -0.00198316   -0.00006274   -0.00000814
     atom    5 type  2   force =     0.00251359    0.00004043   -0.00001111
     atom    6 type  2   force =    -0.00259514   -0.00004164   -0.00001146
     atom    7 type  2   force =     0.00250126    0.00004215    0.00001159
     atom    8 type  2   force =    -0.00246436   -0.00004149    0.00001184

     Total force =     0.006591     Total SCF correction =     0.000145


     Computing stress (Cartesian axis) and pressure

          total   stress  (Ry/bohr**3)                   (kbar)     P=  -68.15
  -0.00046408   0.00009643   0.00000000        -68.27     14.18      0.00
   0.00009643  -0.00046134   0.00000000         14.18    -67.87      0.00
   0.00000000   0.00000000  -0.00046441          0.00      0.00    -68.32


     number of scf cycles    =   2
     number of bfgs steps    =   1

     energy   old            =    -608.3923539314 Ry
     energy   new            =    -608.3924071765 Ry

     CASE: energy  _new < energy  _old


     WARNING: bfgs curvature condition failed, Theta= 0.919
     new trust radius        =       0.0033846962 bohr
     new conv_thr            =       0.0000000005 Ry


ATOMIC_POSITIONS (alat)
Mg       0.000633230   0.000026719  -0.000002975
Mg      -0.000671989   0.499972021   0.500002908
Mg       0.500640296   0.000026847   0.500002950
Mg       0.499415116   0.499974915  -0.000003034
O        0.500772847   0.000014346  -0.000003735
O       -0.000803070   0.499985088  -0.000003741
O        0.000770949   0.000014568   0.500003770
O        0.499242621   0.499985495   0.500003857



     Writing output data file diamond..70.4.save
     NEW-OLD atomic charge density approx. for the potential

     Check: negative/imaginary core charge=   -0.000007    0.000000

     total cpu time spent up to now is       17.8 secs

     per-process dynamical memory:    52.8 Mb

     Self-consistent Calculation

     iteration #  1     ecut=    70.00 Ry     beta=0.70
     Davidson diagonalization with overlap
     ethr =  1.00E-06,  avg # of iterations =  3.0

     Threshold (ethr) on eigenvalues was too large:
     Diagonalizing with lowered threshold

     Davidson diagonalization with overlap
     ethr =  6.83E-09,  avg # of iterations =  2.3

     total cpu time spent up to now is       20.6 secs

     total energy              =    -608.39245712 Ry
     Harris-Foulkes estimate   =    -608.39245964 Ry
     estimated scf accuracy    <       0.00000447 Ry

     iteration #  2     ecut=    70.00 Ry     beta=0.70
     Davidson diagonalization with overlap
     ethr =  6.98E-09,  avg # of iterations =  2.0

     total cpu time spent up to now is       21.8 secs

     total energy              =    -608.39245788 Ry
     Harris-Foulkes estimate   =    -608.39245792 Ry
     estimated scf accuracy    <       0.00000013 Ry

     iteration #  3     ecut=    70.00 Ry     beta=0.70
     Davidson diagonalization with overlap
     ethr =  2.00E-10,  avg # of iterations =  2.7

     total cpu time spent up to now is       23.1 secs

     total energy              =    -608.39245789 Ry
     Harris-Foulkes estimate   =    -608.39245791 Ry
     estimated scf accuracy    <       0.00000003 Ry

     iteration #  4     ecut=    70.00 Ry     beta=0.70
     Davidson diagonalization with overlap
     ethr =  4.90E-11,  avg # of iterations =  3.0

     total cpu time spent up to now is       24.4 secs

     total energy              =    -608.39245790 Ry
     Harris-Foulkes estimate   =    -608.39245791 Ry
     estimated scf accuracy    <       0.00000002 Ry

     iteration #  5     ecut=    70.00 Ry     beta=0.70
     Davidson diagonalization with overlap
     ethr =  3.36E-11,  avg # of iterations =  2.5

     total cpu time spent up to now is       25.6 secs

     End of self-consistent calculation

          k = 0.0000 0.0000 0.0000 (  5141 PWs)   bands (ev):

   -64.8347 -64.8253 -64.8252 -64.8245 -31.6310 -31.6307 -31.6306 -31.5951
   -31.5934 -31.5933 -31.5927 -31.5926 -31.5912 -31.5671 -31.5653 -31.5635
    -9.3641  -7.9133  -7.9127  -7.9126   3.7586   3.7597   3.7598   6.3228
     6.3805   6.3806   6.3808   6.3812   6.4394   7.6369   7.6724   7.7096

          k = 0.0000 0.0000 0.2500 (  5149 PWs)   bands (ev):

   -64.8333 -64.8265 -64.8252 -64.8246 -31.6255 -31.6254 -31.6205 -31.5976
   -31.5975 -31.5939 -31.5938 -31.5911 -31.5865 -31.5783 -31.5737 -31.5688
    -9.1557  -8.1282  -7.8842  -7.8842   4.0479   4.0493   4.0972   5.8585
     5.8586   6.1713   6.1717   6.4882   6.6001   6.6592   7.4108   7.4924

          k = 0.0000 0.0000-0.5000 (  5130 PWs)   bands (ev):

   -64.8301 -64.8296 -64.8252 -64.8246 -31.6149 -31.6146 -31.6069 -31.6066
   -31.6020 -31.6019 -31.5912 -31.5911 -31.5831 -31.5828 -31.5781 -31.5778
    -8.6455  -8.6454  -7.8554  -7.8554   4.8409   4.8409   4.8544   4.8544
     5.1235   5.1238   5.9742   5.9745   6.9204   6.9204   7.0186   7.0187

          k = 0.0000 0.2500 0.0000 (  5165 PWs)   bands (ev):

   -64.8333 -64.8265 -64.8252 -64.8246 -31.6250 -31.6248 -31.6217 -31.5998
   -31.5983 -31.5934 -31.5928 -31.5892 -31.5887 -31.5800 -31.5717 -31.5706
    -9.1556  -8.1276  -7.8849  -7.8842   4.0488   4.0494   4.0959   5.8501
     5.8588   6.1711   6.1804   6.5434   6.5436   6.6588   7.4506   7.4522

          k = 0.0000 0.2500 0.2500 (  5154 PWs)   bands (ev):

   -64.8321 -64.8264 -64.8261 -64.8250 -31.6215 -31.6210 -31.6203 -31.6072
   -31.5947 -31.5940 -31.5929 -31.5874 -31.5865 -31.5863 -31.5755 -31.5685
    -8.9655  -8.0634  -8.0629  -7.8893   4.1617   4.1624   4.3295   5.0718
     5.8474   6.0526   6.0561   6.4858   6.4901   6.5844   7.1736   7.5073

          k = 0.0000 0.2500-0.5000 (  5150 PWs)   bands (ev):

   -64.8294 -64.8289 -64.8260 -64.8253 -31.6184 -31.6182 -31.6102 -31.6102
   -31.6066 -31.6063 -31.5854 -31.5852 -31.5838 -31.5838 -31.5751 -31.5749
    -8.5091  -8.5090  -7.9460  -7.9459   4.4191   4.4192   4.7513   4.7515
     5.0968   5.0969   6.5484   6.5486   6.5754   6.5755   7.0970   7.0970

          k = 0.0000-0.5000 0.0000 (  5128 PWs)   bands (ev):

   -64.8301 -64.8296 -64.8252 -64.8247 -31.6114 -31.6106 -31.6101 -31.6098
   -31.6026 -31.6020 -31.5920 -31.5917 -31.5806 -31.5803 -31.5800 -31.5796
    -8.6452  -8.6451  -7.8561  -7.8555   4.8460   4.8482   4.8484   4.8488
     5.1234   5.1241   5.9736   5.9765   6.9686   6.9692   6.9693   6.9696

          k = 0.0000-0.5000 0.2500 (  5152 PWs)   bands (ev):

   -64.8294 -64.8289 -64.8259 -64.8254 -31.6179 -31.6175 -31.6108 -31.6104
   -31.6070 -31.6067 -31.5854 -31.5851 -31.5839 -31.5836 -31.5751 -31.5749
    -8.5089  -8.5088  -7.9464  -7.9459   4.4183   4.4188   4.7516   4.7522
     5.0970   5.0977   6.5484   6.5497   6.5764   6.5765   7.0946   7.0954

          k = 0.0000-0.5000-0.5000 (  5180 PWs)   bands (ev):

   -64.8277 -64.8277 -64.8276 -64.8266 -31.6195 -31.6193 -31.6192 -31.6191
   -31.5969 -31.5967 -31.5967 -31.5964 -31.5760 -31.5759 -31.5758 -31.5757
    -8.2048  -8.2047  -8.2045  -8.2044   4.2936   4.2937   4.2939   4.2940
     5.7684   5.7685   5.7690   5.7691   7.0639   7.0640   7.0647   7.0648

          k = 0.2500 0.0025 0.0000 (  5165 PWs)   bands (ev):

   -64.8333 -64.8265 -64.8252 -64.8247 -31.6250 -31.6248 -31.6217 -31.5998
   -31.5983 -31.5933 -31.5930 -31.5892 -31.5887 -31.5800 -31.5717 -31.5706
    -9.1556  -8.1277  -7.8846  -7.8843   4.0488   4.0494   4.0959   5.8515
     5.8589   6.1711   6.1784   6.5435   6.5438   6.6584   7.4506   7.4525

          k = 0.2500 0.0025 0.2500 (  5154 PWs)   bands (ev):

   -64.8321 -64.8265 -64.8261 -64.8250 -31.6215 -31.6210 -31.6203 -31.6072
   -31.5949 -31.5938 -31.5930 -31.5874 -31.5866 -31.5862 -31.5755 -31.5685
    -8.9655  -8.0685  -8.0577  -7.8893   4.1529   4.1712   4.3294   5.0718
     5.8473   6.0411   6.0680   6.4811   6.4942   6.5843   7.1739   7.5071

          k = 0.2500 0.0025-0.5000 (  5150 PWs)   bands (ev):

   -64.8294 -64.8289 -64.8259 -64.8253 -31.6184 -31.6182 -31.6102 -31.6102
   -31.6066 -31.6063 -31.5854 -31.5851 -31.5838 -31.5838 -31.5751 -31.5749
    -8.5091  -8.5090  -7.9459  -7.9459   4.4186   4.4187   4.7517   4.7520
     5.0967   5.0968   6.5485   6.5487   6.5756   6.5757   7.0967   7.0968

          k = 0.2500 0.2525 0.0000 (  5159 PWs)   bands (ev):

   -64.8320 -64.8265 -64.8261 -64.8250 -31.6197 -31.6188 -31.6187 -31.6110
   -31.5953 -31.5945 -31.5944 -31.5885 -31.5883 -31.5856 -31.5758 -31.5666
    -8.9603  -8.0693  -8.0692  -7.8836   4.1646   4.1648   4.3345   5.1027
     5.8653   6.0479   6.0483   6.4962   6.4964   6.5328   7.1833   7.4707

          k = 0.2500 0.2525 0.2500 (  5156 PWs)   bands (ev):

   -64.8310 -64.8265 -64.8264 -64.8257 -31.6264 -31.6231 -31.6229 -31.6077
   -31.5967 -31.5964 -31.5953 -31.5836 -31.5836 -31.5817 -31.5724 -31.5693
    -8.7905  -8.0373  -8.0360  -8.0231   3.9946   3.9963   4.0214   5.1116
     5.8432   5.8527   5.8713   6.6565   6.7113   6.7115   7.3178   7.3607

          k = 0.2500 0.2525-0.5000 (  5152 PWs)   bands (ev):

   -64.8288 -64.8284 -64.8265 -64.8259 -31.6259 -31.6257 -31.6231 -31.6229
   -31.5970 -31.5967 -31.5797 -31.5797 -31.5793 -31.5793 -31.5760 -31.5757
    -8.3932  -8.3932  -8.0024  -8.0023   3.8116   3.8117   4.2219   4.2221
     5.8445   5.8445   6.7457   6.7460   6.8752   6.8754   6.9723   6.9723

          k = 0.2500-0.4975 0.0000 (  5153 PWs)   bands (ev):

   -64.8294 -64.8289 -64.8260 -64.8253 -31.6212 -31.6142 -31.6139 -31.6072
   -31.6068 -31.6067 -31.5864 -31.5852 -31.5849 -31.5813 -31.5777 -31.5731
    -8.5168  -8.5008  -7.9550  -7.9374   4.4077   4.4297   4.7472   4.7564
     5.0878   5.1059   6.5144   6.5639   6.5843   6.5891   7.0690   7.1215

          k = 0.2500-0.4975 0.2500 (  5136 PWs)   bands (ev):

   -64.8289 -64.8284 -64.8264 -64.8258 -31.6306 -31.6262 -31.6241 -31.6184
   -31.5935 -31.5930 -31.5820 -31.5803 -31.5791 -31.5787 -31.5768 -31.5750
    -8.4063  -8.3904  -8.0050  -7.9879   3.8045   3.8394   4.1854   4.2116
     5.8225   5.8386   6.7165   6.7671   6.8510   6.8856   7.0105   7.0263

          k = 0.2500-0.4975-0.5000 (  5146 PWs)   bands (ev):

   -64.8278 -64.8276 -64.8275 -64.8266 -31.6343 -31.6341 -31.6296 -31.6295
   -31.5849 -31.5847 -31.5823 -31.5822 -31.5756 -31.5754 -31.5747 -31.5746
    -8.1752  -8.1752  -8.1590  -8.1589   3.6223   3.6224   3.6594   3.6595
     6.4982   6.4983   6.5515   6.5517   7.0575   7.0576   7.0734   7.0736

          k = 0.2500-0.2475 0.0000 (  5143 PWs)   bands (ev):

   -64.8322 -64.8264 -64.8260 -64.8251 -31.6235 -31.6232 -31.6198 -31.6046
   -31.5942 -31.5941 -31.5896 -31.5890 -31.5845 -31.5843 -31.5755 -31.5711
    -8.9705  -8.0568  -8.0566  -7.8957   4.1598   4.1600   4.3237   5.0407
     5.8305   6.0643   6.0647   6.4748   6.4751   6.6374   7.1641   7.5425

          k = 0.2500-0.2475 0.2500 (  5142 PWs)   bands (ev):

   -64.8312 -64.8265 -64.8264 -64.8256 -31.6278 -31.6276 -31.6243 -31.6047
   -31.5917 -31.5913 -31.5909 -31.5861 -31.5837 -31.5836 -31.5742 -31.5704
    -8.8008  -8.0370  -8.0236  -8.0226   3.9805   4.0059   4.0074   5.0680
     5.8219   5.8405   5.8498   6.7011   6.7013   6.7569   7.3510   7.3949

          k = 0.2500-0.2475-0.5000 (  5128 PWs)   bands (ev):

   -64.8290 -64.8285 -64.8264 -64.8257 -31.6309 -31.6307 -31.6199 -31.6198
   -31.5895 -31.5892 -31.5819 -31.5818 -31.5802 -31.5799 -31.5763 -31.5762
    -8.4039  -8.4038  -7.9901  -7.9901   3.8319   3.8320   4.1753   4.1755
     5.8176   5.8177   6.7359   6.7362   6.8636   6.8637   7.0620   7.0621

          k =-0.5000-0.0050 0.0000 (  5128 PWs)   bands (ev):

   -64.8301 -64.8297 -64.8252 -64.8247 -31.6110 -31.6109 -31.6100 -31.6099
   -31.6022 -31.6022 -31.5919 -31.5919 -31.5805 -31.5804 -31.5798 -31.5797
    -8.6454  -8.6450  -7.8557  -7.8557   4.8476   4.8481   4.8481   4.8486
     5.1235   5.1238   5.9741   5.9743   6.9689   6.9692   6.9694   6.9696

          k =-0.5000-0.0050 0.2500 (  5152 PWs)   bands (ev):

   -64.8294 -64.8290 -64.8259 -64.8254 -31.6177 -31.6176 -31.6106 -31.6106
   -31.6069 -31.6069 -31.5853 -31.5852 -31.5838 -31.5837 -31.5750 -31.5749
    -8.5090  -8.5088  -7.9461  -7.9461   4.4181   4.4183   4.7520   4.7522
     5.0972   5.0977   6.5484   6.5487   6.5767   6.5771   7.0948   7.0950

          k =-0.5000-0.0050-0.5000 (  5180 PWs)   bands (ev):

   -64.8278 -64.8276 -64.8275 -64.8266 -31.6195 -31.6194 -31.6191 -31.6190
   -31.5976 -31.5973 -31.5962 -31.5958 -31.5762 -31.5762 -31.5755 -31.5754
    -8.2120  -8.2117  -8.1973  -8.1972   4.2802   4.2804   4.3070   4.3072
     5.7513   5.7518   5.7862   5.7867   7.0566   7.0567   7.0715   7.0718

          k =-0.5000 0.2450 0.0000 (  5153 PWs)   bands (ev):

   -64.8294 -64.8289 -64.8259 -64.8253 -31.6213 -31.6142 -31.6139 -31.6071
   -31.6068 -31.6068 -31.5864 -31.5852 -31.5849 -31.5813 -31.5777 -31.5731
    -8.5169  -8.5008  -7.9549  -7.9373   4.4078   4.4297   4.7471   4.7564
     5.0878   5.1059   6.5141   6.5638   6.5839   6.5891   7.0692   7.1217

          k =-0.5000 0.2450 0.2500 (  5136 PWs)   bands (ev):

   -64.8289 -64.8285 -64.8264 -64.8258 -31.6306 -31.6262 -31.6241 -31.6184
   -31.5935 -31.5930 -31.5820 -31.5803 -31.5791 -31.5787 -31.5767 -31.5750
    -8.4064  -8.3904  -8.0049  -7.9878   3.8044   3.8393   4.1855   4.2117
     5.8226   5.8386   6.7161   6.7667   6.8512   6.8858   7.0105   7.0264

          k =-0.5000 0.2450-0.5000 (  5146 PWs)   bands (ev):

   -64.8278 -64.8276 -64.8275 -64.8266 -31.6343 -31.6341 -31.6296 -31.6295
   -31.5850 -31.5847 -31.5823 -31.5821 -31.5756 -31.5755 -31.5746 -31.5746
    -8.1768  -8.1767  -8.1574  -8.1574   3.6198   3.6199   3.6618   3.6619
     6.4955   6.4956   6.5546   6.5547   7.0557   7.0559   7.0748   7.0750

          k =-0.5000-0.5050 0.0000 (  5188 PWs)   bands (ev):

   -64.8278 -64.8276 -64.8275 -64.8266 -31.6234 -31.6231 -31.6157 -31.6154
   -31.5971 -31.5971 -31.5970 -31.5967 -31.5780 -31.5776 -31.5741 -31.5738
    -8.2166  -8.2165  -8.1927  -8.1926   4.2866   4.2868   4.3003   4.3006
     5.7532   5.7536   5.7827   5.7831   7.0244   7.0245   7.1054   7.1055

          k =-0.5000-0.5050 0.2500 (  5144 PWs)   bands (ev):

   -64.8278 -64.8276 -64.8275 -64.8266 -31.6344 -31.6342 -31.6295 -31.6293
   -31.5842 -31.5842 -31.5819 -31.5819 -31.5780 -31.5777 -31.5733 -31.5730
    -8.1789  -8.1788  -8.1553  -8.1552   3.6256   3.6258   3.6558   3.6560
     6.5205   6.5208   6.5290   6.5294   7.0255   7.0256   7.1060   7.1061

          k =-0.5000-0.5050-0.5000 (  5136 PWs)   bands (ev):

   -64.8278 -64.8276 -64.8275 -64.8266 -31.6410 -31.6408 -31.6388 -31.6386
   -31.5773 -31.5770 -31.5760 -31.5759 -31.5743 -31.5743 -31.5733 -31.5730
    -8.1407  -8.1406  -8.1173  -8.1172   3.1993   3.1995   3.2366   3.2367
     7.0264   7.0264   7.0643   7.0646   7.0669   7.0672   7.1069   7.1070

          k = 0.0000-0.2500 0.2500 (  5154 PWs)   bands (ev):

   -64.8321 -64.8264 -64.8261 -64.8250 -31.6215 -31.6210 -31.6203 -31.6072
   -31.5947 -31.5940 -31.5929 -31.5874 -31.5865 -31.5863 -31.5755 -31.5685
    -8.9655  -8.0634  -8.0629  -7.8893   4.1617   4.1624   4.3295   5.0718
     5.8474   6.0526   6.0561   6.4858   6.4901   6.5844   7.1736   7.5073

          k =-0.2500-0.0025 0.2500 (  5154 PWs)   bands (ev):

   -64.8321 -64.8265 -64.8261 -64.8250 -31.6215 -31.6210 -31.6203 -31.6072
   -31.5949 -31.5938 -31.5930 -31.5874 -31.5866 -31.5862 -31.5755 -31.5685
    -8.9655  -8.0685  -8.0577  -7.8893   4.1529   4.1712   4.3294   5.0718
     5.8473   6.0411   6.0680   6.4811   6.4942   6.5843   7.1739   7.5071

          k =-0.2500-0.2525 0.2500 (  5156 PWs)   bands (ev):

   -64.8310 -64.8265 -64.8264 -64.8257 -31.6264 -31.6231 -31.6229 -31.6077
   -31.5967 -31.5964 -31.5953 -31.5836 -31.5836 -31.5817 -31.5724 -31.5693
    -8.7905  -8.0373  -8.0360  -8.0231   3.9946   3.9963   4.0214   5.1116
     5.8432   5.8527   5.8713   6.6565   6.7113   6.7115   7.3178   7.3607

          k =-0.2500 0.4975 0.2500 (  5136 PWs)   bands (ev):

   -64.8289 -64.8284 -64.8264 -64.8258 -31.6306 -31.6262 -31.6241 -31.6184
   -31.5935 -31.5930 -31.5820 -31.5803 -31.5791 -31.5787 -31.5768 -31.5750
    -8.4063  -8.3904  -8.0050  -7.9879   3.8045   3.8394   4.1854   4.2116
     5.8225   5.8386   6.7165   6.7671   6.8510   6.8856   7.0105   7.0263

          k =-0.2500 0.2475 0.2500 (  5142 PWs)   bands (ev):

   -64.8312 -64.8265 -64.8264 -64.8256 -31.6278 -31.6276 -31.6243 -31.6047
   -31.5917 -31.5913 -31.5909 -31.5861 -31.5837 -31.5836 -31.5742 -31.5704
    -8.8008  -8.0370  -8.0236  -8.0226   3.9805   4.0059   4.0074   5.0680
     5.8219   5.8405   5.8498   6.7011   6.7013   6.7569   7.3510   7.3949

          k = 0.5000-0.2450 0.2500 (  5136 PWs)   bands (ev):

   -64.8289 -64.8285 -64.8264 -64.8258 -31.6306 -31.6262 -31.6241 -31.6184
   -31.5935 -31.5930 -31.5820 -31.5803 -31.5791 -31.5787 -31.5767 -31.5750
    -8.4064  -8.3904  -8.0049  -7.9878   3.8044   3.8393   4.1855   4.2117
     5.8226   5.8386   6.7161   6.7667   6.8512   6.8858   7.0105   7.0264

     highest occupied level (ev):     7.7096

!    total energy              =    -608.39245790 Ry
     Harris-Foulkes estimate   =    -608.39245790 Ry
     estimated scf accuracy    <          8.7E-11 Ry

     The total energy is the sum of the following terms:

     one-electron contribution =    -303.54788344 Ry
     hartree contribution      =     168.06380620 Ry
     xc contribution           =     -97.84633343 Ry
     ewald contribution        =    -375.06204723 Ry

     convergence has been achieved in   5 iterations

     Forces acting on atoms (cartesian axes, Ry/au):

     atom    1 type  1   force =     0.00172200    0.00003345   -0.00000686
     atom    2 type  1   force =    -0.00187089   -0.00003862    0.00000719
     atom    3 type  1   force =     0.00184419    0.00003577    0.00000701
     atom    4 type  1   force =    -0.00169534   -0.00003327   -0.00000721
     atom    5 type  2   force =     0.00200617    0.00001677   -0.00000589
     atom    6 type  2   force =    -0.00202260   -0.00001558   -0.00000583
     atom    7 type  2   force =     0.00196554    0.00001578    0.00000587
     atom    8 type  2   force =    -0.00194906   -0.00001429    0.00000572

     Total force =     0.005341     Total SCF correction =     0.000029


     Computing stress (Cartesian axis) and pressure

          total   stress  (Ry/bohr**3)                   (kbar)     P=  -68.14
  -0.00046398   0.00009642   0.00000000        -68.25     14.18      0.00
   0.00009642  -0.00046150   0.00000000         14.18    -67.89      0.00
   0.00000000   0.00000000  -0.00046421          0.00      0.00    -68.29


     number of scf cycles    =   3
     number of bfgs steps    =   2

     energy   old            =    -608.3924071765 Ry
     energy   new            =    -608.3924579016 Ry

     CASE: energy  _new < energy  _old

     new trust radius        =       0.0050770443 bohr
     new conv_thr            =       0.0000000005 Ry


ATOMIC_POSITIONS (alat)
Mg       0.001161067   0.000039654  -0.000005157
Mg      -0.001242400   0.499957624   0.500005155
Mg       0.501198423   0.000040355   0.500005163
Mg       0.498902706   0.499962328  -0.000005310
O        0.501394307   0.000021028  -0.000005836
O       -0.001434133   0.499978582  -0.000005831
O        0.001382433   0.000021062   0.500005874
O        0.498637596   0.499979367   0.500005942



     Writing output data file diamond..70.4.save
     NEW-OLD atomic charge density approx. for the potential

     Check: negative/imaginary core charge=   -0.000007    0.000000

     total cpu time spent up to now is       26.2 secs

     per-process dynamical memory:    52.8 Mb

     Self-consistent Calculation

     iteration #  1     ecut=    70.00 Ry     beta=0.70
     Davidson diagonalization with overlap
     ethr =  1.00E-06,  avg # of iterations =  3.0

     Threshold (ethr) on eigenvalues was too large:
     Diagonalizing with lowered threshold

     Davidson diagonalization with overlap
     ethr =  1.58E-08,  avg # of iterations =  2.0

     total cpu time spent up to now is       29.0 secs

     total energy              =    -608.39251480 Ry
     Harris-Foulkes estimate   =    -608.39252046 Ry
     estimated scf accuracy    <       0.00001012 Ry

     iteration #  2     ecut=    70.00 Ry     beta=0.70
     Davidson diagonalization with overlap
     ethr =  1.58E-08,  avg # of iterations =  2.0

     total cpu time spent up to now is       30.2 secs

     total energy              =    -608.39251651 Ry
     Harris-Foulkes estimate   =    -608.39251658 Ry
     estimated scf accuracy    <       0.00000025 Ry

     iteration #  3     ecut=    70.00 Ry     beta=0.70
     Davidson diagonalization with overlap
     ethr =  3.93E-10,  avg # of iterations =  2.0

     total cpu time spent up to now is       31.3 secs

     total energy              =    -608.39251655 Ry
     Harris-Foulkes estimate   =    -608.39251655 Ry
     estimated scf accuracy    <       0.00000002 Ry

     iteration #  4     ecut=    70.00 Ry     beta=0.70
     Davidson diagonalization with overlap
     ethr =  2.52E-11,  avg # of iterations =  2.0

     total cpu time spent up to now is       32.5 secs

     total energy              =    -608.39251655 Ry
     Harris-Foulkes estimate   =    -608.39251655 Ry
     estimated scf accuracy    <          1.3E-09 Ry

     iteration #  5     ecut=    70.00 Ry     beta=0.70
     Davidson diagonalization with overlap
     ethr =  2.01E-12,  avg # of iterations =  3.0

     total cpu time spent up to now is       33.8 secs

     End of self-consistent calculation

          k = 0.0000 0.0000 0.0000 (  5141 PWs)   bands (ev):

   -64.8347 -64.8252 -64.8251 -64.8244 -31.6309 -31.6306 -31.6305 -31.5950
   -31.5933 -31.5932 -31.5926 -31.5925 -31.5911 -31.5670 -31.5652 -31.5634
    -9.3642  -7.9134  -7.9128  -7.9127   3.7585   3.7596   3.7597   6.3228
     6.3805   6.3805   6.3807   6.3811   6.4393   7.6368   7.6725   7.7094

          k = 0.0000 0.0000 0.2500 (  5149 PWs)   bands (ev):

   -64.8332 -64.8264 -64.8252 -64.8246 -31.6254 -31.6253 -31.6204 -31.5975
   -31.5974 -31.5938 -31.5937 -31.5910 -31.5864 -31.5782 -31.5736 -31.5687
    -9.1558  -8.1282  -7.8844  -7.8843   4.0487   4.0492   4.0963   5.8585
     5.8585   6.1713   6.1717   6.4881   6.6000   6.6592   7.4107   7.4922

          k = 0.0000 0.0000-0.5000 (  5130 PWs)   bands (ev):

   -64.8300 -64.8295 -64.8252 -64.8246 -31.6148 -31.6145 -31.6068 -31.6065
   -31.6019 -31.6018 -31.5911 -31.5910 -31.5830 -31.5827 -31.5780 -31.5778
    -8.6456  -8.6455  -7.8556  -7.8555   4.8410   4.8410   4.8545   4.8545
     5.1231   5.1234   5.9742   5.9745   6.9203   6.9203   7.0185   7.0186

          k = 0.0000 0.2500 0.0000 (  5165 PWs)   bands (ev):

   -64.8332 -64.8264 -64.8252 -64.8246 -31.6249 -31.6248 -31.6216 -31.5997
   -31.5982 -31.5933 -31.5928 -31.5891 -31.5887 -31.5799 -31.5716 -31.5705
    -9.1557  -8.1277  -7.8849  -7.8844   4.0488   4.0493   4.0958   5.8509
     5.8588   6.1711   6.1793   6.5434   6.5435   6.6585   7.4506   7.4521

          k = 0.0000 0.2500 0.2500 (  5154 PWs)   bands (ev):

   -64.8320 -64.8263 -64.8260 -64.8249 -31.6214 -31.6209 -31.6202 -31.6071
   -31.5946 -31.5939 -31.5929 -31.5874 -31.5864 -31.5862 -31.5755 -31.5684
    -8.9655  -8.0634  -8.0630  -7.8894   4.1617   4.1623   4.3294   5.0719
     5.8473   6.0526   6.0561   6.4857   6.4898   6.5843   7.1736   7.5071

          k = 0.0000 0.2500-0.5000 (  5150 PWs)   bands (ev):

   -64.8293 -64.8288 -64.8259 -64.8253 -31.6183 -31.6181 -31.6101 -31.6101
   -31.6065 -31.6062 -31.5853 -31.5851 -31.5837 -31.5837 -31.5750 -31.5748
    -8.5091  -8.5091  -7.9461  -7.9460   4.4191   4.4191   4.7512   4.7515
     5.0968   5.0968   6.5484   6.5487   6.5753   6.5753   7.0967   7.0968

          k = 0.0000-0.5000 0.0000 (  5128 PWs)   bands (ev):

   -64.8300 -64.8296 -64.8251 -64.8246 -31.6112 -31.6106 -31.6100 -31.6097
   -31.6024 -31.6020 -31.5919 -31.5917 -31.5805 -31.5803 -31.5799 -31.5796
    -8.6453  -8.6452  -7.8560  -7.8556   4.8466   4.8480   4.8485   4.8487
     5.1233   5.1239   5.9737   5.9755   6.9686   6.9691   6.9692   6.9695

          k = 0.0000-0.5000 0.2500 (  5152 PWs)   bands (ev):

   -64.8293 -64.8289 -64.8259 -64.8253 -31.6178 -31.6174 -31.6106 -31.6104
   -31.6069 -31.6067 -31.5853 -31.5851 -31.5838 -31.5836 -31.5750 -31.5748
    -8.5090  -8.5088  -7.9464  -7.9461   4.4182   4.4188   4.7515   4.7521
     5.0970   5.0978   6.5484   6.5491   6.5763   6.5766   7.0946   7.0951

          k = 0.0000-0.5000-0.5000 (  5180 PWs)   bands (ev):

   -64.8276 -64.8276 -64.8275 -64.8266 -31.6194 -31.6192 -31.6191 -31.6190
   -31.5969 -31.5966 -31.5966 -31.5963 -31.5760 -31.5758 -31.5757 -31.5756
    -8.2049  -8.2047  -8.2046  -8.2046   4.2936   4.2937   4.2938   4.2939
     5.7684   5.7684   5.7691   5.7691   7.0639   7.0640   7.0643   7.0645

          k = 0.2500 0.0025 0.0000 (  5165 PWs)   bands (ev):

   -64.8332 -64.8264 -64.8251 -64.8246 -31.6249 -31.6248 -31.6216 -31.5997
   -31.5982 -31.5932 -31.5929 -31.5891 -31.5886 -31.5799 -31.5716 -31.5705
    -9.1557  -8.1278  -7.8848  -7.8844   4.0488   4.0493   4.0958   5.8515
     5.8588   6.1711   6.1785   6.5435   6.5436   6.6584   7.4506   7.4523

          k = 0.2500 0.0025 0.2500 (  5154 PWs)   bands (ev):

   -64.8320 -64.8264 -64.8260 -64.8249 -31.6214 -31.6209 -31.6202 -31.6071
   -31.5947 -31.5938 -31.5929 -31.5873 -31.5865 -31.5862 -31.5755 -31.5684
    -8.9655  -8.0666  -8.0598  -7.8894   4.1563   4.1677   4.3294   5.0719
     5.8472   6.0458   6.0630   6.4831   6.4921   6.5842   7.1737   7.5070

          k = 0.2500 0.0025-0.5000 (  5150 PWs)   bands (ev):

   -64.8293 -64.8288 -64.8259 -64.8253 -31.6183 -31.6182 -31.6101 -31.6101
   -31.6065 -31.6062 -31.5854 -31.5850 -31.5837 -31.5837 -31.5750 -31.5748
    -8.5092  -8.5091  -7.9461  -7.9460   4.4188   4.4189   4.7514   4.7516
     5.0967   5.0968   6.5485   6.5487   6.5754   6.5754   7.0966   7.0967

          k = 0.2500 0.2525 0.0000 (  5159 PWs)   bands (ev):

   -64.8319 -64.8265 -64.8260 -64.8249 -31.6196 -31.6187 -31.6186 -31.6109
   -31.5951 -31.5944 -31.5943 -31.5884 -31.5883 -31.5855 -31.5758 -31.5666
    -8.9604  -8.0694  -8.0693  -7.8837   4.1645   4.1647   4.3345   5.1028
     5.8652   6.0478   6.0483   6.4961   6.4962   6.5326   7.1833   7.4705

          k = 0.2500 0.2525 0.2500 (  5156 PWs)   bands (ev):

   -64.8309 -64.8265 -64.8263 -64.8256 -31.6263 -31.6230 -31.6228 -31.6076
   -31.5966 -31.5963 -31.5954 -31.5835 -31.5835 -31.5816 -31.5723 -31.5692
    -8.7905  -8.0367  -8.0361  -8.0239   3.9955   3.9962   4.0204   5.1115
     5.8476   5.8527   5.8667   6.6564   6.7112   6.7114   7.3177   7.3607

          k = 0.2500 0.2525-0.5000 (  5152 PWs)   bands (ev):

   -64.8287 -64.8283 -64.8264 -64.8258 -31.6258 -31.6256 -31.6230 -31.6229
   -31.5969 -31.5966 -31.5797 -31.5796 -31.5792 -31.5792 -31.5759 -31.5756
    -8.3933  -8.3932  -8.0025  -8.0024   3.8117   3.8118   4.2217   4.2219
     5.8445   5.8445   6.7457   6.7459   6.8751   6.8752   6.9722   6.9722

          k = 0.2500-0.4975 0.0000 (  5153 PWs)   bands (ev):

   -64.8293 -64.8288 -64.8259 -64.8253 -31.6211 -31.6141 -31.6138 -31.6071
   -31.6067 -31.6067 -31.5863 -31.5852 -31.5848 -31.5812 -31.5776 -31.5730
    -8.5169  -8.5009  -7.9551  -7.9375   4.4077   4.4297   4.7471   4.7563
     5.0877   5.1058   6.5141   6.5638   6.5840   6.5890   7.0689   7.1214

          k = 0.2500-0.4975 0.2500 (  5136 PWs)   bands (ev):

   -64.8288 -64.8284 -64.8264 -64.8257 -31.6305 -31.6261 -31.6240 -31.6183
   -31.5934 -31.5929 -31.5819 -31.5802 -31.5790 -31.5787 -31.5767 -31.5749
    -8.4064  -8.3904  -8.0050  -7.9880   3.8045   3.8394   4.1853   4.2115
     5.8225   5.8386   6.7162   6.7668   6.8509   6.8855   7.0104   7.0262

          k = 0.2500-0.4975-0.5000 (  5146 PWs)   bands (ev):

   -64.8277 -64.8275 -64.8275 -64.8266 -31.6342 -31.6340 -31.6295 -31.6294
   -31.5848 -31.5846 -31.5823 -31.5821 -31.5755 -31.5753 -31.5746 -31.5746
    -8.1753  -8.1752  -8.1591  -8.1590   3.6222   3.6223   3.6593   3.6594
     6.4982   6.4983   6.5516   6.5516   7.0573   7.0575   7.0732   7.0734

          k = 0.2500-0.2475 0.0000 (  5143 PWs)   bands (ev):

   -64.8321 -64.8263 -64.8259 -64.8250 -31.6234 -31.6231 -31.6198 -31.6045
   -31.5941 -31.5941 -31.5895 -31.5889 -31.5844 -31.5842 -31.5754 -31.5710
    -8.9706  -8.0569  -8.0567  -7.8958   4.1597   4.1600   4.3237   5.0408
     5.8304   6.0642   6.0647   6.4747   6.4749   6.6372   7.1641   7.5424

          k = 0.2500-0.2475 0.2500 (  5142 PWs)   bands (ev):

   -64.8311 -64.8264 -64.8263 -64.8255 -31.6277 -31.6275 -31.6242 -31.6047
   -31.5915 -31.5912 -31.5909 -31.5861 -31.5836 -31.5835 -31.5741 -31.5703
    -8.8008  -8.0364  -8.0237  -8.0233   3.9813   4.0058   4.0064   5.0679
     5.8262   5.8404   5.8454   6.7010   6.7012   6.7567   7.3509   7.3947

          k = 0.2500-0.2475-0.5000 (  5128 PWs)   bands (ev):

   -64.8289 -64.8284 -64.8263 -64.8257 -31.6308 -31.6306 -31.6198 -31.6197
   -31.5894 -31.5891 -31.5818 -31.5818 -31.5802 -31.5799 -31.5762 -31.5761
    -8.4040  -8.4039  -7.9903  -7.9902   3.8320   3.8321   4.1751   4.1753
     5.8176   5.8177   6.7359   6.7361   6.8634   6.8635   7.0619   7.0619

          k =-0.5000-0.0050 0.0000 (  5128 PWs)   bands (ev):

   -64.8300 -64.8296 -64.8251 -64.8246 -31.6109 -31.6108 -31.6099 -31.6098
   -31.6022 -31.6021 -31.5918 -31.5918 -31.5805 -31.5803 -31.5798 -31.5797
    -8.6456  -8.6450  -7.8559  -7.8558   4.8473   4.8478   4.8483   4.8487
     5.1234   5.1238   5.9741   5.9744   6.9688   6.9690   6.9693   6.9695

          k =-0.5000-0.0050 0.2500 (  5152 PWs)   bands (ev):

   -64.8293 -64.8289 -64.8258 -64.8253 -31.6176 -31.6175 -31.6105 -31.6105
   -31.6068 -31.6067 -31.5852 -31.5851 -31.5837 -31.5837 -31.5750 -31.5749
    -8.5092  -8.5087  -7.9463  -7.9462   4.4182   4.4186   4.7517   4.7520
     5.0970   5.0979   6.5484   6.5487   6.5763   6.5769   7.0947   7.0949

          k =-0.5000-0.0050-0.5000 (  5180 PWs)   bands (ev):

   -64.8277 -64.8275 -64.8275 -64.8266 -31.6194 -31.6193 -31.6190 -31.6190
   -31.5973 -31.5970 -31.5963 -31.5959 -31.5761 -31.5760 -31.5755 -31.5754
    -8.2095  -8.2091  -8.2002  -8.2000   4.2852   4.2853   4.3019   4.3022
     5.7574   5.7583   5.7795   5.7802   7.0593   7.0593   7.0687   7.0691

          k =-0.5000 0.2450 0.0000 (  5153 PWs)   bands (ev):

   -64.8293 -64.8289 -64.8259 -64.8253 -31.6211 -31.6141 -31.6138 -31.6071
   -31.6067 -31.6067 -31.5863 -31.5851 -31.5849 -31.5812 -31.5776 -31.5730
    -8.5169  -8.5009  -7.9550  -7.9374   4.4077   4.4297   4.7471   4.7563
     5.0877   5.1058   6.5140   6.5638   6.5839   6.5890   7.0689   7.1214

          k =-0.5000 0.2450 0.2500 (  5136 PWs)   bands (ev):

   -64.8288 -64.8284 -64.8264 -64.8257 -31.6305 -31.6261 -31.6240 -31.6183
   -31.5934 -31.5929 -31.5819 -31.5802 -31.5791 -31.5787 -31.5767 -31.5749
    -8.4064  -8.3905  -8.0050  -7.9880   3.8044   3.8393   4.1854   4.2116
     5.8226   5.8386   6.7161   6.7666   6.8510   6.8856   7.0104   7.0262

          k =-0.5000 0.2450-0.5000 (  5146 PWs)   bands (ev):

   -64.8277 -64.8275 -64.8274 -64.8265 -31.6342 -31.6340 -31.6295 -31.6294
   -31.5849 -31.5846 -31.5822 -31.5820 -31.5755 -31.5754 -31.5746 -31.5745
    -8.1760  -8.1758  -8.1584  -8.1584   3.6212   3.6213   3.6603   3.6605
     6.4971   6.4972   6.5528   6.5529   7.0566   7.0567   7.0738   7.0740

          k =-0.5000-0.5050 0.0000 (  5188 PWs)   bands (ev):

   -64.8277 -64.8276 -64.8274 -64.8265 -31.6233 -31.6230 -31.6156 -31.6154
   -31.5971 -31.5970 -31.5969 -31.5967 -31.5779 -31.5776 -31.5740 -31.5738
    -8.2167  -8.2165  -8.1928  -8.1926   4.2865   4.2868   4.3002   4.3006
     5.7530   5.7536   5.7826   5.7831   7.0242   7.0244   7.1052   7.1053

          k =-0.5000-0.5050 0.2500 (  5144 PWs)   bands (ev):

   -64.8277 -64.8275 -64.8274 -64.8265 -31.6343 -31.6341 -31.6294 -31.6292
   -31.5841 -31.5841 -31.5818 -31.5818 -31.5780 -31.5777 -31.5733 -31.5730
    -8.1790  -8.1789  -8.1554  -8.1553   3.6255   3.6257   3.6557   3.6559
     6.5204   6.5208   6.5290   6.5294   7.0253   7.0254   7.1058   7.1059

          k =-0.5000-0.5050-0.5000 (  5136 PWs)   bands (ev):

   -64.8277 -64.8275 -64.8274 -64.8265 -31.6409 -31.6407 -31.6387 -31.6385
   -31.5772 -31.5769 -31.5759 -31.5758 -31.5742 -31.5742 -31.5732 -31.5729
    -8.1408  -8.1407  -8.1174  -8.1173   3.1993   3.1994   3.2365   3.2366
     7.0262   7.0262   7.0643   7.0645   7.0669   7.0672   7.1068   7.1068

          k = 0.0000-0.2500 0.2500 (  5154 PWs)   bands (ev):

   -64.8320 -64.8263 -64.8260 -64.8249 -31.6214 -31.6209 -31.6202 -31.6071
   -31.5946 -31.5939 -31.5929 -31.5874 -31.5864 -31.5862 -31.5755 -31.5684
    -8.9655  -8.0634  -8.0630  -7.8894   4.1617   4.1623   4.3294   5.0719
     5.8473   6.0526   6.0561   6.4857   6.4898   6.5843   7.1736   7.5071

          k =-0.2500-0.0025 0.2500 (  5154 PWs)   bands (ev):

   -64.8320 -64.8264 -64.8260 -64.8249 -31.6214 -31.6209 -31.6202 -31.6071
   -31.5947 -31.5938 -31.5929 -31.5873 -31.5865 -31.5862 -31.5755 -31.5684
    -8.9655  -8.0666  -8.0598  -7.8894   4.1563   4.1677   4.3294   5.0719
     5.8472   6.0458   6.0630   6.4831   6.4921   6.5842   7.1737   7.5070

          k =-0.2500-0.2525 0.2500 (  5156 PWs)   bands (ev):

   -64.8309 -64.8265 -64.8263 -64.8256 -31.6263 -31.6230 -31.6228 -31.6076
   -31.5966 -31.5963 -31.5954 -31.5835 -31.5835 -31.5816 -31.5723 -31.5692
    -8.7905  -8.0367  -8.0361  -8.0239   3.9955   3.9962   4.0204   5.1115
     5.8476   5.8527   5.8667   6.6564   6.7112   6.7114   7.3177   7.3607

          k =-0.2500 0.4975 0.2500 (  5136 PWs)   bands (ev):

   -64.8288 -64.8284 -64.8264 -64.8257 -31.6305 -31.6261 -31.6240 -31.6183
   -31.5934 -31.5929 -31.5819 -31.5802 -31.5790 -31.5787 -31.5767 -31.5749
    -8.4064  -8.3904  -8.0050  -7.9880   3.8045   3.8394   4.1853   4.2115
     5.8225   5.8386   6.7162   6.7668   6.8509   6.8855   7.0104   7.0262

          k =-0.2500 0.2475 0.2500 (  5142 PWs)   bands (ev):

   -64.8311 -64.8264 -64.8263 -64.8255 -31.6277 -31.6275 -31.6242 -31.6047
   -31.5915 -31.5912 -31.5909 -31.5861 -31.5836 -31.5835 -31.5741 -31.5703
    -8.8008  -8.0364  -8.0237  -8.0233   3.9813   4.0058   4.0064   5.0679
     5.8262   5.8404   5.8454   6.7010   6.7012   6.7567   7.3509   7.3947

          k = 0.5000-0.2450 0.2500 (  5136 PWs)   bands (ev):

   -64.8288 -64.8284 -64.8264 -64.8257 -31.6305 -31.6261 -31.6240 -31.6183
   -31.5934 -31.5929 -31.5819 -31.5802 -31.5791 -31.5787 -31.5767 -31.5749
    -8.4064  -8.3905  -8.0050  -7.9880   3.8044   3.8393   4.1854   4.2116
     5.8226   5.8386   6.7161   6.7666   6.8510   6.8856   7.0104   7.0262

     highest occupied level (ev):     7.7094

!    total energy              =    -608.39251655 Ry
     Harris-Foulkes estimate   =    -608.39251655 Ry
     estimated scf accuracy    <          2.6E-10 Ry

     The total energy is the sum of the following terms:

     one-electron contribution =    -303.54892948 Ry
     hartree contribution      =     168.06437149 Ry
     xc contribution           =     -97.84637750 Ry
     ewald contribution        =    -375.06158107 Ry

     convergence has been achieved in   5 iterations

     Forces acting on atoms (cartesian axes, Ry/au):

     atom    1 type  1   force =     0.00118451   -0.00002010   -0.00000129
     atom    2 type  1   force =    -0.00130218    0.00001726    0.00000173
     atom    3 type  1   force =     0.00135617   -0.00001834    0.00000162
     atom    4 type  1   force =    -0.00127931    0.00001748   -0.00000181
     atom    5 type  2   force =     0.00126205   -0.00000641   -0.00000072
     atom    6 type  2   force =    -0.00121530    0.00000840   -0.00000088
     atom    7 type  2   force =     0.00120902   -0.00000650    0.00000075
     atom    8 type  2   force =    -0.00121496    0.00000820    0.00000058

     Total force =     0.003547     Total SCF correction =     0.000035


     Computing stress (Cartesian axis) and pressure

          total   stress  (Ry/bohr**3)                   (kbar)     P=  -68.14
  -0.00046389   0.00009642  -0.00000000        -68.24     14.18     -0.00
   0.00009642  -0.00046173   0.00000000         14.18    -67.92      0.00
  -0.00000000   0.00000000  -0.00046402         -0.00      0.00    -68.26


     number of scf cycles    =   4
     number of bfgs steps    =   3

     energy   old            =    -608.3924579016 Ry
     energy   new            =    -608.3925165503 Ry

     CASE: energy  _new < energy  _old

     new trust radius        =       0.0076155664 bohr
     new conv_thr            =       0.0000000006 Ry


ATOMIC_POSITIONS (alat)
Mg       0.001994031   0.000047613  -0.000007609
Mg      -0.002146983   0.499947567   0.500007772
Mg       0.502104564   0.000049266   0.500007732
Mg       0.498061330   0.499954128  -0.000007993
O        0.502340939   0.000026379  -0.000008187
O       -0.002379109   0.499973846  -0.000008222
O        0.002306050   0.000026286   0.500008244
O        0.497719178   0.499974915   0.500008262



     Writing output data file diamond..70.4.save
     NEW-OLD atomic charge density approx. for the potential

     Check: negative/imaginary core charge=   -0.000007    0.000000

     total cpu time spent up to now is       34.4 secs

     per-process dynamical memory:    52.8 Mb

     Self-consistent Calculation

     iteration #  1     ecut=    70.00 Ry     beta=0.70
     Davidson diagonalization with overlap
     ethr =  1.00E-06,  avg # of iterations =  3.2

     Threshold (ethr) on eigenvalues was too large:
     Diagonalizing with lowered threshold

     Davidson diagonalization with overlap
     ethr =  3.59E-08,  avg # of iterations =  1.4

     total cpu time spent up to now is       37.3 secs

     total energy              =    -608.39255688 Ry
     Harris-Foulkes estimate   =    -608.39256948 Ry
     estimated scf accuracy    <       0.00002274 Ry

     iteration #  2     ecut=    70.00 Ry     beta=0.70
     Davidson diagonalization with overlap
     ethr =  3.55E-08,  avg # of iterations =  2.0

[...]
Mg       0.002290066   0.000008557  -0.000005365
Mg      -0.002488337   0.499990393   0.500005825
Mg       0.502560607   0.000007811   0.500005780
Mg       0.497589273   0.499991959  -0.000006053
O        0.502526645   0.000010043  -0.000005830
O       -0.002503943   0.499990570  -0.000005847
O        0.002470414   0.000010661   0.500005812
O        0.497555275   0.499990005   0.500005677



     Writing output data file diamond..70.4.save
     NEW-OLD atomic charge density approx. for the potential

     Check: negative/imaginary core charge=   -0.000007    0.000000

     total cpu time spent up to now is       67.1 secs

     per-process dynamical memory:    52.8 Mb

     Self-consistent Calculation

     iteration #  1     ecut=    70.00 Ry     beta=0.70
     Davidson diagonalization with overlap
     ethr =  1.00E-06,  avg # of iterations =  2.0

     Threshold (ethr) on eigenvalues was too large:
     Diagonalizing with lowered threshold

     Davidson diagonalization with overlap
     ethr =  6.97E-11,  avg # of iterations =  3.1

     total cpu time spent up to now is       70.0 secs

     total energy              =    -608.39256408 Ry
     Harris-Foulkes estimate   =    -608.39256413 Ry
     estimated scf accuracy    <       0.00000008 Ry

     iteration #  2     ecut=    70.00 Ry     beta=0.70
     Davidson diagonalization with overlap
     ethr =  1.28E-10,  avg # of iterations =  2.0

     total cpu time spent up to now is       71.1 secs

     total energy              =    -608.39256410 Ry
     Harris-Foulkes estimate   =    -608.39256410 Ry
     estimated scf accuracy    <          2.1E-09 Ry

     iteration #  3     ecut=    70.00 Ry     beta=0.70
     Davidson diagonalization with overlap
     ethr =  3.25E-12,  avg # of iterations =  2.0

     total cpu time spent up to now is       72.3 secs

     total energy              =    -608.39256410 Ry
     Harris-Foulkes estimate   =    -608.39256410 Ry
     estimated scf accuracy    <          1.2E-10 Ry

     iteration #  4     ecut=    70.00 Ry     beta=0.70
     Davidson diagonalization with overlap
     ethr =  1.85E-13,  avg # of iterations =  3.0

     total cpu time spent up to now is       73.6 secs

     End of self-consistent calculation

          k = 0.0000 0.0000 0.0000 (  5141 PWs)   bands (ev):

   -64.8346 -64.8251 -64.8251 -64.8244 -31.6308 -31.6305 -31.6304 -31.5950
   -31.5932 -31.5932 -31.5925 -31.5924 -31.5911 -31.5669 -31.5651 -31.5634
    -9.3642  -7.9134  -7.9129  -7.9128   3.7585   3.7596   3.7596   6.3227
     6.3805   6.3805   6.3807   6.3810   6.4393   7.6367   7.6725   7.7094

          k = 0.0000 0.0000 0.2500 (  5149 PWs)   bands (ev):

   -64.8332 -64.8263 -64.8251 -64.8245 -31.6253 -31.6252 -31.6204 -31.5974
   -31.5974 -31.5937 -31.5937 -31.5909 -31.5863 -31.5781 -31.5735 -31.5686
    -9.1558  -8.1282  -7.8845  -7.8844   4.0492   4.0492   4.0957   5.8585
     5.8585   6.1713   6.1716   6.4880   6.5999   6.6592   7.4106   7.4922

          k = 0.0000 0.0000-0.5000 (  5130 PWs)   bands (ev):

   -64.8299 -64.8295 -64.8251 -64.8246 -31.6147 -31.6144 -31.6067 -31.6064
   -31.6018 -31.6018 -31.5910 -31.5910 -31.5829 -31.5827 -31.5780 -31.5777
    -8.6456  -8.6455  -7.8557  -7.8556   4.8410   4.8411   4.8545   4.8546
     5.1229   5.1232   5.9742   5.9745   6.9202   6.9202   7.0185   7.0185

          k = 0.0000 0.2500 0.0000 (  5165 PWs)   bands (ev):

   -64.8332 -64.8263 -64.8251 -64.8245 -31.6249 -31.6247 -31.6215 -31.5996
   -31.5981 -31.5931 -31.5928 -31.5890 -31.5886 -31.5798 -31.5715 -31.5704
    -9.1557  -8.1278  -7.8849  -7.8845   4.0487   4.0493   4.0958   5.8514
     5.8587   6.1711   6.1785   6.5434   6.5434   6.6583   7.4506   7.4521

          k = 0.0000 0.2500 0.2500 (  5154 PWs)   bands (ev):

   -64.8320 -64.8263 -64.8260 -64.8249 -31.6213 -31.6208 -31.6201 -31.6070
   -31.5945 -31.5938 -31.5929 -31.5873 -31.5864 -31.5862 -31.5754 -31.5684
    -8.9656  -8.0634  -8.0631  -7.8895   4.1617   4.1622   4.3293   5.0719
     5.8472   6.0526   6.0560   6.4856   6.4896   6.5841   7.1735   7.5070

          k = 0.0000 0.2500-0.5000 (  5150 PWs)   bands (ev):

   -64.8292 -64.8288 -64.8258 -64.8253 -31.6182 -31.6181 -31.6101 -31.6100
   -31.6064 -31.6062 -31.5853 -31.5850 -31.5836 -31.5836 -31.5749 -31.5748
    -8.5092  -8.5091  -7.9462  -7.9461   4.4190   4.4191   4.7512   4.7514
     5.0967   5.0967   6.5485   6.5487   6.5752   6.5752   7.0966   7.0966

          k = 0.0000-0.5000 0.0000 (  5128 PWs)   bands (ev):

   -64.8299 -64.8295 -64.8251 -64.8246 -31.6109 -31.6106 -31.6099 -31.6097
   -31.6021 -31.6021 -31.5917 -31.5917 -31.5804 -31.5802 -31.5798 -31.5795
    -8.6453  -8.6453  -7.8559  -7.8559   4.8477   4.8478   4.8482   4.8483
     5.1234   5.1237   5.9741   5.9744   6.9690   6.9690   6.9691   6.9691

          k = 0.0000-0.5000 0.2500 (  5152 PWs)   bands (ev):

   -64.8292 -64.8288 -64.8258 -64.8253 -31.6176 -31.6174 -31.6104 -31.6104
   -31.6068 -31.6066 -31.5852 -31.5850 -31.5836 -31.5836 -31.5749 -31.5748
    -8.5090  -8.5089  -7.9464  -7.9463   4.4184   4.4185   4.7516   4.7518
     5.0974   5.0975   6.5484   6.5487   6.5764   6.5765   7.0947   7.0948

          k = 0.0000-0.5000-0.5000 (  5180 PWs)   bands (ev):

   -64.8275 -64.8275 -64.8275 -64.8266 -31.6193 -31.6191 -31.6190 -31.6190
   -31.5968 -31.5966 -31.5966 -31.5963 -31.5759 -31.5756 -31.5756 -31.5756
    -8.2048  -8.2047  -8.2047  -8.2047   4.2935   4.2936   4.2936   4.2938
     5.7686   5.7686   5.7689   5.7689   7.0639   7.0640   7.0640   7.0642

          k = 0.2500 0.0025 0.0000 (  5165 PWs)   bands (ev):

   -64.8332 -64.8263 -64.8251 -64.8246 -31.6249 -31.6247 -31.6215 -31.5996
   -31.5981 -31.5931 -31.5928 -31.5890 -31.5886 -31.5798 -31.5715 -31.5704
    -9.1557  -8.1278  -7.8849  -7.8845   4.0487   4.0493   4.0958   5.8514
     5.8587   6.1711   6.1785   6.5434   6.5434   6.6583   7.4506   7.4521

          k = 0.2500 0.0025 0.2500 (  5154 PWs)   bands (ev):

   -64.8320 -64.8263 -64.8259 -64.8249 -31.6213 -31.6208 -31.6201 -31.6070
   -31.5945 -31.5938 -31.5928 -31.5873 -31.5864 -31.5861 -31.5754 -31.5684
    -8.9656  -8.0635  -8.0631  -7.8895   4.1617   4.1622   4.3293   5.0719
     5.8472   6.0526   6.0560   6.4856   6.4896   6.5841   7.1735   7.5070

          k = 0.2500 0.0025-0.5000 (  5150 PWs)   bands (ev):

   -64.8292 -64.8288 -64.8258 -64.8253 -31.6182 -31.6181 -31.6101 -31.6100
   -31.6064 -31.6062 -31.5853 -31.5850 -31.5836 -31.5836 -31.5749 -31.5748
    -8.5092  -8.5091  -7.9462  -7.9461   4.4190   4.4191   4.7512   4.7514
     5.0967   5.0967   6.5485   6.5487   6.5752   6.5752   7.0966   7.0966

          k = 0.2500 0.2525 0.0000 (  5159 PWs)   bands (ev):

   -64.8319 -64.8264 -64.8260 -64.8249 -31.6195 -31.6186 -31.6185 -31.6108
   -31.5951 -31.5943 -31.5943 -31.5883 -31.5882 -31.5854 -31.5757 -31.5665
    -8.9604  -8.0695  -8.0694  -7.8837   4.1645   4.1646   4.3344   5.1028
     5.8652   6.0478   6.0481   6.4961   6.4961   6.5324   7.1833   7.4704

          k = 0.2500 0.2525 0.2500 (  5156 PWs)   bands (ev):

   -64.8309 -64.8264 -64.8263 -64.8256 -31.6262 -31.6229 -31.6227 -31.6075
   -31.5964 -31.5962 -31.5954 -31.5834 -31.5834 -31.5816 -31.5722 -31.5691
    -8.7906  -8.0362  -8.0362  -8.0245   3.9961   3.9962   4.0197   5.1114
     5.8526   5.8527   5.8616   6.6563   6.7111   6.7113   7.3176   7.3606

          k = 0.2500 0.2525-0.5000 (  5152 PWs)   bands (ev):

   -64.8286 -64.8283 -64.8264 -64.8258 -31.6257 -31.6255 -31.6229 -31.6228
   -31.5968 -31.5966 -31.5796 -31.5795 -31.5792 -31.5791 -31.5758 -31.5755
    -8.3933  -8.3932  -8.0026  -8.0025   3.8117   3.8118   4.2216   4.2218
     5.8445   5.8445   6.7456   6.7459   6.8749   6.8751   6.9720   6.9720

          k = 0.2500-0.4975 0.0000 (  5153 PWs)   bands (ev):

   -64.8293 -64.8288 -64.8258 -64.8252 -31.6211 -31.6140 -31.6137 -31.6070
   -31.6066 -31.6066 -31.5862 -31.5851 -31.5848 -31.5811 -31.5776 -31.5729
    -8.5170  -8.5010  -7.9551  -7.9375   4.4077   4.4297   4.7470   4.7562
     5.0877   5.1058   6.5139   6.5638   6.5838   6.5890   7.0688   7.1213

          k = 0.2500-0.4975 0.2500 (  5136 PWs)   bands (ev):

   -64.8287 -64.8283 -64.8263 -64.8257 -31.6304 -31.6260 -31.6239 -31.6182
   -31.5933 -31.5928 -31.5818 -31.5802 -31.5790 -31.5786 -31.5766 -31.5749
    -8.4065  -8.3905  -8.0051  -7.9880   3.8044   3.8394   4.1853   4.2115
     5.8225   5.8386   6.7160   6.7666   6.8508   6.8855   7.0103   7.0261

          k = 0.2500-0.4975-0.5000 (  5146 PWs)   bands (ev):

   -64.8276 -64.8275 -64.8274 -64.8265 -31.6341 -31.6339 -31.6295 -31.6293
   -31.5848 -31.5845 -31.5822 -31.5820 -31.5754 -31.5753 -31.5746 -31.5745
    -8.1754  -8.1753  -8.1591  -8.1591   3.6222   3.6223   3.6593   3.6594
     6.4982   6.4982   6.5516   6.5516   7.0572   7.0573   7.0731   7.0732

          k = 0.2500-0.2475 0.0000 (  5143 PWs)   bands (ev):

   -64.8320 -64.8262 -64.8259 -64.8250 -31.6233 -31.6231 -31.6197 -31.6044
   -31.5940 -31.5940 -31.5894 -31.5889 -31.5844 -31.5842 -31.5753 -31.5709
    -8.9706  -8.0569  -8.0568  -7.8959   4.1597   4.1599   4.3236   5.0408
     5.8303   6.0642   6.0646   6.4746   6.4747   6.6371   7.1641   7.5423

          k = 0.2500-0.2475 0.2500 (  5142 PWs)   bands (ev):

   -64.8310 -64.8263 -64.8262 -64.8255 -31.6277 -31.6275 -31.6241 -31.6046
   -31.5912 -31.5912 -31.5909 -31.5860 -31.5835 -31.5834 -31.5741 -31.5702
    -8.8009  -8.0360  -8.0238  -8.0237   3.9819   4.0057   4.0058   5.0678
     5.8311   5.8403   5.8405   6.7009   6.7011   6.7567   7.3509   7.3946

          k = 0.2500-0.2475-0.5000 (  5128 PWs)   bands (ev):

   -64.8288 -64.8284 -64.8262 -64.8256 -31.6307 -31.6305 -31.6197 -31.6196
   -31.5893 -31.5890 -31.5817 -31.5817 -31.5801 -31.5798 -31.5762 -31.5761
    -8.4040  -8.4039  -7.9904  -7.9903   3.8321   3.8321   4.1750   4.1751
     5.8176   5.8176   6.7358   6.7361   6.8633   6.8634   7.0618   7.0618

          k =-0.5000-0.0050 0.0000 (  5128 PWs)   bands (ev):

   -64.8299 -64.8295 -64.8251 -64.8246 -31.6109 -31.6107 -31.6099 -31.6097
   -31.6022 -31.6020 -31.5917 -31.5917 -31.5804 -31.5802 -31.5797 -31.5796
    -8.6458  -8.6448  -7.8559  -7.8559   4.8470   4.8475   4.8485   4.8490
     5.1233   5.1238   5.9741   5.9744   6.9686   6.9687   6.9694   6.9695

          k =-0.5000-0.0050 0.2500 (  5152 PWs)   bands (ev):

   -64.8292 -64.8288 -64.8258 -64.8253 -31.6176 -31.6175 -31.6105 -31.6104
   -31.6068 -31.6066 -31.5852 -31.5850 -31.5836 -31.5836 -31.5749 -31.5748
    -8.5094  -8.5086  -7.9464  -7.9463   4.4181   4.4188   4.7515   4.7519
     5.0967   5.0982   6.5483   6.5488   6.5759   6.5769   7.0946   7.0949

          k =-0.5000-0.0050-0.5000 (  5180 PWs)   bands (ev):

   -64.8275 -64.8275 -64.8275 -64.8266 -31.6193 -31.6191 -31.6190 -31.6189
   -31.5967 -31.5966 -31.5965 -31.5963 -31.5759 -31.5757 -31.5756 -31.5755
    -8.2051  -8.2049  -8.2045  -8.2045   4.2935   4.2936   4.2936   4.2938
     5.7680   5.7682   5.7694   5.7695   7.0638   7.0639   7.0641   7.0643

          k =-0.5000 0.2450 0.0000 (  5153 PWs)   bands (ev):

   -64.8292 -64.8288 -64.8258 -64.8252 -31.6211 -31.6140 -31.6137 -31.6070
   -31.6066 -31.6066 -31.5862 -31.5850 -31.5848 -31.5811 -31.5776 -31.5729
    -8.5170  -8.5009  -7.9551  -7.9375   4.4077   4.4297   4.7470   4.7562
     5.0877   5.1058   6.5139   6.5637   6.5838   6.5890   7.0688   7.1213

          k =-0.5000 0.2450 0.2500 (  5136 PWs)   bands (ev):

   -64.8287 -64.8283 -64.8263 -64.8257 -31.6304 -31.6260 -31.6239 -31.6182
   -31.5933 -31.5928 -31.5818 -31.5802 -31.5790 -31.5786 -31.5766 -31.5749
    -8.4065  -8.3905  -8.0051  -7.9880   3.8044   3.8394   4.1853   4.2115
     5.8225   5.8386   6.7160   6.7666   6.8508   6.8855   7.0103   7.0261

          k =-0.5000 0.2450-0.5000 (  5146 PWs)   bands (ev):

   -64.8276 -64.8275 -64.8274 -64.8265 -31.6341 -31.6339 -31.6295 -31.6293
   -31.5848 -31.5845 -31.5822 -31.5820 -31.5754 -31.5753 -31.5746 -31.5745
    -8.1754  -8.1753  -8.1591  -8.1591   3.6222   3.6223   3.6593   3.6594
     6.4982   6.4982   6.5516   6.5516   7.0572   7.0573   7.0731   7.0732

          k =-0.5000-0.5050 0.0000 (  5188 PWs)   bands (ev):

   -64.8277 -64.8275 -64.8273 -64.8265 -31.6232 -31.6229 -31.6155 -31.6153
   -31.5970 -31.5969 -31.5968 -31.5966 -31.5778 -31.5775 -31.5740 -31.5737
    -8.2167  -8.2166  -8.1928  -8.1927   4.2866   4.2867   4.3003   4.3004
     5.7531   5.7534   5.7826   5.7830   7.0241   7.0242   7.1051   7.1051

          k =-0.5000-0.5050 0.2500 (  5144 PWs)   bands (ev):

   -64.8277 -64.8275 -64.8273 -64.8265 -31.6342 -31.6340 -31.6293 -31.6291
   -31.5840 -31.5840 -31.5818 -31.5817 -31.5779 -31.5776 -31.5732 -31.5729
    -8.1790  -8.1789  -8.1554  -8.1554   3.6255   3.6256   3.6557   3.6558
     6.5204   6.5207   6.5290   6.5293   7.0252   7.0252   7.1057   7.1057

          k =-0.5000-0.5050-0.5000 (  5136 PWs)   bands (ev):

   -64.8277 -64.8275 -64.8273 -64.8265 -31.6408 -31.6406 -31.6386 -31.6384
   -31.5771 -31.5769 -31.5758 -31.5757 -31.5741 -31.5741 -31.5731 -31.5729
    -8.1408  -8.1407  -8.1174  -8.1174   3.1993   3.1993   3.2365   3.2366
     7.0261   7.0261   7.0643   7.0645   7.0669   7.0671   7.1066   7.1066

          k = 0.0000-0.2500 0.2500 (  5154 PWs)   bands (ev):

   -64.8320 -64.8263 -64.8260 -64.8249 -31.6213 -31.6208 -31.6201 -31.6070
   -31.5945 -31.5938 -31.5929 -31.5873 -31.5864 -31.5862 -31.5754 -31.5684
    -8.9656  -8.0634  -8.0631  -7.8895   4.1617   4.1622   4.3293   5.0719
     5.8472   6.0526   6.0560   6.4856   6.4896   6.5841   7.1735   7.5070

          k =-0.2500-0.0025 0.2500 (  5154 PWs)   bands (ev):

   -64.8320 -64.8263 -64.8259 -64.8249 -31.6213 -31.6208 -31.6201 -31.6070
   -31.5945 -31.5938 -31.5928 -31.5873 -31.5864 -31.5861 -31.5754 -31.5684
    -8.9656  -8.0635  -8.0631  -7.8895   4.1617   4.1622   4.3293   5.0719
     5.8472   6.0526   6.0560   6.4856   6.4896   6.5841   7.1735   7.5070

          k =-0.2500-0.2525 0.2500 (  5156 PWs)   bands (ev):

   -64.8309 -64.8264 -64.8263 -64.8256 -31.6262 -31.6229 -31.6227 -31.6075
   -31.5964 -31.5962 -31.5954 -31.5834 -31.5834 -31.5816 -31.5722 -31.5691
    -8.7906  -8.0362  -8.0362  -8.0245   3.9961   3.9962   4.0197   5.1114
     5.8526   5.8527   5.8616   6.6563   6.7111   6.7113   7.3176   7.3606

          k =-0.2500 0.4975 0.2500 (  5136 PWs)   bands (ev):

   -64.8287 -64.8283 -64.8263 -64.8257 -31.6304 -31.6260 -31.6239 -31.6182
   -31.5933 -31.5928 -31.5818 -31.5802 -31.5790 -31.5786 -31.5766 -31.5749
    -8.4065  -8.3905  -8.0051  -7.9880   3.8044   3.8394   4.1853   4.2115
     5.8225   5.8386   6.7160   6.7666   6.8508   6.8855   7.0103   7.0261

          k =-0.2500 0.2475 0.2500 (  5142 PWs)   bands (ev):

   -64.8310 -64.8263 -64.8262 -64.8255 -31.6277 -31.6275 -31.6241 -31.6046
   -31.5912 -31.5912 -31.5909 -31.5860 -31.5835 -31.5834 -31.5741 -31.5702
    -8.8009  -8.0360  -8.0238  -8.0237   3.9819   4.0057   4.0058   5.0678
     5.8311   5.8403   5.8405   6.7009   6.7011   6.7567   7.3509   7.3946

          k = 0.5000-0.2450 0.2500 (  5136 PWs)   bands (ev):

   -64.8287 -64.8283 -64.8263 -64.8257 -31.6304 -31.6260 -31.6239 -31.6182
   -31.5933 -31.5928 -31.5818 -31.5802 -31.5790 -31.5786 -31.5766 -31.5749
    -8.4065  -8.3905  -8.0051  -7.9880   3.8044   3.8394   4.1853   4.2115
     5.8225   5.8386   6.7160   6.7666   6.8508   6.8855   7.0103   7.0261

     highest occupied level (ev):     7.7094

!    total energy              =    -608.39256410 Ry
     Harris-Foulkes estimate   =    -608.39256410 Ry
     estimated scf accuracy    <          4.1E-11 Ry

     The total energy is the sum of the following terms:

     one-electron contribution =    -303.54958748 Ry
     hartree contribution      =     168.06473014 Ry
     xc contribution           =     -97.84640164 Ry
     ewald contribution        =    -375.06130511 Ry

     convergence has been achieved in   4 iterations

     Forces acting on atoms (cartesian axes, Ry/au):

     atom    1 type  1   force =    -0.00002712    0.00001080   -0.00000054
     atom    2 type  1   force =     0.00002248   -0.00000679    0.00000043
     atom    3 type  1   force =     0.00001049    0.00000825    0.00000039
     atom    4 type  1   force =    -0.00001390   -0.00000904   -0.00000044
     atom    5 type  2   force =    -0.00001068    0.00000455   -0.00000105
     atom    6 type  2   force =    -0.00001576   -0.00000649   -0.00000103
     atom    7 type  2   force =     0.00001372    0.00000613    0.00000114
     atom    8 type  2   force =     0.00002078   -0.00000741    0.00000111

     Total force =     0.000055     Total SCF correction =     0.000018
     SCF correction compared to forces is large: reduce conv_thr to get better values


     Computing stress (Cartesian axis) and pressure

          total   stress  (Ry/bohr**3)                   (kbar)     P=  -68.15
  -0.00046387   0.00009643   0.00000000        -68.24     14.18      0.00
   0.00009643  -0.00046195  -0.00000000         14.18    -67.96     -0.00
   0.00000000  -0.00000000  -0.00046390          0.00     -0.00    -68.24


     bfgs converged in   9 scf cycles and   8 bfgs steps
     (criteria: energy <  1.0E-05 Ry, force <  1.0E-04 Ry/Bohr)

     End of BFGS Geometry Optimization

     Final energy   =    -608.3925640986 Ry
Begin final coordinates

ATOMIC_POSITIONS (alat)
Mg       0.002290066   0.000008557  -0.000005365
Mg      -0.002488337   0.499990393   0.500005825
Mg       0.502560607   0.000007811   0.500005780
Mg       0.497589273   0.499991959  -0.000006053
O        0.502526645   0.000010043  -0.000005830
O       -0.002503943   0.499990570  -0.000005847
O        0.002470414   0.000010661   0.500005812
O        0.497555275   0.499990005   0.500005677
End final coordinates



     Writing output data file diamond..70.4.save
 
     init_run     :      0.52s CPU      0.54s WALL (       1 calls)
     electrons    :     66.00s CPU     68.27s WALL (       9 calls)
     update_pot   :      0.65s CPU      0.67s WALL (       8 calls)
     forces       :      1.11s CPU      1.13s WALL (       9 calls)
     stress       :      2.73s CPU      2.76s WALL (       9 calls)

     Called by init_run:
     wfcinit      :      0.43s CPU      0.44s WALL (       1 calls)
     potinit      :      0.04s CPU      0.04s WALL (       1 calls)

     Called by electrons:
     c_bands      :     58.18s CPU     60.24s WALL (      53 calls)
     sum_band     :      7.56s CPU      7.75s WALL (      53 calls)
     v_of_rho     :      0.21s CPU      0.22s WALL (      54 calls)
     mix_rho      :      0.03s CPU      0.03s WALL (      53 calls)

     Called by c_bands:
     init_us_2    :      0.80s CPU      0.87s WALL (    4500 calls)
     cegterg      :     54.64s CPU     56.49s WALL (    1908 calls)

     Called by sum_band:

     Called by *egterg:
     h_psi        :     40.86s CPU     41.86s WALL (    6542 calls)
     g_psi        :      0.14s CPU      0.16s WALL (    4598 calls)
     cdiaghg      :      8.10s CPU      8.11s WALL (    5930 calls)

     Called by h_psi:
     h_psi:pot    :     40.64s CPU     41.55s WALL (    6542 calls)
     h_psi:calbec :      1.71s CPU      1.71s WALL (    6542 calls)
     vloc_psi     :     37.55s CPU     38.44s WALL (    6542 calls)
     add_vuspsi   :      1.36s CPU      1.37s WALL (    6542 calls)

     General routines
     calbec       :      2.27s CPU      2.27s WALL (    8162 calls)
     fft          :      0.16s CPU      0.16s WALL (     834 calls)
     fftw         :     42.81s CPU     42.59s WALL (  386588 calls)
     davcio       :      0.00s CPU      0.00s WALL (      36 calls)
 
     Parallel routines
     fft_scatter  :      8.49s CPU      8.91s WALL (  387422 calls)
 
     PWSCF        :  1m11.53s CPU     1m14.11s WALL

 
   This run was terminated on:  19: 6:15  22Apr2018            

=------------------------------------------------------------------------------=
   JOB DONE.
=------------------------------------------------------------------------------=
