
     Program PWSCF v.6.1 (svn rev. 13369) starts on 22Apr2018 at 19:10: 9 

     This program is part of the open-source Quantum ESPRESSO suite
     for quantum simulation of materials; please cite
         "P. Giannozzi et al., J. Phys.:Condens. Matter 21 395502 (2009);
          URL http://www.quantum-espresso.org", 
     in publications or presentations arising from this work. More details at
     http://www.quantum-espresso.org/quote

     Parallel version (MPI), running on     8 processors
     R & G space division:  proc/nbgrp/npool/nimage =       8
     Waiting for input...
     Reading input from standard input
Warning: card       &CELL ignored
Warning: card          CELL_DYNAMICS = 'BFGS' ignored
Warning: card          PRESS = 0.0D0 ignored
Warning: card          PRESS_CONV_THR = 0.01D0 ignored
Warning: card       / ignored

     Current dimensions of program PWSCF are:
     Max number of different atomic species (ntypx) = 10
     Max number of k-points (npk) =  40000
     Max angular momentum in pseudopotentials (lmaxx) =  3

     Subspace diagonalization in iterative solution of the eigenvalue problem:
     a serial algorithm will be used

 
     Parallelization info
     --------------------
     sticks:   dense  smooth     PW     G-vecs:    dense   smooth      PW
     Min         180     180     52                 5150     5150     816
     Max         181     181     53                 5153     5153     819
     Sum        1445    1445    421                41215    41215    6535
 


     bravais-lattice index     =            0
     lattice parameter (alat)  =       8.0448  a.u.
     unit-cell volume          =     520.6402 (a.u.)^3
     number of atoms/cell      =            8
     number of atomic types    =            2
     number of electrons       =        64.00
     number of Kohn-Sham states=           32
     kinetic-energy cutoff     =      70.0000  Ry
     charge density cutoff     =     280.0000  Ry
     convergence threshold     =      1.0E-08
     mixing beta               =       0.7000
     number of iterations used =            8  plain     mixing
     Exchange-correlation      = PBE ( 1  4  3  4 0 0)
     nstep                     =           50


     celldm(1)=   8.044750  celldm(2)=   0.000000  celldm(3)=   0.000000
     celldm(4)=   0.000000  celldm(5)=   0.000000  celldm(6)=   0.000000

     crystal axes: (cart. coord. in units of alat)
               a(1) = (   1.000000   0.001785   0.000000 )  
               a(2) = (   0.001785   1.000000   0.000000 )  
               a(3) = (   0.000000   0.000000   1.000003 )  

     reciprocal axes: (cart. coord. in units 2 pi/alat)
               b(1) = (  1.000003 -0.001786  0.000000 )  
               b(2) = ( -0.001786  1.000003  0.000000 )  
               b(3) = (  0.000000  0.000000  0.999997 )  


     PseudoPot. # 1 for Mg read from file:
     ../pseudo/Mg.pbe.UPF
     MD5 check sum: 4c04d8c6e0476e83eaecaf72fa8acc4d
     Pseudo is Norm-conserving, Zval = 10.0
     Generated using ONCVPSP code by D. R. Hamann
     Using radial grid of 1510 points,  4 beta functions with: 
                l(1) =   0
                l(2) =   0
                l(3) =   1
                l(4) =   1

     PseudoPot. # 2 for O  read from file:
     ../pseudo/O.pbe.UPF
     MD5 check sum: 3e3f909f7470e8921608ab6b1f57bbae
     Pseudo is Norm-conserving + core correction, Zval =  6.0
     Generated using ONCVPSP code by D. R. Hamann
     Using radial grid of  936 points,  5 beta functions with: 
                l(1) =   0
                l(2) =   0
                l(3) =   1
                l(4) =   1
                l(5) =   2

     atomic species   valence    mass     pseudopotential
        Mg            10.00    24.30500     Mg( 1.00)
        O              6.00    15.99940     O ( 1.00)

      4 Sym. Ops. (no inversion) found



   Cartesian axes

     site n.     atom                  positions (alat units)
         1           Mg  tau(   1) = (   0.0000000   0.0000000   0.0000000  )
         2           Mg  tau(   2) = (   0.0000000   0.5000000   0.5000000  )
         3           Mg  tau(   3) = (   0.5000000   0.0000000   0.5000000  )
         4           Mg  tau(   4) = (   0.5000000   0.5000000   0.0000000  )
         5           O   tau(   5) = (   0.5000000   0.0000000   0.0000000  )
         6           O   tau(   6) = (   0.0000000   0.5000000   0.0000000  )
         7           O   tau(   7) = (   0.0000000   0.0000000   0.5000000  )
         8           O   tau(   8) = (   0.5000000   0.5000000   0.5000000  )

     number of k points=    21
                       cart. coord. in units 2pi/alat
        k(    1) = (   0.0000000   0.0000000   0.0000000), wk =   0.0312500
        k(    2) = (   0.0000000   0.0000000   0.2499992), wk =   0.0625000
        k(    3) = (   0.0000000   0.0000000  -0.4999984), wk =   0.0312500
        k(    4) = (  -0.0004464   0.2500008   0.0000000), wk =   0.1250000
        k(    5) = (  -0.0004464   0.2500008   0.2499992), wk =   0.2500000
        k(    6) = (  -0.0004464   0.2500008  -0.4999984), wk =   0.1250000
        k(    7) = (   0.0008928  -0.5000016   0.0000000), wk =   0.0625000
        k(    8) = (   0.0008928  -0.5000016   0.2499992), wk =   0.1250000
        k(    9) = (   0.0008928  -0.5000016  -0.4999984), wk =   0.0625000
        k(   10) = (   0.2495544   0.2495544   0.0000000), wk =   0.0625000
        k(   11) = (   0.2495544   0.2495544   0.2499992), wk =   0.1250000
        k(   12) = (   0.2495544   0.2495544  -0.4999984), wk =   0.0625000
        k(   13) = (   0.2508935  -0.5004480   0.0000000), wk =   0.1250000
        k(   14) = (   0.2508935  -0.5004480   0.2499992), wk =   0.2500000
        k(   15) = (   0.2508935  -0.5004480  -0.4999984), wk =   0.1250000
        k(   16) = (   0.2504472  -0.2504472   0.0000000), wk =   0.0625000
        k(   17) = (   0.2504472  -0.2504472   0.2499992), wk =   0.1250000
        k(   18) = (   0.2504472  -0.2504472  -0.4999984), wk =   0.0625000
        k(   19) = (  -0.4991088  -0.4991088   0.0000000), wk =   0.0312500
        k(   20) = (  -0.4991088  -0.4991088   0.2499992), wk =   0.0625000
        k(   21) = (  -0.4991088  -0.4991088  -0.4999984), wk =   0.0312500

     Dense  grid:    41215 G-vectors     FFT dimensions: (  45,  45,  45)

     Estimated max dynamical RAM per process >      12.51MB

     Estimated total allocated dynamical RAM >     100.04MB

     Check: negative/imaginary core charge=   -0.000007    0.000000

     Initial potential from superposition of free atoms

     starting charge   63.99678, renormalised to   64.00000
     Starting wfc are   36 randomized atomic wfcs

     total cpu time spent up to now is        0.6 secs

     per-process dynamical memory:    48.1 Mb

     Self-consistent Calculation

     iteration #  1     ecut=    70.00 Ry     beta=0.70
     Davidson diagonalization with overlap
     ethr =  1.00E-02,  avg # of iterations =  2.0

     total cpu time spent up to now is        1.4 secs

     total energy              =    -607.71990060 Ry
     Harris-Foulkes estimate   =    -608.84376420 Ry
     estimated scf accuracy    <       1.56158919 Ry

     iteration #  2     ecut=    70.00 Ry     beta=0.70
     Davidson diagonalization with overlap
     ethr =  2.44E-03,  avg # of iterations =  2.9

     total cpu time spent up to now is        2.4 secs

     total energy              =    -608.10576991 Ry
     Harris-Foulkes estimate   =    -608.80360565 Ry
     estimated scf accuracy    <       1.44881302 Ry

     iteration #  3     ecut=    70.00 Ry     beta=0.70
     Davidson diagonalization with overlap
     ethr =  2.26E-03,  avg # of iterations =  2.0

     total cpu time spent up to now is        3.3 secs

     total energy              =    -608.39132458 Ry
     Harris-Foulkes estimate   =    -608.39198624 Ry
     estimated scf accuracy    <       0.00676056 Ry

     iteration #  4     ecut=    70.00 Ry     beta=0.70
     Davidson diagonalization with overlap
     ethr =  1.06E-05,  avg # of iterations =  2.0

     total cpu time spent up to now is        4.1 secs

     total energy              =    -608.39280050 Ry
     Harris-Foulkes estimate   =    -608.39284488 Ry
     estimated scf accuracy    <       0.00011085 Ry

     iteration #  5     ecut=    70.00 Ry     beta=0.70
     Davidson diagonalization with overlap
     ethr =  1.73E-07,  avg # of iterations =  1.5

     total cpu time spent up to now is        4.9 secs

     total energy              =    -608.39280781 Ry
     Harris-Foulkes estimate   =    -608.39280635 Ry
     estimated scf accuracy    <       0.00001037 Ry

     iteration #  6     ecut=    70.00 Ry     beta=0.70
     Davidson diagonalization with overlap
     ethr =  1.62E-08,  avg # of iterations =  2.0

     total cpu time spent up to now is        5.9 secs

     total energy              =    -608.39280944 Ry
     Harris-Foulkes estimate   =    -608.39280984 Ry
     estimated scf accuracy    <       0.00000102 Ry

     iteration #  7     ecut=    70.00 Ry     beta=0.70
     Davidson diagonalization with overlap
     ethr =  1.60E-09,  avg # of iterations =  2.0

     total cpu time spent up to now is        6.7 secs

     total energy              =    -608.39280942 Ry
     Harris-Foulkes estimate   =    -608.39280952 Ry
     estimated scf accuracy    <       0.00000025 Ry

     iteration #  8     ecut=    70.00 Ry     beta=0.70
     Davidson diagonalization with overlap
     ethr =  3.90E-10,  avg # of iterations =  2.0

     total cpu time spent up to now is        7.6 secs

     total energy              =    -608.39280943 Ry
     Harris-Foulkes estimate   =    -608.39280945 Ry
     estimated scf accuracy    <       0.00000004 Ry

     iteration #  9     ecut=    70.00 Ry     beta=0.70
     Davidson diagonalization with overlap
     ethr =  6.37E-11,  avg # of iterations =  2.0

     total cpu time spent up to now is        8.6 secs

     End of self-consistent calculation

          k = 0.0000 0.0000 0.0000 (  5145 PWs)   bands (ev):

   -64.8344 -64.8249 -64.8249 -64.8241 -31.6309 -31.6309 -31.6308 -31.5941
   -31.5933 -31.5933 -31.5932 -31.5932 -31.5924 -31.5645 -31.5635 -31.5633
    -9.3646  -7.9138  -7.9136  -7.9136   3.7581   3.7581   3.7582   6.3593
     6.3799   6.3800   6.3801   6.3803   6.4009   7.6594   7.6724   7.6854

          k = 0.0000 0.0000 0.2500 (  5157 PWs)   bands (ev):

   -64.8330 -64.8261 -64.8249 -64.8243 -31.6241 -31.6241 -31.6203 -31.5979
   -31.5979 -31.5939 -31.5938 -31.5898 -31.5880 -31.5781 -31.5723 -31.5703
    -9.1562  -8.1286  -7.8852  -7.8852   4.0484   4.0487   4.0957   5.8581
     5.8581   6.1705   6.1709   6.5229   6.5627   6.6589   7.4358   7.4648

          k = 0.0000 0.0000-0.5000 (  5110 PWs)   bands (ev):

   -64.8298 -64.8293 -64.8249 -64.8243 -31.6111 -31.6109 -31.6075 -31.6073
   -31.6018 -31.6018 -31.5906 -31.5906 -31.5814 -31.5812 -31.5795 -31.5793
    -8.6460  -8.6459  -7.8564  -7.8564   4.8455   4.8456   4.8503   4.8504
     5.1227   5.1230   5.9734   5.9738   6.9508   6.9509   6.9859   6.9860

          k =-0.0004 0.2500 0.0000 (  5159 PWs)   bands (ev):

   -64.8330 -64.8261 -64.8249 -64.8243 -31.6244 -31.6243 -31.6205 -31.5982
   -31.5982 -31.5937 -31.5934 -31.5889 -31.5888 -31.5782 -31.5714 -31.5712
    -9.1562  -8.1285  -7.8853  -7.8852   4.0484   4.0484   4.0954   5.8571
     5.8581   6.1706   6.1718   6.5428   6.5430   6.6588   7.4502   7.4504

          k =-0.0004 0.2500 0.2500 (  5157 PWs)   bands (ev):

   -64.8318 -64.8261 -64.8257 -64.8247 -31.6211 -31.6207 -31.6195 -31.6070
   -31.5940 -31.5938 -31.5929 -31.5877 -31.5865 -31.5863 -31.5753 -31.5682
    -8.9661  -8.0653  -8.0624  -7.8902   4.1590   4.1638   4.3287   5.0713
     5.8470   6.0519   6.0589   6.4835   6.4867   6.5835   7.1733   7.5057

          k =-0.0004 0.2500-0.5000 (  5152 PWs)   bands (ev):

   -64.8290 -64.8286 -64.8256 -64.8250 -31.6174 -31.6172 -31.6100 -31.6099
   -31.6066 -31.6064 -31.5850 -31.5847 -31.5836 -31.5836 -31.5753 -31.5751
    -8.5096  -8.5095  -7.9469  -7.9468   4.4183   4.4185   4.7511   4.7513
     5.0962   5.0964   6.5478   6.5480   6.5756   6.5757   7.0943   7.0944

          k = 0.0009-0.5000 0.0000 (  5110 PWs)   bands (ev):

   -64.8298 -64.8293 -64.8249 -64.8243 -31.6094 -31.6093 -31.6092 -31.6091
   -31.6019 -31.6019 -31.5905 -31.5904 -31.5805 -31.5804 -31.5803 -31.5802
    -8.6460  -8.6458  -7.8565  -7.8564   4.8478   4.8479   4.8480   4.8480
     5.1227   5.1230   5.9734   5.9739   6.9683   6.9683   6.9684   6.9684

          k = 0.0009-0.5000 0.2500 (  5154 PWs)   bands (ev):

   -64.8290 -64.8286 -64.8256 -64.8250 -31.6173 -31.6172 -31.6100 -31.6100
   -31.6067 -31.6065 -31.5849 -31.5847 -31.5837 -31.5837 -31.5753 -31.5752
    -8.5096  -8.5095  -7.9470  -7.9468   4.4183   4.4184   4.7511   4.7514
     5.0963   5.0964   6.5478   6.5480   6.5758   6.5759   7.0941   7.0941

          k = 0.0009-0.5000-0.5000 (  5204 PWs)   bands (ev):

   -64.8274 -64.8273 -64.8273 -64.8263 -31.6192 -31.6191 -31.6189 -31.6189
   -31.5971 -31.5969 -31.5967 -31.5965 -31.5766 -31.5764 -31.5762 -31.5762
    -8.2072  -8.2072  -8.2034  -8.2034   4.2897   4.2898   4.2968   4.2969
     5.7629   5.7629   5.7720   5.7720   7.0613   7.0615   7.0653   7.0654

          k = 0.2496 0.2496 0.0000 (  5161 PWs)   bands (ev):

   -64.8318 -64.8261 -64.8257 -64.8247 -31.6217 -31.6216 -31.6194 -31.6058
   -31.5943 -31.5943 -31.5916 -31.5886 -31.5860 -31.5859 -31.5753 -31.5694
    -8.9679  -8.0616  -8.0616  -7.8924   4.1606   4.1607   4.3268   5.0603
     5.8409   6.0581   6.0584   6.4809   6.4809   6.6021   7.1698   7.5183

          k = 0.2496 0.2496 0.2500 (  5150 PWs)   bands (ev):

   -64.8308 -64.8261 -64.8261 -64.8253 -31.6260 -31.6258 -31.6245 -31.6054
   -31.5928 -31.5926 -31.5923 -31.5845 -31.5839 -31.5838 -31.5719 -31.5709
    -8.7980  -8.0332  -8.0284  -8.0281   3.9931   4.0021   4.0027   5.0814
     5.8368   5.8437   5.8471   6.7036   6.7037   6.7236   7.3536   7.3692

          k = 0.2496 0.2496-0.5000 (  5132 PWs)   bands (ev):

   -64.8286 -64.8281 -64.8261 -64.8255 -31.6287 -31.6285 -31.6203 -31.6203
   -31.5916 -31.5914 -31.5808 -31.5808 -31.5788 -31.5785 -31.5769 -31.5769
    -8.4010  -8.4009  -7.9949  -7.9949   3.8250   3.8252   4.1896   4.1897
     5.8255   5.8255   6.7384   6.7387   6.8667   6.8669   7.0320   7.0320

          k = 0.2509-0.5004 0.0000 (  5152 PWs)   bands (ev):

   -64.8290 -64.8286 -64.8256 -64.8250 -31.6186 -31.6156 -31.6113 -31.6086
   -31.6068 -31.6065 -31.5849 -31.5847 -31.5844 -31.5828 -31.5760 -31.5745
    -8.5124  -8.5067  -7.9500  -7.9438   4.4146   4.4223   4.7496   4.7529
     5.0931   5.0994   6.5355   6.5605   6.5713   6.5803   7.0848   7.1035

          k = 0.2509-0.5004 0.2500 (  5135 PWs)   bands (ev):

   -64.8285 -64.8281 -64.8261 -64.8255 -31.6284 -31.6271 -31.6219 -31.6198
   -31.5928 -31.5926 -31.5810 -31.5800 -31.5787 -31.5780 -31.5772 -31.5765
    -8.4019  -8.3962  -8.0002  -7.9941   3.8152   3.8278   4.1933   4.2027
     5.8275   5.8332   6.7313   6.7494   6.8625   6.8749   7.0135   7.0190

          k = 0.2509-0.5004-0.5000 (  5140 PWs)   bands (ev):

   -64.8274 -64.8273 -64.8273 -64.8263 -31.6324 -31.6322 -31.6305 -31.6304
   -31.5834 -31.5832 -31.5824 -31.5822 -31.5754 -31.5752 -31.5749 -31.5749
    -8.1710  -8.1710  -8.1646  -8.1645   3.6332   3.6333   3.6474   3.6475
     6.5143   6.5144   6.5345   6.5346   7.0612   7.0614   7.0676   7.0677

          k = 0.2504-0.2504 0.0000 (  5157 PWs)   bands (ev):

   -64.8317 -64.8261 -64.8258 -64.8247 -31.6200 -31.6199 -31.6194 -31.6084
   -31.5941 -31.5941 -31.5941 -31.5869 -31.5869 -31.5868 -31.5752 -31.5672
    -8.9642  -8.0661  -8.0661  -7.8881   4.1623   4.1623   4.3306   5.0824
     5.8533   6.0525   6.0528   6.4888   6.4888   6.5650   7.1768   7.4930

          k = 0.2504-0.2504 0.2500 (  5156 PWs)   bands (ev):

   -64.8307 -64.8261 -64.8261 -64.8253 -31.6253 -31.6240 -31.6238 -31.6064
   -31.5947 -31.5945 -31.5942 -31.5839 -31.5839 -31.5831 -31.5714 -31.5703
    -8.7944  -8.0333  -8.0329  -8.0282   3.9982   3.9988   4.0078   5.0970
     5.8444   5.8479   5.8548   6.6875   6.7071   6.7073   7.3417   7.3571

          k = 0.2504-0.2504-0.5000 (  5144 PWs)   bands (ev):

   -64.8285 -64.8281 -64.8261 -64.8255 -31.6272 -31.6271 -31.6215 -31.6214
   -31.5942 -31.5940 -31.5803 -31.5803 -31.5783 -31.5782 -31.5768 -31.5766
    -8.3972  -8.3971  -7.9993  -7.9993   3.8178   3.8178   4.2062   4.2064
     5.8351   5.8351   6.7419   6.7421   6.8708   6.8709   7.0001   7.0002

          k =-0.4991-0.4991 0.0000 (  5196 PWs)   bands (ev):

   -64.8274 -64.8273 -64.8273 -64.8263 -31.6205 -31.6202 -31.6175 -31.6172
   -31.5973 -31.5971 -31.5971 -31.5968 -31.5762 -31.5759 -31.5757 -31.5755
    -8.2096  -8.2096  -8.2011  -8.2010   4.2909   4.2909   4.2957   4.2957
     5.7618   5.7621   5.7723   5.7726   7.0490   7.0490   7.0782   7.0782

          k =-0.4991-0.4991 0.2500 (  5140 PWs)   bands (ev):

   -64.8274 -64.8273 -64.8273 -64.8263 -31.6323 -31.6321 -31.6305 -31.6304
   -31.5831 -31.5830 -31.5824 -31.5823 -31.5764 -31.5761 -31.5743 -31.5741
    -8.1720  -8.1720  -8.1636  -8.1635   3.6349   3.6350   3.6457   3.6458
     6.5227   6.5229   6.5258   6.5260   7.0502   7.0502   7.0788   7.0788

          k =-0.4991-0.4991-0.5000 (  5136 PWs)   bands (ev):

   -64.8274 -64.8273 -64.8272 -64.8263 -31.6402 -31.6400 -31.6386 -31.6385
   -31.5751 -31.5751 -31.5750 -31.5749 -31.5747 -31.5746 -31.5746 -31.5745
    -8.1339  -8.1339  -8.1255  -8.1254   3.2107   3.2107   3.2243   3.2244
     7.0508   7.0508   7.0649   7.0651   7.0655   7.0657   7.0800   7.0800

     highest occupied level (ev):     7.6854

!    total energy              =    -608.39280943 Ry
     Harris-Foulkes estimate   =    -608.39280944 Ry
     estimated scf accuracy    <          1.5E-09 Ry

     The total energy is the sum of the following terms:

     one-electron contribution =    -303.55735806 Ry
     hartree contribution      =     168.06786089 Ry
     xc contribution           =     -97.84638946 Ry
     ewald contribution        =    -375.05692280 Ry

     convergence has been achieved in   9 iterations

     Forces acting on atoms (cartesian axes, Ry/au):

     atom    1 type  1   force =    -0.00041258   -0.00041258    0.00000000
     atom    2 type  1   force =     0.00046571   -0.00042816    0.00000000
     atom    3 type  1   force =    -0.00042816    0.00046571    0.00000000
     atom    4 type  1   force =     0.00035865    0.00035865    0.00000000
     atom    5 type  2   force =    -0.00052855    0.00056139    0.00000000
     atom    6 type  2   force =     0.00056139   -0.00052855    0.00000000
     atom    7 type  2   force =    -0.00052075   -0.00052075    0.00000000
     atom    8 type  2   force =     0.00050429    0.00050429    0.00000000

     Total force =     0.001907     Total SCF correction =     0.000015


     Computing stress (Cartesian axis) and pressure

          total   stress  (Ry/bohr**3)                   (kbar)     P=  -68.12
  -0.00046345  -0.00003514   0.00000000        -68.18     -5.17      0.00
  -0.00003514  -0.00046345   0.00000000         -5.17    -68.18      0.00
   0.00000000   0.00000000  -0.00046235          0.00      0.00    -68.01


     BFGS Geometry Optimization

     number of scf cycles    =   1
     number of bfgs steps    =   0

     energy   new            =    -608.3928094344 Ry

     new trust radius        =       0.0007710513 bohr
     new conv_thr            =       0.0000000100 Ry


ATOMIC_POSITIONS (alat)
Mg      -0.000051286  -0.000051286   0.000000000
Mg       0.000057890   0.499946778   0.500000000
Mg       0.499946778   0.000057890   0.500000000
Mg       0.500044582   0.500044582   0.000000000
O        0.499934299   0.000069783   0.000000000
O        0.000069783   0.499934299   0.000000000
O       -0.000064732  -0.000064732   0.500000000
O        0.500062686   0.500062686   0.500000000



     Writing output data file MgO.0.003571.70.4.save
     NEW-OLD atomic charge density approx. for the potential

     Check: negative/imaginary core charge=   -0.000007    0.000000

     total cpu time spent up to now is        9.2 secs

     per-process dynamical memory:    52.8 Mb

     Self-consistent Calculation

     iteration #  1     ecut=    70.00 Ry     beta=0.70
     Davidson diagonalization with overlap
     ethr =  1.00E-06,  avg # of iterations =  2.0

     Threshold (ethr) on eigenvalues was too large:
     Diagonalizing with lowered threshold

     Davidson diagonalization with overlap
     ethr =  2.63E-10,  avg # of iterations =  3.2

     total cpu time spent up to now is       11.3 secs

     total energy              =    -608.39281277 Ry
     Harris-Foulkes estimate   =    -608.39281291 Ry
     estimated scf accuracy    <       0.00000024 Ry

     iteration #  2     ecut=    70.00 Ry     beta=0.70
     Davidson diagonalization with overlap
     ethr =  3.81E-10,  avg # of iterations =  2.0

     total cpu time spent up to now is       12.1 secs

     End of self-consistent calculation

          k = 0.0000 0.0000 0.0000 (  5145 PWs)   bands (ev):

   -64.8346 -64.8251 -64.8251 -64.8243 -31.6311 -31.6310 -31.6310 -31.5943
   -31.5935 -31.5934 -31.5934 -31.5933 -31.5926 -31.5646 -31.5637 -31.5635
    -9.3646  -7.9139  -7.9137  -7.9135   3.7581   3.7581   3.7582   6.3593
     6.3800   6.3800   6.3801   6.3802   6.4009   7.6594   7.6724   7.6854

          k = 0.0000 0.0000 0.2500 (  5157 PWs)   bands (ev):

   -64.8331 -64.8263 -64.8251 -64.8245 -31.6243 -31.6242 -31.6205 -31.5981
   -31.5981 -31.5940 -31.5940 -31.5900 -31.5882 -31.5782 -31.5725 -31.5705
    -9.1562  -8.1286  -7.8853  -7.8852   4.0485   4.0486   4.0956   5.8581
     5.8581   6.1706   6.1708   6.5228   6.5627   6.6589   7.4358   7.4647

          k = 0.0000 0.0000-0.5000 (  5110 PWs)   bands (ev):

   -64.8299 -64.8295 -64.8251 -64.8245 -31.6113 -31.6110 -31.6076 -31.6074
   -31.6020 -31.6019 -31.5908 -31.5907 -31.5816 -31.5813 -31.5797 -31.5794
    -8.6460  -8.6459  -7.8565  -7.8564   4.8454   4.8456   4.8503   4.8503
     5.1227   5.1229   5.9735   5.9737   6.9508   6.9510   6.9858   6.9860

          k =-0.0004 0.2500 0.0000 (  5159 PWs)   bands (ev):

   -64.8331 -64.8263 -64.8251 -64.8245 -31.6245 -31.6244 -31.6206 -31.5984
   -31.5984 -31.5939 -31.5935 -31.5891 -31.5889 -31.5784 -31.5715 -31.5713
    -9.1562  -8.1286  -7.8854  -7.8851   4.0484   4.0484   4.0954   5.8572
     5.8581   6.1706   6.1718   6.5427   6.5430   6.6588   7.4502   7.4504

          k =-0.0004 0.2500 0.2500 (  5157 PWs)   bands (ev):

   -64.8319 -64.8263 -64.8259 -64.8248 -31.6212 -31.6208 -31.6197 -31.6071
   -31.5941 -31.5939 -31.5930 -31.5879 -31.5866 -31.5864 -31.5755 -31.5684
    -8.9661  -8.0651  -8.0627  -7.8902   4.1593   4.1634   4.3287   5.0713
     5.8470   6.0524   6.0584   6.4837   6.4865   6.5835   7.1733   7.5057

          k =-0.0004 0.2500-0.5000 (  5152 PWs)   bands (ev):

   -64.8292 -64.8288 -64.8258 -64.8252 -31.6175 -31.6173 -31.6101 -31.6101
   -31.6068 -31.6065 -31.5851 -31.5849 -31.5838 -31.5837 -31.5754 -31.5753
    -8.5097  -8.5095  -7.9469  -7.9468   4.4183   4.4185   4.7511   4.7513
     5.0962   5.0964   6.5478   6.5480   6.5756   6.5758   7.0943   7.0944

          k = 0.0009-0.5000 0.0000 (  5110 PWs)   bands (ev):

   -64.8299 -64.8295 -64.8251 -64.8245 -31.6095 -31.6095 -31.6093 -31.6092
   -31.6021 -31.6020 -31.5907 -31.5906 -31.5806 -31.5805 -31.5804 -31.5803
    -8.6460  -8.6458  -7.8566  -7.8563   4.8477   4.8479   4.8480   4.8480
     5.1226   5.1230   5.9734   5.9739   6.9682   6.9683   6.9684   6.9685

          k = 0.0009-0.5000 0.2500 (  5154 PWs)   bands (ev):

   -64.8292 -64.8288 -64.8258 -64.8252 -31.6175 -31.6173 -31.6101 -31.6101
   -31.6069 -31.6066 -31.5851 -31.5848 -31.5839 -31.5838 -31.5755 -31.5753
    -8.5097  -8.5094  -7.9470  -7.9468   4.4183   4.4184   4.7511   4.7514
     5.0962   5.0964   6.5477   6.5480   6.5758   6.5759   7.0940   7.0941

          k = 0.0009-0.5000-0.5000 (  5204 PWs)   bands (ev):

   -64.8275 -64.8275 -64.8275 -64.8264 -31.6194 -31.6192 -31.6190 -31.6190
   -31.5973 -31.5971 -31.5969 -31.5966 -31.5767 -31.5765 -31.5763 -31.5763
    -8.2070  -8.2069  -8.2037  -8.2037   4.2902   4.2903   4.2962   4.2964
     5.7635   5.7636   5.7713   5.7714   7.0616   7.0618   7.0650   7.0651

          k = 0.2496 0.2496 0.0000 (  5161 PWs)   bands (ev):

   -64.8320 -64.8263 -64.8259 -64.8249 -31.6219 -31.6217 -31.6195 -31.6059
   -31.5944 -31.5944 -31.5917 -31.5888 -31.5862 -31.5860 -31.5755 -31.5696
    -8.9679  -8.0616  -8.0616  -7.8924   4.1606   4.1607   4.3267   5.0603
     5.8409   6.0582   6.0584   6.4808   6.4809   6.6021   7.1698   7.5183

          k = 0.2496 0.2496 0.2500 (  5150 PWs)   bands (ev):

   -64.8309 -64.8263 -64.8262 -64.8255 -31.6262 -31.6260 -31.6247 -31.6055
   -31.5929 -31.5927 -31.5924 -31.5846 -31.5840 -31.5840 -31.5721 -31.5710
    -8.7981  -8.0331  -8.0285  -8.0281   3.9932   4.0022   4.0025   5.0814
     5.8375   5.8436   5.8464   6.7036   6.7037   6.7236   7.3536   7.3691

          k = 0.2496 0.2496-0.5000 (  5132 PWs)   bands (ev):

   -64.8287 -64.8283 -64.8262 -64.8256 -31.6288 -31.6287 -31.6205 -31.6204
   -31.5917 -31.5915 -31.5809 -31.5809 -31.5789 -31.5787 -31.5771 -31.5770
    -8.4011  -8.4009  -7.9950  -7.9949   3.8250   3.8252   4.1896   4.1897
     5.8255   5.8255   6.7384   6.7386   6.8666   6.8669   7.0319   7.0320

          k = 0.2509-0.5004 0.0000 (  5152 PWs)   bands (ev):

   -64.8292 -64.8288 -64.8258 -64.8252 -31.6188 -31.6158 -31.6114 -31.6087
   -31.6069 -31.6066 -31.5851 -31.5848 -31.5845 -31.5830 -31.5762 -31.5746
    -8.5124  -8.5067  -7.9500  -7.9438   4.4146   4.4223   4.7496   4.7529
     5.0931   5.0994   6.5355   6.5605   6.5713   6.5803   7.0848   7.1035

          k = 0.2509-0.5004 0.2500 (  5135 PWs)   bands (ev):

   -64.8287 -64.8283 -64.8263 -64.8256 -31.6285 -31.6272 -31.6220 -31.6199
   -31.5930 -31.5927 -31.5811 -31.5802 -31.5788 -31.5781 -31.5774 -31.5766
    -8.4019  -8.3962  -8.0002  -7.9941   3.8152   3.8278   4.1933   4.2026
     5.8275   5.8332   6.7313   6.7494   6.8624   6.8749   7.0134   7.0190

          k = 0.2509-0.5004-0.5000 (  5140 PWs)   bands (ev):

   -64.8275 -64.8275 -64.8274 -64.8264 -31.6325 -31.6324 -31.6306 -31.6305
   -31.5835 -31.5833 -31.5825 -31.5824 -31.5755 -31.5754 -31.5751 -31.5750
    -8.1710  -8.1709  -8.1647  -8.1646   3.6333   3.6334   3.6472   3.6474
     6.5144   6.5145   6.5343   6.5345   7.0613   7.0615   7.0675   7.0676

          k = 0.2504-0.2504 0.0000 (  5157 PWs)   bands (ev):

   -64.8319 -64.8263 -64.8259 -64.8248 -31.6202 -31.6201 -31.6195 -31.6085
   -31.5943 -31.5942 -31.5942 -31.5871 -31.5870 -31.5869 -31.5754 -31.5673
    -8.9642  -8.0661  -8.0660  -7.8881   4.1623   4.1623   4.3306   5.0824
     5.8533   6.0525   6.0528   6.4887   6.4888   6.5649   7.1768   7.4930

          k = 0.2504-0.2504 0.2500 (  5156 PWs)   bands (ev):

   -64.8309 -64.8263 -64.8263 -64.8255 -31.6254 -31.6241 -31.6240 -31.6065
   -31.5949 -31.5946 -31.5943 -31.5840 -31.5840 -31.5833 -31.5716 -31.5704
    -8.7944  -8.0333  -8.0329  -8.0283   3.9983   3.9987   4.0076   5.0969
     5.8451   5.8479   5.8541   6.6875   6.7071   6.7072   7.3417   7.3571

          k = 0.2504-0.2504-0.5000 (  5144 PWs)   bands (ev):

   -64.8287 -64.8283 -64.8263 -64.8257 -31.6273 -31.6272 -31.6217 -31.6216
   -31.5944 -31.5941 -31.5805 -31.5804 -31.5784 -31.5783 -31.5769 -31.5767
    -8.3973  -8.3971  -7.9994  -7.9993   3.8178   3.8178   4.2062   4.2064
     5.8350   5.8352   6.7419   6.7420   6.8708   6.8709   7.0000   7.0002

          k =-0.4991-0.4991 0.0000 (  5196 PWs)   bands (ev):

   -64.8275 -64.8275 -64.8274 -64.8264 -31.6206 -31.6204 -31.6176 -31.6174
   -31.5974 -31.5973 -31.5972 -31.5970 -31.5763 -31.5761 -31.5758 -31.5756
    -8.2096  -8.2095  -8.2011  -8.2010   4.2908   4.2909   4.2957   4.2958
     5.7618   5.7620   5.7723   5.7726   7.0489   7.0491   7.0781   7.0782

          k =-0.4991-0.4991 0.2500 (  5140 PWs)   bands (ev):

   -64.8275 -64.8275 -64.8274 -64.8264 -31.6324 -31.6322 -31.6307 -31.6305
   -31.5833 -31.5832 -31.5825 -31.5825 -31.5765 -31.5763 -31.5744 -31.5742
    -8.1721  -8.1720  -8.1636  -8.1635   3.6349   3.6350   3.6457   3.6458
     6.5227   6.5229   6.5258   6.5260   7.0501   7.0502   7.0787   7.0789

          k =-0.4991-0.4991-0.5000 (  5136 PWs)   bands (ev):

   -64.8275 -64.8275 -64.8274 -64.8264 -31.6403 -31.6402 -31.6387 -31.6386
   -31.5752 -31.5752 -31.5751 -31.5750 -31.5749 -31.5747 -31.5747 -31.5746
    -8.1340  -8.1339  -8.1255  -8.1254   3.2106   3.2107   3.2243   3.2244
     7.0507   7.0509   7.0649   7.0651   7.0655   7.0657   7.0799   7.0800

     highest occupied level (ev):     7.6854

!    total energy              =    -608.39281282 Ry
     Harris-Foulkes estimate   =    -608.39281282 Ry
     estimated scf accuracy    <          1.0E-08 Ry

     The total energy is the sum of the following terms:

     one-electron contribution =    -303.55760400 Ry
     hartree contribution      =     168.06813264 Ry
     xc contribution           =     -97.84644622 Ry
     ewald contribution        =    -375.05689524 Ry

     convergence has been achieved in   2 iterations

     Forces acting on atoms (cartesian axes, Ry/au):

     atom    1 type  1   force =    -0.00033448   -0.00033448    0.00000000
     atom    2 type  1   force =     0.00037914   -0.00035521    0.00000000
     atom    3 type  1   force =    -0.00035521    0.00037914    0.00000000
     atom    4 type  1   force =     0.00030077    0.00030077    0.00000000
     atom    5 type  2   force =    -0.00043332    0.00045094    0.00000000
     atom    6 type  2   force =     0.00045094   -0.00043332    0.00000000
     atom    7 type  2   force =    -0.00042609   -0.00042609    0.00000000
     atom    8 type  2   force =     0.00041825    0.00041825    0.00000000

     Total force =     0.001562     Total SCF correction =     0.000391
     SCF correction compared to forces is large: reduce conv_thr to get better values


     Computing stress (Cartesian axis) and pressure

          total   stress  (Ry/bohr**3)                   (kbar)     P=  -68.04
  -0.00046293  -0.00003514   0.00000000        -68.10     -5.17      0.00
  -0.00003514  -0.00046293   0.00000000         -5.17    -68.10      0.00
   0.00000000   0.00000000  -0.00046181          0.00      0.00    -67.93


     number of scf cycles    =   2
     number of bfgs steps    =   1

     energy   old            =    -608.3928094344 Ry
     energy   new            =    -608.3928128155 Ry

     CASE: energy  _new < energy  _old


     WARNING: bfgs curvature condition failed, Theta= 0.977
     new trust radius        =       0.0008481564 bohr
     new conv_thr            =            1.0E-10 Ry


ATOMIC_POSITIONS (alat)
Mg      -0.000107675  -0.000107675   0.000000000
Mg       0.000121802   0.499886925   0.500000000
Mg       0.499886925   0.000121802   0.500000000
Mg       0.500095249   0.500095249   0.000000000
O        0.499861266   0.000145820   0.000000000
O        0.000145820   0.499861266   0.000000000
O       -0.000136549  -0.000136549   0.500000000
O        0.500133161   0.500133161   0.500000000



     Writing output data file MgO.0.003571.70.4.save
     NEW-OLD atomic charge density approx. for the potential

     Check: negative/imaginary core charge=   -0.000007    0.000000

     total cpu time spent up to now is       12.7 secs

     per-process dynamical memory:    52.8 Mb

     Self-consistent Calculation

     iteration #  1     ecut=    70.00 Ry     beta=0.70
     Davidson diagonalization with overlap
     ethr =  1.00E-06,  avg # of iterations =  2.0

     Threshold (ethr) on eigenvalues was too large:
     Diagonalizing with lowered threshold

     Davidson diagonalization with overlap
     ethr =  3.89E-10,  avg # of iterations =  3.0

     total cpu time spent up to now is       14.8 secs

     total energy              =    -608.39281591 Ry
     Harris-Foulkes estimate   =    -608.39281612 Ry
     estimated scf accuracy    <       0.00000034 Ry

     iteration #  2     ecut=    70.00 Ry     beta=0.70
     Davidson diagonalization with overlap
     ethr =  5.37E-10,  avg # of iterations =  2.2

     total cpu time spent up to now is       15.7 secs

     total energy              =    -608.39281597 Ry
     Harris-Foulkes estimate   =    -608.39281599 Ry
     estimated scf accuracy    <       0.00000004 Ry

     iteration #  3     ecut=    70.00 Ry     beta=0.70
     Davidson diagonalization with overlap
     ethr =  6.65E-11,  avg # of iterations =  3.0

     total cpu time spent up to now is       16.6 secs

     total energy              =    -608.39281598 Ry
     Harris-Foulkes estimate   =    -608.39281599 Ry
     estimated scf accuracy    <       0.00000003 Ry

     iteration #  4     ecut=    70.00 Ry     beta=0.70
     Davidson diagonalization with overlap
     ethr =  4.75E-11,  avg # of iterations =  2.5

     total cpu time spent up to now is       17.5 secs

     total energy              =    -608.39281598 Ry
     Harris-Foulkes estimate   =    -608.39281598 Ry
     estimated scf accuracy    <          5.8E-10 Ry

     iteration #  5     ecut=    70.00 Ry     beta=0.70
     Davidson diagonalization with overlap
     ethr =  9.12E-13,  avg # of iterations =  2.8

     total cpu time spent up to now is       18.4 secs

     End of self-consistent calculation

          k = 0.0000 0.0000 0.0000 (  5145 PWs)   bands (ev):

   -64.8346 -64.8251 -64.8251 -64.8243 -31.6311 -31.6310 -31.6310 -31.5943
   -31.5935 -31.5934 -31.5934 -31.5934 -31.5926 -31.5646 -31.5637 -31.5635
    -9.3646  -7.9138  -7.9136  -7.9136   3.7581   3.7582   3.7582   6.3593
     6.3799   6.3801   6.3801   6.3803   6.4009   7.6594   7.6725   7.6854

          k = 0.0000 0.0000 0.2500 (  5157 PWs)   bands (ev):

   -64.8331 -64.8263 -64.8251 -64.8245 -31.6243 -31.6243 -31.6205 -31.5981
   -31.5981 -31.5940 -31.5940 -31.5900 -31.5882 -31.5782 -31.5725 -31.5705
    -9.1562  -8.1286  -7.8852  -7.8851   4.0486   4.0487   4.0956   5.8581
     5.8582   6.1705   6.1709   6.5229   6.5627   6.6589   7.4359   7.4648

          k = 0.0000 0.0000-0.5000 (  5110 PWs)   bands (ev):

   -64.8299 -64.8295 -64.8251 -64.8245 -31.6113 -31.6110 -31.6076 -31.6074
   -31.6020 -31.6020 -31.5908 -31.5907 -31.5816 -31.5813 -31.5797 -31.5794
    -8.6460  -8.6458  -7.8564  -7.8563   4.8455   4.8456   4.8503   4.8504
     5.1227   5.1230   5.9734   5.9738   6.9509   6.9510   6.9859   6.9860

          k =-0.0004 0.2500 0.0000 (  5159 PWs)   bands (ev):

   -64.8331 -64.8263 -64.8251 -64.8245 -31.6245 -31.6244 -31.6206 -31.5984
   -31.5984 -31.5939 -31.5935 -31.5891 -31.5890 -31.5784 -31.5715 -31.5713
    -9.1562  -8.1285  -7.8853  -7.8852   4.0484   4.0485   4.0955   5.8572
     5.8582   6.1707   6.1718   6.5428   6.5431   6.6588   7.4502   7.4504

          k =-0.0004 0.2500 0.2500 (  5157 PWs)   bands (ev):

   -64.8319 -64.8263 -64.8259 -64.8249 -31.6213 -31.6208 -31.6197 -31.6071
   -31.5941 -31.5939 -31.5930 -31.5879 -31.5866 -31.5865 -31.5755 -31.5684
    -8.9660  -8.0648  -8.0629  -7.8902   4.1598   4.1630   4.3287   5.0714
     5.8470   6.0530   6.0578   6.4840   6.4863   6.5835   7.1733   7.5057

          k =-0.0004 0.2500-0.5000 (  5152 PWs)   bands (ev):

   -64.8292 -64.8288 -64.8258 -64.8252 -31.6175 -31.6174 -31.6101 -31.6101
   -31.6068 -31.6065 -31.5851 -31.5849 -31.5838 -31.5837 -31.5754 -31.5753
    -8.5096  -8.5095  -7.9469  -7.9468   4.4184   4.4185   4.7511   4.7513
     5.0962   5.0964   6.5478   6.5481   6.5756   6.5757   7.0943   7.0944

          k = 0.0009-0.5000 0.0000 (  5110 PWs)   bands (ev):

   -64.8299 -64.8295 -64.8251 -64.8245 -31.6096 -31.6095 -31.6093 -31.6092
   -31.6021 -31.6020 -31.5907 -31.5906 -31.5806 -31.5805 -31.5804 -31.5803
    -8.6459  -8.6458  -7.8565  -7.8564   4.8478   4.8479   4.8480   4.8481
     5.1227   5.1230   5.9735   5.9739   6.9683   6.9684   6.9684   6.9684

          k = 0.0009-0.5000 0.2500 (  5154 PWs)   bands (ev):

   -64.8292 -64.8288 -64.8258 -64.8252 -31.6175 -31.6173 -31.6101 -31.6101
   -31.6069 -31.6067 -31.5851 -31.5848 -31.5839 -31.5839 -31.5755 -31.5753
    -8.5096  -8.5095  -7.9469  -7.9468   4.4183   4.4184   4.7511   4.7514
     5.0963   5.0964   6.5478   6.5480   6.5758   6.5759   7.0941   7.0942

          k = 0.0009-0.5000-0.5000 (  5204 PWs)   bands (ev):

   -64.8275 -64.8275 -64.8275 -64.8265 -31.6194 -31.6192 -31.6191 -31.6191
   -31.5973 -31.5970 -31.5969 -31.5967 -31.5767 -31.5765 -31.5764 -31.5763
    -8.2066  -8.2065  -8.2040  -8.2040   4.2909   4.2910   4.2956   4.2958
     5.7643   5.7644   5.7705   5.7706   7.0619   7.0621   7.0647   7.0648

          k = 0.2496 0.2496 0.0000 (  5161 PWs)   bands (ev):

   -64.8320 -64.8263 -64.8259 -64.8249 -31.6219 -31.6217 -31.6195 -31.6059
   -31.5945 -31.5944 -31.5917 -31.5888 -31.5862 -31.5860 -31.5755 -31.5696
    -8.9678  -8.0616  -8.0615  -7.8924   4.1607   4.1607   4.3268   5.0603
     5.8409   6.0581   6.0585   6.4809   6.4809   6.6021   7.1698   7.5183

          k = 0.2496 0.2496 0.2500 (  5150 PWs)   bands (ev):

   -64.8310 -64.8263 -64.8263 -64.8255 -31.6262 -31.6260 -31.6247 -31.6055
   -31.5929 -31.5927 -31.5925 -31.5847 -31.5840 -31.5840 -31.5721 -31.5710
    -8.7980  -8.0330  -8.0284  -8.0283   3.9934   4.0021   4.0024   5.0814
     5.8382   5.8437   5.8456   6.7036   6.7038   6.7236   7.3536   7.3692

          k = 0.2496 0.2496-0.5000 (  5132 PWs)   bands (ev):

   -64.8287 -64.8283 -64.8263 -64.8256 -31.6289 -31.6287 -31.6205 -31.6204
   -31.5918 -31.5915 -31.5810 -31.5809 -31.5789 -31.5787 -31.5771 -31.5770
    -8.4010  -8.4009  -7.9950  -7.9949   3.8251   3.8252   4.1896   4.1897
     5.8255   5.8256   6.7385   6.7387   6.8667   6.8669   7.0320   7.0320

          k = 0.2509-0.5004 0.0000 (  5152 PWs)   bands (ev):

   -64.8292 -64.8288 -64.8258 -64.8252 -31.6188 -31.6158 -31.6115 -31.6087
   -31.6069 -31.6067 -31.5851 -31.5849 -31.5845 -31.5830 -31.5762 -31.5746
    -8.5124  -8.5067  -7.9500  -7.9437   4.4146   4.4223   4.7496   4.7529
     5.0931   5.0994   6.5355   6.5605   6.5713   6.5803   7.0848   7.1036

          k = 0.2509-0.5004 0.2500 (  5135 PWs)   bands (ev):

   -64.8287 -64.8283 -64.8263 -64.8257 -31.6285 -31.6273 -31.6220 -31.6199
   -31.5930 -31.5927 -31.5811 -31.5802 -31.5788 -31.5781 -31.5774 -31.5766
    -8.4019  -8.3962  -8.0002  -7.9941   3.8152   3.8278   4.1933   4.2027
     5.8276   5.8332   6.7313   6.7494   6.8625   6.8749   7.0135   7.0190

          k = 0.2509-0.5004-0.5000 (  5140 PWs)   bands (ev):

   -64.8275 -64.8275 -64.8275 -64.8265 -31.6325 -31.6324 -31.6306 -31.6305
   -31.5835 -31.5833 -31.5826 -31.5824 -31.5755 -31.5754 -31.5751 -31.5750
    -8.1708  -8.1707  -8.1648  -8.1647   3.6335   3.6336   3.6472   3.6473
     6.5146   6.5147   6.5342   6.5343   7.0614   7.0616   7.0674   7.0675

          k = 0.2504-0.2504 0.0000 (  5157 PWs)   bands (ev):

   -64.8319 -64.8263 -64.8259 -64.8248 -31.6202 -31.6201 -31.6196 -31.6085
   -31.5943 -31.5943 -31.5942 -31.5871 -31.5870 -31.5869 -31.5754 -31.5674
    -8.9642  -8.0661  -8.0660  -7.8881   4.1623   4.1624   4.3306   5.0824
     5.8533   6.0525   6.0529   6.4888   6.4888   6.5650   7.1769   7.4930

          k = 0.2504-0.2504 0.2500 (  5156 PWs)   bands (ev):

   -64.8309 -64.8263 -64.8263 -64.8255 -31.6254 -31.6241 -31.6240 -31.6065
   -31.5948 -31.5946 -31.5944 -31.5841 -31.5840 -31.5833 -31.5716 -31.5704
    -8.7943  -8.0331  -8.0329  -8.0284   3.9985   3.9988   4.0075   5.0970
     5.8459   5.8479   5.8534   6.6875   6.7071   6.7073   7.3417   7.3571

          k = 0.2504-0.2504-0.5000 (  5144 PWs)   bands (ev):

   -64.8287 -64.8283 -64.8263 -64.8257 -31.6273 -31.6272 -31.6217 -31.6216
   -31.5944 -31.5941 -31.5805 -31.5804 -31.5784 -31.5784 -31.5770 -31.5767
    -8.3972  -8.3971  -7.9993  -7.9992   3.8178   3.8178   4.2062   4.2064
     5.8351   5.8351   6.7419   6.7421   6.8708   6.8709   7.0001   7.0002

          k =-0.4991-0.4991 0.0000 (  5196 PWs)   bands (ev):

   -64.8276 -64.8275 -64.8274 -64.8265 -31.6206 -31.6204 -31.6176 -31.6174
   -31.5974 -31.5973 -31.5972 -31.5970 -31.5763 -31.5761 -31.5758 -31.5756
    -8.2096  -8.2095  -8.2011  -8.2010   4.2909   4.2910   4.2957   4.2958
     5.7618   5.7621   5.7723   5.7726   7.0490   7.0490   7.0781   7.0782

          k =-0.4991-0.4991 0.2500 (  5140 PWs)   bands (ev):

   -64.8276 -64.8275 -64.8274 -64.8265 -31.6324 -31.6322 -31.6307 -31.6305
   -31.5833 -31.5832 -31.5825 -31.5825 -31.5765 -31.5763 -31.5745 -31.5742
    -8.1720  -8.1719  -8.1636  -8.1635   3.6349   3.6350   3.6457   3.6458
     6.5227   6.5229   6.5258   6.5261   7.0502   7.0502   7.0788   7.0789

          k =-0.4991-0.4991-0.5000 (  5136 PWs)   bands (ev):

   -64.8275 -64.8275 -64.8274 -64.8264 -31.6403 -31.6402 -31.6387 -31.6386
   -31.5753 -31.5752 -31.5751 -31.5750 -31.5749 -31.5747 -31.5747 -31.5746
    -8.1339  -8.1339  -8.1255  -8.1254   3.2107   3.2107   3.2243   3.2244
     7.0508   7.0508   7.0649   7.0651   7.0655   7.0657   7.0800   7.0800

     highest occupied level (ev):     7.6854

!    total energy              =    -608.39281598 Ry
     Harris-Foulkes estimate   =    -608.39281598 Ry
     estimated scf accuracy    <          6.2E-11 Ry

     The total energy is the sum of the following terms:

     one-electron contribution =    -303.55760774 Ry
     hartree contribution      =     168.06807909 Ry
     xc contribution           =     -97.84641867 Ry
     ewald contribution        =    -375.05686866 Ry

     convergence has been achieved in   5 iterations

     Forces acting on atoms (cartesian axes, Ry/au):

     atom    1 type  1   force =    -0.00031252   -0.00031252    0.00000000
     atom    2 type  1   force =     0.00033999   -0.00033173    0.00000000
     atom    3 type  1   force =    -0.00033173    0.00033999    0.00000000
     atom    4 type  1   force =     0.00030181    0.00030181    0.00000000
     atom    5 type  2   force =    -0.00035602    0.00036137    0.00000000
     atom    6 type  2   force =     0.00036137   -0.00035602    0.00000000
     atom    7 type  2   force =    -0.00034868   -0.00034868    0.00000000
     atom    8 type  2   force =     0.00034579    0.00034579    0.00000000

     Total force =     0.001351     Total SCF correction =     0.000009


     Computing stress (Cartesian axis) and pressure

          total   stress  (Ry/bohr**3)                   (kbar)     P=  -68.07
  -0.00046308  -0.00003514   0.00000000        -68.12     -5.17      0.00
  -0.00003514  -0.00046308   0.00000000         -5.17    -68.12      0.00
   0.00000000   0.00000000  -0.00046195          0.00      0.00    -67.95


     number of scf cycles    =   3
     number of bfgs steps    =   2

     energy   old            =    -608.3928128155 Ry
     energy   new            =    -608.3928159834 Ry

     CASE: energy  _new < energy  _old

     new trust radius        =       0.0012722346 bohr
     new conv_thr            =            1.0E-10 Ry


ATOMIC_POSITIONS (alat)
Mg      -0.000201341  -0.000201341   0.000000000
Mg       0.000224820   0.499787539   0.500000000
Mg       0.499787539   0.000224820   0.500000000
Mg       0.500183994   0.500183994   0.000000000
O        0.499750718   0.000258908   0.000000000
O        0.000258908   0.499750718   0.000000000
O       -0.000244949  -0.000244949   0.500000000
O        0.500240309   0.500240309   0.500000000



     Writing output data file MgO.0.003571.70.4.save
     NEW-OLD atomic charge density approx. for the potential

     Check: negative/imaginary core charge=   -0.000007    0.000000

     total cpu time spent up to now is       19.1 secs

     per-process dynamical memory:    52.8 Mb

     Self-consistent Calculation

     iteration #  1     ecut=    70.00 Ry     beta=0.70
     Davidson diagonalization with overlap
     ethr =  1.00E-06,  avg # of iterations =  2.6

     Threshold (ethr) on eigenvalues was too large:
     Diagonalizing with lowered threshold

     Davidson diagonalization with overlap
     ethr =  7.76E-10,  avg # of iterations =  3.1

     total cpu time spent up to now is       21.2 secs

     total energy              =    -608.39281960 Ry
     Harris-Foulkes estimate   =    -608.39281997 Ry
     estimated scf accuracy    <       0.00000065 Ry

     iteration #  2     ecut=    70.00 Ry     beta=0.70
     Davidson diagonalization with overlap
     ethr =  1.01E-09,  avg # of iterations =  2.0

     total cpu time spent up to now is       22.0 secs

     total energy              =    -608.39281972 Ry
     Harris-Foulkes estimate   =    -608.39281972 Ry
     estimated scf accuracy    <       0.00000002 Ry

     iteration #  3     ecut=    70.00 Ry     beta=0.70
     Davidson diagonalization with overlap
     ethr =  2.54E-11,  avg # of iterations =  2.0

     total cpu time spent up to now is       22.9 secs

     total energy              =    -608.39281972 Ry
     Harris-Foulkes estimate   =    -608.39281972 Ry
     estimated scf accuracy    <          1.1E-09 Ry

     iteration #  4     ecut=    70.00 Ry     beta=0.70
     Davidson diagonalization with overlap
     ethr =  1.69E-12,  avg # of iterations =  2.2

     total cpu time spent up to now is       23.8 secs

     total energy              =    -608.39281972 Ry
     Harris-Foulkes estimate   =    -608.39281972 Ry
     estimated scf accuracy    <          2.0E-10 Ry

     iteration #  5     ecut=    70.00 Ry     beta=0.70
     Davidson diagonalization with overlap
     ethr =  3.08E-13,  avg # of iterations =  2.8

     total cpu time spent up to now is       24.7 secs

     End of self-consistent calculation

          k = 0.0000 0.0000 0.0000 (  5145 PWs)   bands (ev):

   -64.8346 -64.8251 -64.8251 -64.8243 -31.6311 -31.6310 -31.6310 -31.5943
   -31.5935 -31.5934 -31.5934 -31.5934 -31.5926 -31.5646 -31.5637 -31.5635
    -9.3646  -7.9138  -7.9136  -7.9136   3.7581   3.7582   3.7582   6.3593
     6.3800   6.3801   6.3801   6.3803   6.4010   7.6594   7.6725   7.6855

          k = 0.0000 0.0000 0.2500 (  5157 PWs)   bands (ev):

   -64.8332 -64.8263 -64.8251 -64.8245 -31.6243 -31.6243 -31.6205 -31.5981
   -31.5981 -31.5940 -31.5940 -31.5900 -31.5882 -31.5782 -31.5725 -31.5705
    -9.1562  -8.1286  -7.8852  -7.8851   4.0486   4.0487   4.0955   5.8581
     5.8582   6.1706   6.1709   6.5229   6.5627   6.6589   7.4359   7.4648

          k = 0.0000 0.0000-0.5000 (  5110 PWs)   bands (ev):

   -64.8299 -64.8295 -64.8251 -64.8245 -31.6113 -31.6110 -31.6076 -31.6074
   -31.6020 -31.6020 -31.5908 -31.5907 -31.5816 -31.5813 -31.5797 -31.5794
    -8.6460  -8.6458  -7.8564  -7.8563   4.8456   4.8456   4.8504   4.8504
     5.1227   5.1230   5.9735   5.9738   6.9509   6.9510   6.9859   6.9860

          k =-0.0004 0.2500 0.0000 (  5159 PWs)   bands (ev):

   -64.8332 -64.8263 -64.8251 -64.8245 -31.6245 -31.6244 -31.6206 -31.5984
   -31.5984 -31.5939 -31.5935 -31.5891 -31.5890 -31.5784 -31.5715 -31.5713
    -9.1562  -8.1285  -7.8853  -7.8852   4.0484   4.0485   4.0955   5.8573
     5.8582   6.1707   6.1717   6.5428   6.5431   6.6589   7.4503   7.4505

          k =-0.0004 0.2500 0.2500 (  5157 PWs)   bands (ev):

   -64.8319 -64.8263 -64.8259 -64.8249 -31.6213 -31.6208 -31.6197 -31.6071
   -31.5941 -31.5940 -31.5930 -31.5879 -31.5866 -31.5865 -31.5755 -31.5684
    -8.9660  -8.0644  -8.0632  -7.8902   4.1604   4.1624   4.3287   5.0714
     5.8470   6.0539   6.0570   6.4844   6.4859   6.5835   7.1733   7.5057

          k =-0.0004 0.2500-0.5000 (  5152 PWs)   bands (ev):

   -64.8292 -64.8288 -64.8258 -64.8252 -31.6175 -31.6174 -31.6101 -31.6101
   -31.6068 -31.6065 -31.5851 -31.5849 -31.5838 -31.5837 -31.5755 -31.5753
    -8.5096  -8.5095  -7.9469  -7.9468   4.4184   4.4185   4.7511   4.7513
     5.0962   5.0964   6.5478   6.5481   6.5756   6.5758   7.0943   7.0944

          k = 0.0009-0.5000 0.0000 (  5110 PWs)   bands (ev):

   -64.8299 -64.8295 -64.8251 -64.8245 -31.6096 -31.6095 -31.6093 -31.6092
   -31.6021 -31.6020 -31.5907 -31.5906 -31.5806 -31.5805 -31.5804 -31.5803
    -8.6460  -8.6458  -7.8565  -7.8564   4.8478   4.8479   4.8481   4.8481
     5.1227   5.1230   5.9735   5.9739   6.9683   6.9683   6.9685   6.9685

          k = 0.0009-0.5000 0.2500 (  5154 PWs)   bands (ev):

   -64.8292 -64.8288 -64.8258 -64.8252 -31.6175 -31.6173 -31.6101 -31.6101
   -31.6069 -31.6067 -31.5851 -31.5848 -31.5839 -31.5839 -31.5755 -31.5753
    -8.5096  -8.5094  -7.9469  -7.9468   4.4183   4.4185   4.7511   4.7514
     5.0962   5.0965   6.5478   6.5480   6.5758   6.5760   7.0941   7.0942

          k = 0.0009-0.5000-0.5000 (  5204 PWs)   bands (ev):

   -64.8275 -64.8275 -64.8275 -64.8265 -31.6194 -31.6192 -31.6191 -31.6191
   -31.5972 -31.5970 -31.5970 -31.5967 -31.5767 -31.5765 -31.5764 -31.5764
    -8.2062  -8.2060  -8.2045  -8.2045   4.2918   4.2919   4.2947   4.2949
     5.7654   5.7656   5.7694   5.7696   7.0625   7.0626   7.0642   7.0643

          k = 0.2496 0.2496 0.0000 (  5161 PWs)   bands (ev):

   -64.8320 -64.8263 -64.8259 -64.8249 -31.6219 -31.6217 -31.6195 -31.6059
   -31.5945 -31.5944 -31.5917 -31.5888 -31.5862 -31.5860 -31.5755 -31.5696
    -8.9678  -8.0616  -8.0615  -7.8924   4.1607   4.1607   4.3268   5.0603
     5.8409   6.0581   6.0585   6.4809   6.4809   6.6021   7.1698   7.5183

          k = 0.2496 0.2496 0.2500 (  5150 PWs)   bands (ev):

   -64.8310 -64.8263 -64.8263 -64.8255 -31.6262 -31.6260 -31.6247 -31.6055
   -31.5929 -31.5927 -31.5925 -31.5847 -31.5840 -31.5840 -31.5721 -31.5710
    -8.7980  -8.0328  -8.0284  -8.0284   3.9936   4.0022   4.0022   5.0814
     5.8393   5.8437   5.8446   6.7036   6.7038   6.7236   7.3536   7.3692

          k = 0.2496 0.2496-0.5000 (  5132 PWs)   bands (ev):

   -64.8287 -64.8283 -64.8263 -64.8256 -31.6289 -31.6287 -31.6205 -31.6204
   -31.5918 -31.5915 -31.5810 -31.5809 -31.5789 -31.5787 -31.5771 -31.5770
    -8.4010  -8.4009  -7.9949  -7.9949   3.8251   3.8252   4.1896   4.1897
     5.8255   5.8256   6.7385   6.7387   6.8667   6.8669   7.0320   7.0320

          k = 0.2509-0.5004 0.0000 (  5152 PWs)   bands (ev):

   -64.8292 -64.8288 -64.8258 -64.8252 -31.6188 -31.6158 -31.6115 -31.6087
   -31.6069 -31.6067 -31.5851 -31.5849 -31.5845 -31.5830 -31.5762 -31.5746
    -8.5124  -8.5067  -7.9500  -7.9437   4.4146   4.4223   4.7496   4.7529
     5.0931   5.0995   6.5355   6.5605   6.5713   6.5803   7.0848   7.1036

          k = 0.2509-0.5004 0.2500 (  5135 PWs)   bands (ev):

   -64.8287 -64.8283 -64.8263 -64.8257 -31.6285 -31.6273 -31.6220 -31.6199
   -31.5930 -31.5927 -31.5811 -31.5802 -31.5788 -31.5781 -31.5774 -31.5766
    -8.4019  -8.3962  -8.0002  -7.9940   3.8153   3.8278   4.1933   4.2027
     5.8276   5.8332   6.7313   6.7494   6.8625   6.8749   7.0135   7.0190

          k = 0.2509-0.5004-0.5000 (  5140 PWs)   bands (ev):

   -64.8275 -64.8275 -64.8275 -64.8265 -31.6325 -31.6324 -31.6307 -31.6305
   -31.5835 -31.5833 -31.5826 -31.5824 -31.5755 -31.5754 -31.5751 -31.5750
    -8.1707  -8.1706  -8.1648  -8.1647   3.6336   3.6337   3.6470   3.6471
     6.5148   6.5149   6.5341   6.5341   7.0615   7.0617   7.0673   7.0675

          k = 0.2504-0.2504 0.0000 (  5157 PWs)   bands (ev):

   -64.8319 -64.8263 -64.8259 -64.8248 -31.6202 -31.6201 -31.6196 -31.6085
   -31.5943 -31.5943 -31.5942 -31.5871 -31.5870 -31.5869 -31.5754 -31.5674
    -8.9642  -8.0661  -8.0660  -7.8881   4.1622   4.1624   4.3306   5.0824
     5.8533   6.0525   6.0529   6.4888   6.4888   6.5650   7.1769   7.4930

          k = 0.2504-0.2504 0.2500 (  5156 PWs)   bands (ev):

   -64.8309 -64.8263 -64.8263 -64.8255 -31.6254 -31.6241 -31.6240 -31.6065
   -31.5948 -31.5947 -31.5944 -31.5841 -31.5840 -31.5833 -31.5716 -31.5704
    -8.7943  -8.0329  -8.0329  -8.0285   3.9987   3.9988   4.0073   5.0970
     5.8470   5.8479   5.8523   6.6875   6.7071   6.7073   7.3417   7.3571

          k = 0.2504-0.2504-0.5000 (  5144 PWs)   bands (ev):

   -64.8287 -64.8283 -64.8263 -64.8257 -31.6274 -31.6272 -31.6217 -31.6216
   -31.5944 -31.5941 -31.5805 -31.5804 -31.5784 -31.5784 -31.5770 -31.5767
    -8.3972  -8.3971  -7.9993  -7.9992   3.8178   3.8178   4.2062   4.2064
     5.8351   5.8351   6.7419   6.7421   6.8708   6.8709   7.0001   7.0002

          k =-0.4991-0.4991 0.0000 (  5196 PWs)   bands (ev):

   -64.8276 -64.8275 -64.8274 -64.8265 -31.6206 -31.6204 -31.6176 -31.6174
   -31.5974 -31.5973 -31.5972 -31.5970 -31.5763 -31.5761 -31.5758 -31.5756
    -8.2096  -8.2095  -8.2011  -8.2010   4.2908   4.2910   4.2957   4.2958
     5.7618   5.7622   5.7723   5.7726   7.0490   7.0490   7.0781   7.0782

          k =-0.4991-0.4991 0.2500 (  5140 PWs)   bands (ev):

   -64.8276 -64.8275 -64.8274 -64.8265 -31.6324 -31.6322 -31.6307 -31.6305
   -31.5833 -31.5832 -31.5825 -31.5825 -31.5765 -31.5763 -31.5745 -31.5742
    -8.1720  -8.1719  -8.1636  -8.1635   3.6349   3.6350   3.6457   3.6458
     6.5227   6.5230   6.5258   6.5261   7.0502   7.0502   7.0788   7.0789

          k =-0.4991-0.4991-0.5000 (  5136 PWs)   bands (ev):

   -64.8275 -64.8275 -64.8274 -64.8265 -31.6403 -31.6402 -31.6387 -31.6386
   -31.5753 -31.5752 -31.5751 -31.5750 -31.5749 -31.5747 -31.5747 -31.5747
    -8.1339  -8.1339  -8.1254  -8.1254   3.2107   3.2107   3.2243   3.2244
     7.0508   7.0508   7.0649   7.0651   7.0655   7.0657   7.0800   7.0800

     highest occupied level (ev):     7.6855

!    total energy              =    -608.39281972 Ry
     Harris-Foulkes estimate   =    -608.39281972 Ry
     estimated scf accuracy    <          1.6E-11 Ry

     The total energy is the sum of the following terms:

     one-electron contribution =    -303.55764831 Ry
     hartree contribution      =     168.06807305 Ry
     xc contribution           =     -97.84640604 Ry
     ewald contribution        =    -375.05683842 Ry

     convergence has been achieved in   5 iterations

     Forces acting on atoms (cartesian axes, Ry/au):

     atom    1 type  1   force =    -0.00021921   -0.00021921    0.00000000
     atom    2 type  1   force =     0.00023172   -0.00024251    0.00000000
     atom    3 type  1   force =    -0.00024251    0.00023172    0.00000000
     atom    4 type  1   force =     0.00023751    0.00023751    0.00000000
     atom    5 type  2   force =    -0.00022349    0.00021322    0.00000000
     atom    6 type  2   force =     0.00021322   -0.00022349    0.00000000
     atom    7 type  2   force =    -0.00021588   -0.00021588    0.00000000
     atom    8 type  2   force =     0.00021863    0.00021863    0.00000000

     Total force =     0.000902     Total SCF correction =     0.000010


     Computing stress (Cartesian axis) and pressure

          total   stress  (Ry/bohr**3)                   (kbar)     P=  -68.07
  -0.00046314  -0.00003514   0.00000000        -68.13     -5.17      0.00
  -0.00003514  -0.00046314   0.00000000         -5.17    -68.13      0.00
   0.00000000   0.00000000  -0.00046200          0.00      0.00    -67.96


     number of scf cycles    =   4
     number of bfgs steps    =   3

     energy   old            =    -608.3928159834 Ry
     energy   new            =    -608.3928197177 Ry

     CASE: energy  _new < energy  _old

     new trust radius        =       0.0019083519 bohr
     new conv_thr            =            1.0E-10 Ry


ATOMIC_POSITIONS (alat)
Mg      -0.000349784  -0.000349784   0.000000000
Mg       0.000386169   0.499627197   0.500000000
Mg       0.499627197   0.000386169   0.500000000
Mg       0.500332041   0.500332041   0.000000000
O        0.499582983   0.000426649   0.000000000
O        0.000426649   0.499582983   0.000000000
O       -0.000408569  -0.000408569   0.500000000
O        0.500403314   0.500403314   0.500000000



     Writing output data file MgO.0.003571.70.4.save
     NEW-OLD atomic charge density approx. for the potential

     Check: negative/imaginary core charge=   -0.000007    0.000000

     total cpu time spent up to now is       25.3 secs

     per-process dynamical memory:    52.8 Mb

     Self-consistent Calculation

     iteration #  1     ecut=    70.00 Ry     beta=0.70
     Davidson diagonalization with overlap
     ethr =  1.00E-06,  avg # of iterations =  3.0

     Threshold (ethr) on eigenvalues was too large:
     Diagonalizing with lowered threshold

     Davidson diagonalization with overlap
     ethr =  2.21E-09,  avg # of iterations =  2.5

     total cpu time spent up to now is       27.3 secs

     total energy              =    -608.39282231 Ry
     Harris-Foulkes estimate   =    -608.39282310 Ry
     estimated scf accuracy    <       0.00000143 Ry

     iteration #  2     ecut=    70.00 Ry     beta=0.70
     Davidson diagonalization with overlap
     ethr =  2.23E-09,  avg # of iterations =  2.0

     total cpu time spent up to now is       28.2 secs

     total energy              =    -608.39282255 Ry
     Harris-Foulkes estimate   =    -608.39282256 Ry
     estimated scf accuracy    <       0.00000004 Ry

     iteration #  3     ecut=    70.00 Ry     beta=0.70
     Davidson diagonalization with overlap
     ethr =  5.56E-11,  avg # of iterations =  2.0

     total cpu time spent up to now is       29.0 secs

     total energy              =    -608.39282256 Ry
     Harris-Foulkes estimate   =    -608.39282256 Ry
     estimated scf accuracy    <          2.4E-09 Ry

     iteration #  4     ecut=    70.00 Ry     beta=0.70
     Davidson diagonalization with overlap
     ethr =  3.71E-12,  avg # of iterations =  2.3

     total cpu time spent up to now is       29.9 secs

     total energy              =    -608.39282256 Ry
     Harris-Foulkes estimate   =    -608.39282256 Ry
     estimated scf accuracy    <          3.4E-10 Ry

     iteration #  5     ecut=    70.00 Ry     beta=0.70
     Davidson diagonalization with overlap
     ethr =  5.38E-13,  avg # of iterations =  3.0

     total cpu time spent up to now is       30.8 secs

     End of self-consistent calculation

          k = 0.0000 0.0000 0.0000 (  5145 PWs)   bands (ev):

   -64.8346 -64.8251 -64.8251 -64.8243 -31.6311 -31.6310 -31.6310 -31.5943
   -31.5935 -31.5934 -31.5934 -31.5933 -31.5926 -31.5646 -31.5637 -31.5635
    -9.3646  -7.9138  -7.9136  -7.9136   3.7581   3.7582   3.7582   6.3593
     6.3799   6.3801   6.3801   6.3803   6.4010   7.6594   7.6725   7.6855

          k = 0.0000 0.0000 0.2500 (  5157 PWs)   bands (ev):

   -64.8331 -64.8263 -64.8251 -64.8245 -31.6243 -31.6243 -31.6205 -31.5981
   -31.5981 -31.5940 -31.5940 -31.5900 -31.5882 -31.5782 -31.5725 -31.5705
    -9.1562  -8.1286  -7.8852  -7.8851   4.0487   4.0487   4.0955   5.8581
     5.8582   6.1706   6.1709   6.5229   6.5627   6.6589   7.4359   7.4648

          k = 0.0000 0.0000-0.5000 (  5110 PWs)   bands (ev):

   -64.8299 -64.8295 -64.8251 -64.8245 -31.6113 -31.6110 -31.6076 -31.6074
   -31.6020 -31.6019 -31.5908 -31.5907 -31.5816 -31.5813 -31.5797 -31.5794
    -8.6460  -8.6458  -7.8564  -7.8563   4.8456   4.8456   4.8504   4.8504
     5.1227   5.1229   5.9735   5.9738   6.9509   6.9510   6.9859   6.9860

          k =-0.0004 0.2500 0.0000 (  5159 PWs)   bands (ev):

   -64.8331 -64.8263 -64.8251 -64.8245 -31.6245 -31.6244 -31.6206 -31.5984
   -31.5984 -31.5939 -31.5935 -31.5891 -31.5890 -31.5784 -31.5715 -31.5713
    -9.1562  -8.1285  -7.8853  -7.8852   4.0484   4.0485   4.0955   5.8573
     5.8582   6.1707   6.1717   6.5428   6.5431   6.6588   7.4503   7.4504

          k =-0.0004 0.2500 0.2500 (  5157 PWs)   bands (ev):

   -64.8319 -64.8263 -64.8259 -64.8249 -31.6212 -31.6208 -31.6197 -31.6071
   -31.5941 -31.5940 -31.5930 -31.5879 -31.5866 -31.5865 -31.5755 -31.5684
    -8.9660  -8.0639  -8.0637  -7.8902   4.1612   4.1616   4.3287   5.0714
     5.8470   6.0551   6.0557   6.4848   6.4854   6.5835   7.1733   7.5057

          k =-0.0004 0.2500-0.5000 (  5152 PWs)   bands (ev):

   -64.8292 -64.8288 -64.8258 -64.8252 -31.6175 -31.6174 -31.6101 -31.6101
   -31.6068 -31.6065 -31.5851 -31.5849 -31.5838 -31.5837 -31.5754 -31.5753
    -8.5096  -8.5095  -7.9469  -7.9468   4.4184   4.4185   4.7511   4.7513
     5.0962   5.0964   6.5478   6.5481   6.5756   6.5757   7.0943   7.0944

          k = 0.0009-0.5000 0.0000 (  5110 PWs)   bands (ev):

   -64.8299 -64.8295 -64.8251 -64.8245 -31.6095 -31.6095 -31.6093 -31.6092
   -31.6021 -31.6020 -31.5907 -31.5906 -31.5806 -31.5805 -31.5804 -31.5803
    -8.6460  -8.6458  -7.8565  -7.8564   4.8477   4.8478   4.8481   4.8482
     5.1227   5.1230   5.9735   5.9738   6.9683   6.9683   6.9685   6.9685

          k = 0.0009-0.5000 0.2500 (  5154 PWs)   bands (ev):

   -64.8292 -64.8288 -64.8258 -64.8252 -31.6175 -31.6173 -31.6101 -31.6101
   -31.6069 -31.6067 -31.5851 -31.5848 -31.5839 -31.5838 -31.5755 -31.5753
    -8.5096  -8.5094  -7.9469  -7.9468   4.4183   4.4185   4.7511   4.7514
     5.0962   5.0965   6.5478   6.5480   6.5757   6.5760   7.0941   7.0942

          k = 0.0009-0.5000-0.5000 (  5204 PWs)   bands (ev):

   -64.8275 -64.8275 -64.8275 -64.8265 -31.6194 -31.6192 -31.6191 -31.6191
   -31.5972 -31.5970 -31.5970 -31.5967 -31.5767 -31.5765 -31.5764 -31.5764
    -8.2055  -8.2053  -8.2052  -8.2051   4.2931   4.2932   4.2934   4.2936
     5.7670   5.7673   5.7677   5.7679   7.0632   7.0633   7.0634   7.0637

          k = 0.2496 0.2496 0.0000 (  5161 PWs)   bands (ev):

   -64.8320 -64.8263 -64.8259 -64.8249 -31.6219 -31.6217 -31.6195 -31.6059
   -31.5944 -31.5944 -31.5917 -31.5888 -31.5862 -31.5860 -31.5755 -31.5696
    -8.9678  -8.0616  -8.0615  -7.8924   4.1607   4.1607   4.3268   5.0603
     5.8409   6.0581   6.0585   6.4809   6.4809   6.6021   7.1698   7.5183

          k = 0.2496 0.2496 0.2500 (  5150 PWs)   bands (ev):

   -64.8310 -64.8263 -64.8263 -64.8255 -31.6262 -31.6260 -31.6247 -31.6055
   -31.5928 -31.5927 -31.5925 -31.5847 -31.5840 -31.5840 -31.5721 -31.5710
    -8.7980  -8.0328  -8.0285  -8.0284   3.9937   4.0021   4.0021   5.0814
     5.8403   5.8436   5.8437   6.7036   6.7038   6.7236   7.3536   7.3692

          k = 0.2496 0.2496-0.5000 (  5132 PWs)   bands (ev):

   -64.8287 -64.8283 -64.8263 -64.8256 -31.6288 -31.6287 -31.6205 -31.6204
   -31.5917 -31.5915 -31.5809 -31.5809 -31.5789 -31.5787 -31.5771 -31.5770
    -8.4010  -8.4009  -7.9950  -7.9949   3.8251   3.8252   4.1896   4.1897
     5.8255   5.8256   6.7385   6.7387   6.8667   6.8668   7.0320   7.0320

          k = 0.2509-0.5004 0.0000 (  5152 PWs)   bands (ev):

   -64.8292 -64.8288 -64.8258 -64.8252 -31.6188 -31.6158 -31.6114 -31.6087
   -31.6069 -31.6067 -31.5851 -31.5849 -31.5845 -31.5830 -31.5762 -31.5746
    -8.5124  -8.5067  -7.9500  -7.9437   4.4146   4.4223   4.7496   4.7529
     5.0931   5.0995   6.5355   6.5605   6.5713   6.5803   7.0848   7.1035

          k = 0.2509-0.5004 0.2500 (  5135 PWs)   bands (ev):

   -64.8287 -64.8283 -64.8263 -64.8257 -31.6285 -31.6273 -31.6220 -31.6199
   -31.5930 -31.5927 -31.5811 -31.5802 -31.5788 -31.5781 -31.5774 -31.5766
    -8.4019  -8.3962  -8.0002  -7.9941   3.8153   3.8278   4.1933   4.2027
     5.8276   5.8332   6.7313   6.7494   6.8625   6.8749   7.0135   7.0190

          k = 0.2509-0.5004-0.5000 (  5140 PWs)   bands (ev):

   -64.8275 -64.8275 -64.8274 -64.8265 -31.6325 -31.6324 -31.6306 -31.6305
   -31.5835 -31.5833 -31.5826 -31.5824 -31.5755 -31.5754 -31.5751 -31.5750
    -8.1707  -8.1706  -8.1649  -8.1648   3.6337   3.6338   3.6469   3.6470
     6.5149   6.5150   6.5340   6.5340   7.0616   7.0617   7.0672   7.0674

          k = 0.2504-0.2504 0.0000 (  5157 PWs)   bands (ev):

   -64.8319 -64.8263 -64.8259 -64.8248 -31.6202 -31.6200 -31.6196 -31.6085
   -31.5943 -31.5942 -31.5942 -31.5871 -31.5870 -31.5869 -31.5754 -31.5674
    -8.9642  -8.0661  -8.0660  -7.8881   4.1622   4.1624   4.3306   5.0824
     5.8533   6.0525   6.0529   6.4888   6.4888   6.5650   7.1769   7.4930

          k = 0.2504-0.2504 0.2500 (  5156 PWs)   bands (ev):

   -64.8309 -64.8263 -64.8263 -64.8255 -31.6254 -31.6241 -31.6240 -31.6065
   -31.5948 -31.5947 -31.5944 -31.5841 -31.5840 -31.5833 -31.5716 -31.5704
    -8.7943  -8.0329  -8.0328  -8.0286   3.9987   3.9988   4.0072   5.0970
     5.8478   5.8480   5.8513   6.6875   6.7071   6.7073   7.3417   7.3571

          k = 0.2504-0.2504-0.5000 (  5144 PWs)   bands (ev):

   -64.8287 -64.8283 -64.8263 -64.8257 -31.6273 -31.6272 -31.6217 -31.6216
   -31.5944 -31.5941 -31.5805 -31.5804 -31.5784 -31.5783 -31.5770 -31.5767
    -8.3972  -8.3971  -7.9993  -7.9992   3.8178   3.8179   4.2062   4.2064
     5.8351   5.8352   6.7419   6.7421   6.8708   6.8709   7.0001   7.0002

          k =-0.4991-0.4991 0.0000 (  5196 PWs)   bands (ev):

   -64.8276 -64.8275 -64.8274 -64.8265 -31.6206 -31.6204 -31.6176 -31.6174
   -31.5974 -31.5973 -31.5972 -31.5970 -31.5763 -31.5761 -31.5758 -31.5756
    -8.2096  -8.2095  -8.2011  -8.2010   4.2908   4.2910   4.2957   4.2958
     5.7618   5.7622   5.7723   5.7726   7.0490   7.0490   7.0781   7.0782

          k =-0.4991-0.4991 0.2500 (  5140 PWs)   bands (ev):

   -64.8275 -64.8275 -64.8274 -64.8265 -31.6324 -31.6322 -31.6307 -31.6305
   -31.5833 -31.5832 -31.5825 -31.5825 -31.5765 -31.5763 -31.5745 -31.5742
    -8.1720  -8.1719  -8.1636  -8.1635   3.6349   3.6350   3.6457   3.6458
     6.5227   6.5230   6.5258   6.5261   7.0502   7.0502   7.0788   7.0789

          k =-0.4991-0.4991-0.5000 (  5136 PWs)   bands (ev):

   -64.8275 -64.8275 -64.8274 -64.8264 -31.6403 -31.6402 -31.6387 -31.6386
   -31.5753 -31.5752 -31.5751 -31.5750 -31.5749 -31.5747 -31.5747 -31.5746
    -8.1339  -8.1338  -8.1255  -8.1254   3.2107   3.2107   3.2243   3.2244
     7.0508   7.0508   7.0649   7.0651   7.0655   7.0657   7.0800   7.0800

     highest occupied level (ev):     7.6855

!    total energy              =    -608.39282256 Ry
     Harris-Foulkes estimate   =    -608.39282256 Ry
     estimated scf accuracy    <          3.3E-11 Ry

     The total energy is the sum of the following terms:

     one-electron contribution =    -303.55770304 Ry
     hartree contribution      =     168.06810679 Ry
     xc contribution           =     -97.84641020 Ry
     ewald contribution        =    -375.05681611 Ry

     convergence has been achieved in   5 iterations

     Forces acting on atoms (cartesian axes, Ry/au):

     atom    1 type  1   force =    -0.00006745   -0.00006745    0.00000000
     atom    2 type  1   force =     0.00006314   -0.00009708    0.00000000
     atom    3 type  1   force =    -0.00009708    0.00006314    0.00000000
     atom    4 type  1   force =     0.00012014    0.00012014    0.00000000
     atom    5 type  2   force =    -0.00002510   -0.00000100    0.00000000
     atom    6 type  2   force =    -0.00000100   -0.00002510    0.00000000
     atom    7 type  2   force =    -0.00001934   -0.00001934    0.00000000
     atom    8 type  2   force =     0.00002668    0.00002668    0.00000000

     Total force =     0.000261     Total SCF correction =     0.000015


     Computing stress (Cartesian axis) and pressure

          total   stress  (Ry/bohr**3)                   (kbar)     P=  -68.07
  -0.00046314  -0.00003514   0.00000000        -68.13     -5.17      0.00
  -0.00003514  -0.00046314   0.00000000         -5.17    -68.13      0.00
   0.00000000   0.00000000  -0.00046198          0.00      0.00    -67.96


     number of scf cycles    =   5
     number of bfgs steps    =   4

     energy   old            =    -608.3928197177 Ry
     energy   new            =    -608.3928225592 Ry

     CASE: energy  _new < energy  _old

     new trust radius        =       0.0006186159 bohr
     new conv_thr            =            1.0E-10 Ry


ATOMIC_POSITIONS (alat)
Mg      -0.000396610  -0.000396610   0.000000000
Mg       0.000435748   0.499572947   0.500000000
Mg       0.499572947   0.000435748   0.500000000
Mg       0.500386416   0.500386416   0.000000000
O        0.499537136   0.000468751   0.000000000
O        0.000468751   0.499537136   0.000000000
O       -0.000452555  -0.000452555   0.500000000
O        0.500448168   0.500448168   0.500000000



     Writing output data file MgO.0.003571.70.4.save
     NEW-OLD atomic charge density approx. for the potential

     Check: negative/imaginary core charge=   -0.000007    0.000000

     total cpu time spent up to now is       31.5 secs

     per-process dynamical memory:    52.8 Mb

     Self-consistent Calculation

     iteration #  1     ecut=    70.00 Ry     beta=0.70
     Davidson diagonalization with overlap
     ethr =  1.00E-06,  avg # of iterations =  2.0

     Threshold (ethr) on eigenvalues was too large:
     Diagonalizing with lowered threshold

     Davidson diagonalization with overlap
     ethr =  9.79E-11,  avg # of iterations =  3.1

     total cpu time spent up to now is       33.6 secs

     total energy              =    -608.39282273 Ry
     Harris-Foulkes estimate   =    -608.39282278 Ry
     estimated scf accuracy    <       0.00000010 Ry

     iteration #  2     ecut=    70.00 Ry     beta=0.70
     Davidson diagonalization with overlap
     ethr =  1.49E-10,  avg # of iterations =  2.0

     total cpu time spent up to now is       34.4 secs

     total energy              =    -608.39282274 Ry
     Harris-Foulkes estimate   =    -608.39282274 Ry
     estimated scf accuracy    <          2.9E-09 Ry

     iteration #  3     ecut=    70.00 Ry     beta=0.70
     Davidson diagonalization with overlap
     ethr =  4.51E-12,  avg # of iterations =  2.2

     total cpu time spent up to now is       35.3 secs

     total energy              =    -608.39282274 Ry
     Harris-Foulkes estimate   =    -608.39282274 Ry
     estimated scf accuracy    <          4.9E-10 Ry

     iteration #  4     ecut=    70.00 Ry     beta=0.70
     Davidson diagonalization with overlap
     ethr =  7.64E-13,  avg # of iterations =  3.0

     total cpu time spent up to now is       36.3 secs

     total energy              =    -608.39282274 Ry
     Harris-Foulkes estimate   =    -608.39282274 Ry
     estimated scf accuracy    <          4.7E-10 Ry

     iteration #  5     ecut=    70.00 Ry     beta=0.70
     Davidson diagonalization with overlap
     ethr =  7.38E-13,  avg # of iterations =  2.7

     total cpu time spent up to now is       37.2 secs

     End of self-consistent calculation

          k = 0.0000 0.0000 0.0000 (  5145 PWs)   bands (ev):

   -64.8346 -64.8251 -64.8251 -64.8243 -31.6311 -31.6310 -31.6310 -31.5943
   -31.5935 -31.5934 -31.5934 -31.5933 -31.5926 -31.5646 -31.5637 -31.5635
    -9.3646  -7.9138  -7.9136  -7.9136   3.7581   3.7582   3.7582   6.3593
     6.3799   6.3801   6.3801   6.3803   6.4010   7.6594   7.6725   7.6855

          k = 0.0000 0.0000 0.2500 (  5157 PWs)   bands (ev):

   -64.8331 -64.8263 -64.8251 -64.8245 -31.6243 -31.6243 -31.6205 -31.5981
   -31.5981 -31.5940 -31.5940 -31.5900 -31.5882 -31.5782 -31.5725 -31.5705
    -9.1562  -8.1286  -7.8852  -7.8851   4.0487   4.0487   4.0955   5.8582
     5.8582   6.1706   6.1709   6.5229   6.5627   6.6589   7.4359   7.4648

          k = 0.0000 0.0000-0.5000 (  5110 PWs)   bands (ev):

   -64.8299 -64.8295 -64.8251 -64.8245 -31.6113 -31.6110 -31.6076 -31.6074
   -31.6020 -31.6020 -31.5908 -31.5907 -31.5816 -31.5813 -31.5797 -31.5794
    -8.6460  -8.6458  -7.8564  -7.8563   4.8456   4.8456   4.8504   4.8504
     5.1227   5.1229   5.9735   5.9738   6.9509   6.9510   6.9859   6.9860

          k =-0.0004 0.2500 0.0000 (  5159 PWs)   bands (ev):

   -64.8331 -64.8263 -64.8251 -64.8245 -31.6245 -31.6244 -31.6206 -31.5984
   -31.5984 -31.5939 -31.5935 -31.5891 -31.5890 -31.5784 -31.5715 -31.5713
    -9.1562  -8.1285  -7.8853  -7.8852   4.0484   4.0485   4.0955   5.8573
     5.8582   6.1707   6.1717   6.5428   6.5431   6.6588   7.4503   7.4504

          k =-0.0004 0.2500 0.2500 (  5157 PWs)   bands (ev):

   -64.8319 -64.8263 -64.8259 -64.8249 -31.6212 -31.6208 -31.6197 -31.6071
   -31.5941 -31.5940 -31.5930 -31.5879 -31.5866 -31.5865 -31.5755 -31.5684
    -8.9660  -8.0639  -8.0637  -7.8902   4.1612   4.1616   4.3287   5.0714
     5.8470   6.0551   6.0557   6.4849   6.4854   6.5835   7.1733   7.5057

          k =-0.0004 0.2500-0.5000 (  5152 PWs)   bands (ev):

   -64.8292 -64.8288 -64.8258 -64.8252 -31.6175 -31.6174 -31.6101 -31.6101
   -31.6068 -31.6065 -31.5851 -31.5849 -31.5838 -31.5837 -31.5754 -31.5753
    -8.5096  -8.5095  -7.9469  -7.9468   4.4184   4.4185   4.7511   4.7513
     5.0962   5.0964   6.5478   6.5481   6.5756   6.5757   7.0943   7.0944

          k = 0.0009-0.5000 0.0000 (  5110 PWs)   bands (ev):

   -64.8299 -64.8295 -64.8251 -64.8245 -31.6095 -31.6095 -31.6093 -31.6092
   -31.6021 -31.6020 -31.5907 -31.5906 -31.5806 -31.5805 -31.5804 -31.5803
    -8.6460  -8.6457  -7.8565  -7.8564   4.8478   4.8478   4.8481   4.8482
     5.1227   5.1230   5.9735   5.9738   6.9683   6.9683   6.9685   6.9685

          k = 0.0009-0.5000 0.2500 (  5154 PWs)   bands (ev):

   -64.8292 -64.8288 -64.8258 -64.8252 -31.6175 -31.6173 -31.6101 -31.6101
   -31.6069 -31.6066 -31.5851 -31.5848 -31.5839 -31.5838 -31.5755 -31.5753
    -8.5096  -8.5094  -7.9469  -7.9468   4.4183   4.4185   4.7511   4.7514
     5.0962   5.0965   6.5478   6.5480   6.5757   6.5760   7.0941   7.0942

          k = 0.0009-0.5000-0.5000 (  5204 PWs)   bands (ev):

   -64.8275 -64.8275 -64.8275 -64.8265 -31.6194 -31.6192 -31.6191 -31.6191
   -31.5972 -31.5970 -31.5970 -31.5967 -31.5767 -31.5765 -31.5764 -31.5764
    -8.2054  -8.2054  -8.2052  -8.2051   4.2931   4.2932   4.2934   4.2936
     5.7671   5.7673   5.7677   5.7679   7.0632   7.0634   7.0634   7.0636

          k = 0.2496 0.2496 0.0000 (  5161 PWs)   bands (ev):

   -64.8320 -64.8263 -64.8259 -64.8249 -31.6219 -31.6217 -31.6195 -31.6059
   -31.5944 -31.5944 -31.5917 -31.5888 -31.5862 -31.5860 -31.5755 -31.5696
    -8.9678  -8.0616  -8.0615  -7.8924   4.1607   4.1607   4.3268   5.0603
     5.8409   6.0581   6.0585   6.4809   6.4809   6.6021   7.1698   7.5183

          k = 0.2496 0.2496 0.2500 (  5150 PWs)   bands (ev):

   -64.8310 -64.8263 -64.8263 -64.8255 -31.6262 -31.6260 -31.6247 -31.6055
   -31.5928 -31.5927 -31.5925 -31.5847 -31.5840 -31.5840 -31.5721 -31.5710
    -8.7980  -8.0328  -8.0285  -8.0284   3.9937   4.0021   4.0021   5.0814
     5.8403   5.8436   5.8437   6.7036   6.7038   6.7236   7.3536   7.3692

          k = 0.2496 0.2496-0.5000 (  5132 PWs)   bands (ev):

   -64.8287 -64.8283 -64.8263 -64.8256 -31.6288 -31.6287 -31.6205 -31.6204
   -31.5917 -31.5915 -31.5809 -31.5809 -31.5789 -31.5787 -31.5771 -31.5770
    -8.4010  -8.4009  -7.9949  -7.9949   3.8251   3.8252   4.1896   4.1897
     5.8255   5.8256   6.7385   6.7387   6.8667   6.8668   7.0320   7.0320

          k = 0.2509-0.5004 0.0000 (  5152 PWs)   bands (ev):

   -64.8292 -64.8288 -64.8258 -64.8252 -31.6188 -31.6158 -31.6114 -31.6087
   -31.6069 -31.6067 -31.5851 -31.5849 -31.5845 -31.5830 -31.5762 -31.5746
    -8.5124  -8.5067  -7.9500  -7.9437   4.4146   4.4223   4.7496   4.7529
     5.0931   5.0995   6.5355   6.5605   6.5713   6.5803   7.0848   7.1035

          k = 0.2509-0.5004 0.2500 (  5135 PWs)   bands (ev):

   -64.8287 -64.8283 -64.8263 -64.8257 -31.6285 -31.6273 -31.6220 -31.6199
   -31.5930 -31.5927 -31.5811 -31.5802 -31.5788 -31.5781 -31.5774 -31.5766
    -8.4019  -8.3962  -8.0002  -7.9941   3.8153   3.8278   4.1933   4.2027
     5.8276   5.8332   6.7313   6.7494   6.8625   6.8749   7.0135   7.0190

          k = 0.2509-0.5004-0.5000 (  5140 PWs)   bands (ev):

   -64.8275 -64.8275 -64.8274 -64.8265 -31.6325 -31.6324 -31.6306 -31.6305
   -31.5835 -31.5833 -31.5826 -31.5824 -31.5755 -31.5754 -31.5751 -31.5750
    -8.1707  -8.1706  -8.1649  -8.1648   3.6337   3.6338   3.6469   3.6470
     6.5149   6.5150   6.5340   6.5340   7.0616   7.0617   7.0672   7.0674

          k = 0.2504-0.2504 0.0000 (  5157 PWs)   bands (ev):

   -64.8319 -64.8263 -64.8259 -64.8248 -31.6202 -31.6200 -31.6196 -31.6085
   -31.5943 -31.5942 -31.5942 -31.5871 -31.5870 -31.5869 -31.5754 -31.5674
    -8.9642  -8.0661  -8.0660  -7.8881   4.1623   4.1624   4.3306   5.0824
     5.8533   6.0525   6.0529   6.4888   6.4888   6.5650   7.1769   7.4930

          k = 0.2504-0.2504 0.2500 (  5156 PWs)   bands (ev):

   -64.8309 -64.8263 -64.8263 -64.8255 -31.6254 -31.6241 -31.6240 -31.6065
   -31.5948 -31.5947 -31.5944 -31.5840 -31.5840 -31.5833 -31.5716 -31.5704
    -8.7943  -8.0329  -8.0328  -8.0286   3.9988   3.9988   4.0072   5.0970
     5.8479   5.8480   5.8513   6.6875   6.7071   6.7073   7.3417   7.3571

          k = 0.2504-0.2504-0.5000 (  5144 PWs)   bands (ev):

   -64.8287 -64.8283 -64.8263 -64.8257 -31.6273 -31.6272 -31.6217 -31.6216
   -31.5944 -31.5941 -31.5805 -31.5804 -31.5784 -31.5783 -31.5770 -31.5767
    -8.3972  -8.3971  -7.9993  -7.9992   3.8178   3.8179   4.2062   4.2064
     5.8351   5.8352   6.7419   6.7421   6.8708   6.8709   7.0001   7.0002

          k =-0.4991-0.4991 0.0000 (  5196 PWs)   bands (ev):

   -64.8276 -64.8275 -64.8274 -64.8265 -31.6206 -31.6204 -31.6176 -31.6174
   -31.5974 -31.5973 -31.5972 -31.5970 -31.5763 -31.5761 -31.5758 -31.5756
    -8.2096  -8.2095  -8.2011  -8.2010   4.2909   4.2910   4.2957   4.2958
     5.7618   5.7621   5.7723   5.7726   7.0490   7.0490   7.0781   7.0782

          k =-0.4991-0.4991 0.2500 (  5140 PWs)   bands (ev):

   -64.8275 -64.8275 -64.8274 -64.8265 -31.6324 -31.6322 -31.6307 -31.6305
   -31.5833 -31.5832 -31.5825 -31.5825 -31.5765 -31.5763 -31.5745 -31.5742
    -8.1720  -8.1719  -8.1636  -8.1635   3.6349   3.6350   3.6457   3.6458
     6.5227   6.5229   6.5258   6.5261   7.0502   7.0502   7.0788   7.0788

          k =-0.4991-0.4991-0.5000 (  5136 PWs)   bands (ev):

   -64.8275 -64.8275 -64.8274 -64.8265 -31.6403 -31.6402 -31.6387 -31.6386
   -31.5753 -31.5752 -31.5751 -31.5750 -31.5749 -31.5747 -31.5747 -31.5746
    -8.1339  -8.1339  -8.1255  -8.1254   3.2107   3.2107   3.2243   3.2244
     7.0508   7.0508   7.0649   7.0651   7.0655   7.0657   7.0800   7.0800

     highest occupied level (ev):     7.6855

!    total energy              =    -608.39282274 Ry
     Harris-Foulkes estimate   =    -608.39282274 Ry
     estimated scf accuracy    <          1.8E-12 Ry

     The total energy is the sum of the following terms:

     one-electron contribution =    -303.55770136 Ry
     hartree contribution      =     168.06810522 Ry
     xc contribution           =     -97.84640961 Ry
     ewald contribution        =    -375.05681698 Ry

     convergence has been achieved in   5 iterations

     Forces acting on atoms (cartesian axes, Ry/au):

     atom    1 type  1   force =    -0.00001538   -0.00001538    0.00000000
     atom    2 type  1   force =     0.00001088   -0.00004500    0.00000000
     atom    3 type  1   force =    -0.00004500    0.00001088    0.00000000
     atom    4 type  1   force =     0.00006770    0.00006770    0.00000000
     atom    5 type  2   force =     0.00002593   -0.00004817    0.00000000
     atom    6 type  2   force =    -0.00004817    0.00002593    0.00000000
     atom    7 type  2   force =     0.00002897    0.00002897    0.00000000
     atom    8 type  2   force =    -0.00002492   -0.00002492    0.00000000

     Total force =     0.000151     Total SCF correction =     0.000004


     Computing stress (Cartesian axis) and pressure

          total   stress  (Ry/bohr**3)                   (kbar)     P=  -68.07
  -0.00046314  -0.00003514   0.00000000        -68.13     -5.17      0.00
  -0.00003514  -0.00046314   0.00000000         -5.17    -68.13      0.00
   0.00000000   0.00000000  -0.00046198          0.00      0.00    -67.96


     bfgs converged in   6 scf cycles and   5 bfgs steps
     (criteria: energy <  1.0E-05 Ry, force <  1.0E-04 Ry/Bohr)

     End of BFGS Geometry Optimization

     Final energy   =    -608.3928227440 Ry
Begin final coordinates

ATOMIC_POSITIONS (alat)
Mg      -0.000396610  -0.000396610   0.000000000
Mg       0.000435748   0.499572947   0.500000000
Mg       0.499572947   0.000435748   0.500000000
Mg       0.500386416   0.500386416   0.000000000
O        0.499537136   0.000468751   0.000000000
O        0.000468751   0.499537136   0.000000000
O       -0.000452555  -0.000452555   0.500000000
O        0.500448168   0.500448168   0.500000000
End final coordinates



     Writing output data file MgO.0.003571.70.4.save
 
     init_run     :      0.41s CPU      0.43s WALL (       1 calls)
     electrons    :     32.99s CPU     33.53s WALL (       6 calls)
     update_pot   :      0.53s CPU      0.55s WALL (       5 calls)
     forces       :      0.81s CPU      0.81s WALL (       6 calls)
     stress       :      1.86s CPU      1.86s WALL (       6 calls)

     Called by init_run:
     wfcinit      :      0.29s CPU      0.31s WALL (       1 calls)
     potinit      :      0.05s CPU      0.05s WALL (       1 calls)

     Called by electrons:
     c_bands      :     28.75s CPU     29.20s WALL (      36 calls)
     sum_band     :      4.01s CPU      4.09s WALL (      36 calls)
     v_of_rho     :      0.19s CPU      0.19s WALL (      37 calls)
     mix_rho      :      0.02s CPU      0.03s WALL (      36 calls)

     Called by c_bands:
     init_us_2    :      0.44s CPU      0.45s WALL (    1785 calls)
     cegterg      :     26.75s CPU     27.17s WALL (     756 calls)

     Called by sum_band:

     Called by *egterg:
     h_psi        :     19.66s CPU     20.07s WALL (    2580 calls)
     g_psi        :      0.15s CPU      0.15s WALL (    1803 calls)
     cdiaghg      :      3.78s CPU      3.79s WALL (    2349 calls)

     Called by h_psi:
     h_psi:pot    :     19.58s CPU     19.97s WALL (    2580 calls)
     h_psi:calbec :      1.10s CPU      1.11s WALL (    2580 calls)
     vloc_psi     :     17.56s CPU     17.93s WALL (    2580 calls)
     add_vuspsi   :      0.91s CPU      0.92s WALL (    2580 calls)

     General routines
     calbec       :      1.47s CPU      1.47s WALL (    3210 calls)
     fft          :      0.15s CPU      0.15s WALL (     566 calls)
     fftw         :     19.56s CPU     19.61s WALL (  152090 calls)
     davcio       :      0.00s CPU      0.00s WALL (      21 calls)
 
     Parallel routines
     fft_scatter  :      5.42s CPU      5.26s WALL (  152656 calls)
 
     PWSCF        :    37.01s CPU        37.69s WALL

 
   This run was terminated on:  19:10:47  22Apr2018            

=------------------------------------------------------------------------------=
   JOB DONE.
=------------------------------------------------------------------------------=
