
     Program PWSCF v.6.1 (svn rev. 13369) starts on 22Apr2018 at 19: 8:20 

     This program is part of the open-source Quantum ESPRESSO suite
     for quantum simulation of materials; please cite
         "P. Giannozzi et al., J. Phys.:Condens. Matter 21 395502 (2009);
          URL http://www.quantum-espresso.org", 
     in publications or presentations arising from this work. More details at
     http://www.quantum-espresso.org/quote

     Parallel version (MPI), running on     8 processors
     R & G space division:  proc/nbgrp/npool/nimage =       8
     Waiting for input...
     Reading input from standard input
Warning: card       &CELL ignored
Warning: card          CELL_DYNAMICS = 'BFGS' ignored
Warning: card          PRESS = 0.0D0 ignored
Warning: card          PRESS_CONV_THR = 0.01D0 ignored
Warning: card       / ignored

     Current dimensions of program PWSCF are:
     Max number of different atomic species (ntypx) = 10
     Max number of k-points (npk) =  40000
     Max angular momentum in pseudopotentials (lmaxx) =  3

     Subspace diagonalization in iterative solution of the eigenvalue problem:
     a serial algorithm will be used

 
     Parallelization info
     --------------------
     sticks:   dense  smooth     PW     G-vecs:    dense   smooth      PW
     Min         181     181     52                 5151     5151     816
     Max         182     182     53                 5153     5153     819
     Sum        1449    1449    421                41211    41211    6543
 


     bravais-lattice index     =            0
     lattice parameter (alat)  =       8.0448  a.u.
     unit-cell volume          =     520.6402 (a.u.)^3
     number of atoms/cell      =            8
     number of atomic types    =            2
     number of electrons       =        64.00
     number of Kohn-Sham states=           32
     kinetic-energy cutoff     =      70.0000  Ry
     charge density cutoff     =     280.0000  Ry
     convergence threshold     =      1.0E-08
     mixing beta               =       0.7000
     number of iterations used =            8  plain     mixing
     Exchange-correlation      = PBE ( 1  4  3  4 0 0)
     nstep                     =           50


     celldm(1)=   8.044750  celldm(2)=   0.000000  celldm(3)=   0.000000
     celldm(4)=   0.000000  celldm(5)=   0.000000  celldm(6)=   0.000000

     crystal axes: (cart. coord. in units of alat)
               a(1) = (   1.000000  -0.005000   0.000000 )  
               a(2) = (  -0.005000   1.000000   0.000000 )  
               a(3) = (   0.000000   0.000000   1.000025 )  

     reciprocal axes: (cart. coord. in units 2 pi/alat)
               b(1) = (  1.000025  0.005000  0.000000 )  
               b(2) = (  0.005000  1.000025  0.000000 )  
               b(3) = (  0.000000  0.000000  0.999975 )  


     PseudoPot. # 1 for Mg read from file:
     ../pseudo/Mg.pbe.UPF
     MD5 check sum: 4c04d8c6e0476e83eaecaf72fa8acc4d
     Pseudo is Norm-conserving, Zval = 10.0
     Generated using ONCVPSP code by D. R. Hamann
     Using radial grid of 1510 points,  4 beta functions with: 
                l(1) =   0
                l(2) =   0
                l(3) =   1
                l(4) =   1

     PseudoPot. # 2 for O  read from file:
     ../pseudo/O.pbe.UPF
     MD5 check sum: 3e3f909f7470e8921608ab6b1f57bbae
     Pseudo is Norm-conserving + core correction, Zval =  6.0
     Generated using ONCVPSP code by D. R. Hamann
     Using radial grid of  936 points,  5 beta functions with: 
                l(1) =   0
                l(2) =   0
                l(3) =   1
                l(4) =   1
                l(5) =   2

     atomic species   valence    mass     pseudopotential
        Mg            10.00    24.30500     Mg( 1.00)
        O              6.00    15.99940     O ( 1.00)

      2 Sym. Ops. (no inversion) found



   Cartesian axes

     site n.     atom                  positions (alat units)
         1           Mg  tau(   1) = (   0.0000000   0.0000000   0.0000000  )
         2           Mg  tau(   2) = (   0.0000000   0.5000000   0.5000000  )
         3           Mg  tau(   3) = (   0.5000000   0.0000000   0.5000000  )
         4           Mg  tau(   4) = (   0.5000000   0.5000000   0.0000000  )
         5           O   tau(   5) = (   0.5000000   0.0000000   0.0000000  )
         6           O   tau(   6) = (   0.0000000   0.5000000   0.0000000  )
         7           O   tau(   7) = (   0.0000000   0.0000000   0.5000000  )
         8           O   tau(   8) = (   0.5000000   0.5000000   0.5000000  )

     number of k points=    24
                       cart. coord. in units 2pi/alat
        k(    1) = (   0.0000000   0.0000000   0.0000000), wk =   0.0312500
        k(    2) = (   0.0000000   0.0000000   0.2499938), wk =   0.0625000
        k(    3) = (   0.0000000   0.0000000  -0.4999875), wk =   0.0312500
        k(    4) = (   0.0012500   0.2500063   0.0000000), wk =   0.1250000
        k(    5) = (   0.0012500   0.2500063   0.2499938), wk =   0.1250000
        k(    6) = (   0.0012500   0.2500063  -0.4999875), wk =   0.1250000
        k(    7) = (  -0.0025001  -0.5000125   0.0000000), wk =   0.0625000
        k(    8) = (  -0.0025001  -0.5000125   0.2499938), wk =   0.1250000
        k(    9) = (  -0.0025001  -0.5000125  -0.4999875), wk =   0.0625000
        k(   10) = (   0.2512563   0.2512563   0.0000000), wk =   0.0625000
        k(   11) = (   0.2512563   0.2512563   0.2499938), wk =   0.0625000
        k(   12) = (   0.2512563   0.2512563  -0.4999875), wk =   0.0625000
        k(   13) = (   0.2475062  -0.4987625   0.0000000), wk =   0.1250000
        k(   14) = (   0.2475062  -0.4987625   0.2499938), wk =   0.1250000
        k(   15) = (   0.2475062  -0.4987625  -0.4999875), wk =   0.1250000
        k(   16) = (   0.2487562  -0.2487562   0.0000000), wk =   0.0625000
        k(   17) = (   0.2487562  -0.2487562   0.2499938), wk =   0.1250000
        k(   18) = (   0.2487562  -0.2487562  -0.4999875), wk =   0.0625000
        k(   19) = (  -0.5025126  -0.5025126   0.0000000), wk =   0.0312500
        k(   20) = (  -0.5025126  -0.5025126   0.2499938), wk =   0.0625000
        k(   21) = (  -0.5025126  -0.5025126  -0.4999875), wk =   0.0312500
        k(   22) = (   0.2500063   0.0012500  -0.2499938), wk =   0.1250000
        k(   23) = (   0.2512563   0.2512563  -0.2499938), wk =   0.0625000
        k(   24) = (  -0.4987625   0.2475062  -0.2499938), wk =   0.1250000

     Dense  grid:    41211 G-vectors     FFT dimensions: (  45,  45,  45)

     Estimated max dynamical RAM per process >      13.45MB

     Estimated total allocated dynamical RAM >     107.58MB

     Check: negative/imaginary core charge=   -0.000007    0.000000

     Initial potential from superposition of free atoms

     starting charge   63.99678, renormalised to   64.00000
     Starting wfc are   36 randomized atomic wfcs

     total cpu time spent up to now is        0.6 secs

     per-process dynamical memory:    49.0 Mb

     Self-consistent Calculation

     iteration #  1     ecut=    70.00 Ry     beta=0.70
     Davidson diagonalization with overlap
     ethr =  1.00E-02,  avg # of iterations =  2.0

     total cpu time spent up to now is        1.6 secs

     total energy              =    -607.72117704 Ry
     Harris-Foulkes estimate   =    -608.84367177 Ry
     estimated scf accuracy    <       1.55986668 Ry

     iteration #  2     ecut=    70.00 Ry     beta=0.70
     Davidson diagonalization with overlap
     ethr =  2.44E-03,  avg # of iterations =  2.9

     total cpu time spent up to now is        2.7 secs

     total energy              =    -608.10598716 Ry
     Harris-Foulkes estimate   =    -608.80218599 Ry
     estimated scf accuracy    <       1.44501636 Ry

     iteration #  3     ecut=    70.00 Ry     beta=0.70
     Davidson diagonalization with overlap
     ethr =  2.26E-03,  avg # of iterations =  2.0

     total cpu time spent up to now is        3.7 secs

     total energy              =    -608.39096945 Ry
     Harris-Foulkes estimate   =    -608.39164032 Ry
     estimated scf accuracy    <       0.00676590 Ry

     iteration #  4     ecut=    70.00 Ry     beta=0.70
     Davidson diagonalization with overlap
     ethr =  1.06E-05,  avg # of iterations =  2.0

     total cpu time spent up to now is        4.7 secs

     total energy              =    -608.39245162 Ry
     Harris-Foulkes estimate   =    -608.39249500 Ry
     estimated scf accuracy    <       0.00010886 Ry

     iteration #  5     ecut=    70.00 Ry     beta=0.70
     Davidson diagonalization with overlap
     ethr =  1.70E-07,  avg # of iterations =  1.6

     total cpu time spent up to now is        5.6 secs

     total energy              =    -608.39245909 Ry
     Harris-Foulkes estimate   =    -608.39245748 Ry
     estimated scf accuracy    <       0.00001016 Ry

     iteration #  6     ecut=    70.00 Ry     beta=0.70
     Davidson diagonalization with overlap
     ethr =  1.59E-08,  avg # of iterations =  2.0

     total cpu time spent up to now is        6.7 secs

     total energy              =    -608.39246062 Ry
     Harris-Foulkes estimate   =    -608.39246100 Ry
     estimated scf accuracy    <       0.00000090 Ry

     iteration #  7     ecut=    70.00 Ry     beta=0.70
     Davidson diagonalization with overlap
     ethr =  1.40E-09,  avg # of iterations =  2.0

     total cpu time spent up to now is        7.6 secs

     total energy              =    -608.39246062 Ry
     Harris-Foulkes estimate   =    -608.39246070 Ry
     estimated scf accuracy    <       0.00000019 Ry

     iteration #  8     ecut=    70.00 Ry     beta=0.70
     Davidson diagonalization with overlap
     ethr =  2.93E-10,  avg # of iterations =  2.0

     total cpu time spent up to now is        8.7 secs

     total energy              =    -608.39246063 Ry
     Harris-Foulkes estimate   =    -608.39246064 Ry
     estimated scf accuracy    <       0.00000003 Ry

     iteration #  9     ecut=    70.00 Ry     beta=0.70
     Davidson diagonalization with overlap
     ethr =  4.91E-11,  avg # of iterations =  2.0

     total cpu time spent up to now is        9.8 secs

     End of self-consistent calculation

          k = 0.0000 0.0000 0.0000 (  5141 PWs)   bands (ev):

   -64.8349 -64.8254 -64.8254 -64.8247 -31.6312 -31.6308 -31.6308 -31.5953
   -31.5936 -31.5935 -31.5929 -31.5928 -31.5914 -31.5673 -31.5655 -31.5638
    -9.3643  -7.9136  -7.9130  -7.9129   3.7584   3.7594   3.7596   6.3225
     6.3801   6.3805   6.3805   6.3809   6.4391   7.6366   7.6721   7.7092

          k = 0.0000 0.0000 0.2500 (  5149 PWs)   bands (ev):

   -64.8335 -64.8267 -64.8254 -64.8248 -31.6256 -31.6256 -31.6207 -31.5979
   -31.5977 -31.5941 -31.5940 -31.5913 -31.5867 -31.5785 -31.5739 -31.5690
    -9.1559  -8.1284  -7.8845  -7.8844   4.0474   4.0492   4.0972   5.8580
     5.8585   6.1710   6.1714   6.4879   6.5998   6.6589   7.4105   7.4920

          k = 0.0000 0.0000-0.5000 (  5130 PWs)   bands (ev):

   -64.8303 -64.8298 -64.8254 -64.8248 -31.6150 -31.6148 -31.6071 -31.6068
   -31.6022 -31.6021 -31.5914 -31.5913 -31.5833 -31.5830 -31.5783 -31.5781
    -8.6458  -8.6456  -7.8558  -7.8556   4.8401   4.8411   4.8536   4.8546
     5.1232   5.1236   5.9739   5.9742   6.9199   6.9203   7.0182   7.0185

          k = 0.0013 0.2500 0.0000 (  5165 PWs)   bands (ev):

   -64.8335 -64.8267 -64.8254 -64.8248 -31.6252 -31.6250 -31.6219 -31.6000
   -31.5985 -31.5936 -31.5931 -31.5894 -31.5890 -31.5802 -31.5719 -31.5708
    -9.1559  -8.1280  -7.8850  -7.8845   4.0486   4.0492   4.0957   5.8505
     5.8586   6.1708   6.1792   6.5433   6.5433   6.6583   7.4502   7.4520

          k = 0.0013 0.2500 0.2500 (  5154 PWs)   bands (ev):

   -64.8323 -64.8266 -64.8263 -64.8252 -31.6217 -31.6212 -31.6205 -31.6074
   -31.5950 -31.5941 -31.5932 -31.5876 -31.5868 -31.5865 -31.5758 -31.5687
    -8.9657  -8.0674  -8.0594  -7.8896   4.1550   4.1685   4.3292   5.0716
     5.8470   6.0442   6.0641   6.4826   6.4924   6.5841   7.1735   7.5068

          k = 0.0013 0.2500-0.5000 (  5150 PWs)   bands (ev):

   -64.8296 -64.8291 -64.8261 -64.8255 -31.6186 -31.6185 -31.6104 -31.6104
   -31.6068 -31.6065 -31.5856 -31.5854 -31.5840 -31.5840 -31.5753 -31.5751
    -8.5094  -8.5092  -7.9463  -7.9462   4.4186   4.4187   4.7512   4.7515
     5.0965   5.0967   6.5481   6.5484   6.5752   6.5754   7.0965   7.0966

          k =-0.0025-0.5000 0.0000 (  5128 PWs)   bands (ev):

   -64.8303 -64.8298 -64.8254 -64.8249 -31.6114 -31.6109 -31.6102 -31.6100
   -31.6027 -31.6023 -31.5922 -31.5920 -31.5808 -31.5806 -31.5801 -31.5799
    -8.6456  -8.6453  -7.8562  -7.8558   4.8465   4.8480   4.8482   4.8482
     5.1232   5.1236   5.9733   5.9754   6.9685   6.9690   6.9690   6.9692

          k =-0.0025-0.5000 0.2500 (  5154 PWs)   bands (ev):

   -64.8296 -64.8291 -64.8261 -64.8255 -31.6180 -31.6177 -31.6109 -31.6107
   -31.6072 -31.6070 -31.5856 -31.5855 -31.5840 -31.5839 -31.5754 -31.5753
    -8.5093  -8.5090  -7.9466  -7.9462   4.4180   4.4182   4.7516   4.7519
     5.0970   5.0972   6.5480   6.5491   6.5763   6.5764   7.0943   7.0948

          k =-0.0025-0.5000-0.5000 (  5180 PWs)   bands (ev):

   -64.8279 -64.8278 -64.8278 -64.8268 -31.6197 -31.6195 -31.6194 -31.6193
   -31.5976 -31.5972 -31.5965 -31.5963 -31.5764 -31.5762 -31.5758 -31.5758
    -8.2104  -8.2100  -8.1996  -8.1994   4.2834   4.2838   4.3033   4.3034
     5.7557   5.7558   5.7813   5.7815   7.0583   7.0587   7.0690   7.0698

          k = 0.2513 0.2513 0.0000 (  5159 PWs)   bands (ev):

   -64.8322 -64.8267 -64.8263 -64.8252 -31.6199 -31.6191 -31.6189 -31.6112
   -31.5955 -31.5947 -31.5946 -31.5887 -31.5885 -31.5858 -31.5760 -31.5669
    -8.9606  -8.0697  -8.0694  -7.8838   4.1643   4.1645   4.3343   5.1024
     5.8651   6.0475   6.0480   6.4958   6.4962   6.5325   7.1830   7.4704

          k = 0.2513 0.2513 0.2500 (  5156 PWs)   bands (ev):

   -64.8312 -64.8267 -64.8266 -64.8258 -31.6266 -31.6233 -31.6231 -31.6079
   -31.5968 -31.5967 -31.5955 -31.5838 -31.5838 -31.5819 -31.5726 -31.5695
    -8.7907  -8.0377  -8.0362  -8.0233   3.9942   3.9961   4.0213   5.1113
     5.8423   5.8527   5.8713   6.6562   6.7110   6.7112   7.3175   7.3604

          k = 0.2513 0.2513-0.5000 (  5152 PWs)   bands (ev):

   -64.8290 -64.8286 -64.8267 -64.8261 -31.6261 -31.6259 -31.6232 -31.6232
   -31.5972 -31.5970 -31.5800 -31.5799 -31.5795 -31.5795 -31.5762 -31.5759
    -8.3935  -8.3934  -8.0027  -8.0026   3.8111   3.8118   4.2216   4.2219
     5.8439   5.8445   6.7454   6.7457   6.8747   6.8754   6.9718   6.9722

          k = 0.2475-0.4988 0.0000 (  5153 PWs)   bands (ev):

   -64.8296 -64.8291 -64.8261 -64.8255 -31.6214 -31.6144 -31.6141 -31.6073
   -31.6070 -31.6070 -31.5866 -31.5854 -31.5851 -31.5815 -31.5779 -31.5733
    -8.5171  -8.5011  -7.9552  -7.9377   4.4075   4.4295   4.7469   4.7561
     5.0875   5.1056   6.5139   6.5635   6.5838   6.5888   7.0688   7.1213

          k = 0.2475-0.4988 0.2500 (  5136 PWs)   bands (ev):

   -64.8291 -64.8286 -64.8266 -64.8260 -31.6308 -31.6264 -31.6243 -31.6186
   -31.5937 -31.5932 -31.5822 -31.5805 -31.5793 -31.5789 -31.5770 -31.5752
    -8.4066  -8.3907  -8.0052  -7.9881   3.8042   3.8391   4.1853   4.2114
     5.8222   5.8383   6.7160   6.7666   6.8507   6.8854   7.0102   7.0261

          k = 0.2475-0.4988-0.5000 (  5146 PWs)   bands (ev):

   -64.8280 -64.8278 -64.8277 -64.8268 -31.6345 -31.6343 -31.6298 -31.6297
   -31.5851 -31.5849 -31.5825 -31.5823 -31.5758 -31.5756 -31.5749 -31.5749
    -8.1765  -8.1762  -8.1584  -8.1583   3.6206   3.6209   3.6605   3.6606
     6.4963   6.4966   6.5528   6.5531   7.0562   7.0564   7.0737   7.0743

          k = 0.2488-0.2488 0.0000 (  5143 PWs)   bands (ev):

   -64.8324 -64.8266 -64.8262 -64.8253 -31.6236 -31.6235 -31.6200 -31.6048
   -31.5944 -31.5943 -31.5898 -31.5892 -31.5847 -31.5845 -31.5757 -31.5713
    -8.9708  -8.0570  -8.0569  -7.8959   4.1596   4.1598   4.3235   5.0405
     5.8302   6.0641   6.0643   6.4746   6.4748   6.6371   7.1638   7.5422

          k = 0.2488-0.2488 0.2500 (  5142 PWs)   bands (ev):

   -64.8314 -64.8267 -64.8265 -64.8258 -31.6280 -31.6279 -31.6245 -31.6049
   -31.5920 -31.5914 -31.5911 -31.5863 -31.5839 -31.5838 -31.5744 -31.5706
    -8.8010  -8.0373  -8.0239  -8.0228   3.9801   4.0057   4.0072   5.0677
     5.8212   5.8403   5.8499   6.7008   6.7010   6.7566   7.3507   7.3946

          k = 0.2488-0.2488-0.5000 (  5128 PWs)   bands (ev):

   -64.8292 -64.8287 -64.8265 -64.8259 -31.6311 -31.6309 -31.6201 -31.6200
   -31.5897 -31.5894 -31.5821 -31.5821 -31.5805 -31.5801 -31.5765 -31.5764
    -8.4042  -8.4040  -7.9904  -7.9904   3.8314   3.8320   4.1748   4.1755
     5.8171   5.8176   6.7356   6.7358   6.8632   6.8635   7.0616   7.0619

          k =-0.5025-0.5025 0.0000 (  5188 PWs)   bands (ev):

   -64.8280 -64.8278 -64.8277 -64.8268 -31.6235 -31.6233 -31.6160 -31.6156
   -31.5974 -31.5972 -31.5972 -31.5969 -31.5782 -31.5779 -31.5743 -31.5741
    -8.2170  -8.2167  -8.1930  -8.1929   4.2865   4.2865   4.3002   4.3003
     5.7528   5.7534   5.7825   5.7827   7.0240   7.0243   7.1050   7.1052

          k =-0.5025-0.5025 0.2500 (  5144 PWs)   bands (ev):

   -64.8280 -64.8278 -64.8277 -64.8268 -31.6345 -31.6344 -31.6297 -31.6295
   -31.5844 -31.5844 -31.5821 -31.5821 -31.5782 -31.5779 -31.5735 -31.5733
    -8.1793  -8.1790  -8.1556  -8.1555   3.6254   3.6255   3.6556   3.6557
     6.5201   6.5205   6.5288   6.5290   7.0251   7.0253   7.1056   7.1058

          k =-0.5025-0.5025-0.5000 (  5136 PWs)   bands (ev):

   -64.8280 -64.8278 -64.8277 -64.8268 -31.6411 -31.6410 -31.6390 -31.6388
   -31.5775 -31.5772 -31.5762 -31.5761 -31.5745 -31.5745 -31.5735 -31.5732
    -8.1411  -8.1408  -8.1176  -8.1175   3.1991   3.1993   3.2364   3.2365
     7.0260   7.0262   7.0641   7.0642   7.0665   7.0670   7.1065   7.1067

          k = 0.2500 0.0013-0.2500 (  5154 PWs)   bands (ev):

   -64.8323 -64.8266 -64.8263 -64.8252 -31.6217 -31.6212 -31.6205 -31.6074
   -31.5950 -31.5941 -31.5932 -31.5876 -31.5868 -31.5865 -31.5758 -31.5687
    -8.9657  -8.0674  -8.0594  -7.8896   4.1550   4.1685   4.3292   5.0716
     5.8470   6.0442   6.0641   6.4826   6.4924   6.5841   7.1735   7.5068

          k = 0.2513 0.2513-0.2500 (  5156 PWs)   bands (ev):

   -64.8312 -64.8267 -64.8266 -64.8258 -31.6266 -31.6233 -31.6231 -31.6079
   -31.5968 -31.5967 -31.5955 -31.5838 -31.5838 -31.5819 -31.5726 -31.5695
    -8.7907  -8.0377  -8.0362  -8.0233   3.9942   3.9961   4.0213   5.1113
     5.8423   5.8527   5.8713   6.6562   6.7110   6.7112   7.3175   7.3604

          k =-0.4988 0.2475-0.2500 (  5136 PWs)   bands (ev):

   -64.8291 -64.8286 -64.8266 -64.8260 -31.6308 -31.6264 -31.6243 -31.6186
   -31.5937 -31.5932 -31.5822 -31.5805 -31.5793 -31.5789 -31.5770 -31.5752
    -8.4066  -8.3907  -8.0052  -7.9881   3.8042   3.8391   4.1853   4.2114
     5.8222   5.8383   6.7160   6.7666   6.8507   6.8854   7.0102   7.0261

     highest occupied level (ev):     7.7092

!    total energy              =    -608.39246063 Ry
     Harris-Foulkes estimate   =    -608.39246063 Ry
     estimated scf accuracy    <          1.1E-09 Ry

     The total energy is the sum of the following terms:

     one-electron contribution =    -303.55252115 Ry
     hartree contribution      =     168.06526635 Ry
     xc contribution           =     -97.84622175 Ry
     ewald contribution        =    -375.05898408 Ry

     convergence has been achieved in   9 iterations

     Forces acting on atoms (cartesian axes, Ry/au):

     atom    1 type  1   force =     0.00123280    0.00123280   -0.00001377
     atom    2 type  1   force =    -0.00122261    0.00111839    0.00001342
     atom    3 type  1   force =     0.00111839   -0.00122261    0.00001342
     atom    4 type  1   force =    -0.00107102   -0.00107102   -0.00001376
     atom    5 type  2   force =     0.00144277   -0.00153517   -0.00001566
     atom    6 type  2   force =    -0.00153517    0.00144277   -0.00001566
     atom    7 type  2   force =     0.00149038    0.00149038    0.00001585
     atom    8 type  2   force =    -0.00145554   -0.00145554    0.00001617

     Total force =     0.005328     Total SCF correction =     0.000009


     Computing stress (Cartesian axis) and pressure

          total   stress  (Ry/bohr**3)                   (kbar)     P=  -68.23
  -0.00046343   0.00009650   0.00000000        -68.17     14.20      0.00
   0.00009650  -0.00046343   0.00000000         14.20    -68.17      0.00
   0.00000000   0.00000000  -0.00046451          0.00      0.00    -68.33


     BFGS Geometry Optimization

     number of scf cycles    =   1
     number of bfgs steps    =   0

     energy   new            =    -608.3924606326 Ry

     new trust radius        =       0.0021077735 bohr
     new conv_thr            =       0.0000000100 Ry


ATOMIC_POSITIONS (alat)
Mg       0.000153243   0.000153243  -0.000001712
Mg      -0.000151976   0.500139021   0.500001668
Mg       0.500139021  -0.000151976   0.500001668
Mg       0.499866867   0.499866867  -0.000001711
O        0.500179343  -0.000190828  -0.000001947
O       -0.000190828   0.500179343  -0.000001947
O        0.000185261   0.000185261   0.500001971
O        0.499819069   0.499819069   0.500002010



     Writing output data file MgO.-0.01.70.4.save
     NEW-OLD atomic charge density approx. for the potential

     Check: negative/imaginary core charge=   -0.000007    0.000000

     total cpu time spent up to now is       10.5 secs

     per-process dynamical memory:    49.5 Mb

     Self-consistent Calculation

     iteration #  1     ecut=    70.00 Ry     beta=0.70
     Davidson diagonalization with overlap
     ethr =  1.00E-06,  avg # of iterations =  3.0

     Threshold (ethr) on eigenvalues was too large:
     Diagonalizing with lowered threshold

     Davidson diagonalization with overlap
     ethr =  2.89E-09,  avg # of iterations =  2.5

     total cpu time spent up to now is       12.8 secs

     total energy              =    -608.39248671 Ry
     Harris-Foulkes estimate   =    -608.39248777 Ry
     estimated scf accuracy    <       0.00000187 Ry

     iteration #  2     ecut=    70.00 Ry     beta=0.70
     Davidson diagonalization with overlap
     ethr =  2.91E-09,  avg # of iterations =  2.0

     total cpu time spent up to now is       13.8 secs

     total energy              =    -608.39248703 Ry
     Harris-Foulkes estimate   =    -608.39248704 Ry
     estimated scf accuracy    <       0.00000004 Ry

     iteration #  3     ecut=    70.00 Ry     beta=0.70
     Davidson diagonalization with overlap
     ethr =  7.02E-11,  avg # of iterations =  2.0

     total cpu time spent up to now is       14.8 secs

     End of self-consistent calculation

          k = 0.0000 0.0000 0.0000 (  5141 PWs)   bands (ev):

   -64.8351 -64.8256 -64.8256 -64.8248 -31.6313 -31.6310 -31.6310 -31.5955
   -31.5937 -31.5937 -31.5930 -31.5929 -31.5916 -31.5674 -31.5656 -31.5639
    -9.3643  -7.9135  -7.9130  -7.9129   3.7584   3.7594   3.7596   6.3225
     6.3802   6.3805   6.3806   6.3808   6.4391   7.6366   7.6722   7.7093

          k = 0.0000 0.0000 0.2500 (  5149 PWs)   bands (ev):

   -64.8337 -64.8268 -64.8256 -64.8250 -31.6258 -31.6257 -31.6209 -31.5980
   -31.5979 -31.5942 -31.5941 -31.5914 -31.5869 -31.5786 -31.5740 -31.5692
    -9.1559  -8.1284  -7.8845  -7.8844   4.0479   4.0492   4.0967   5.8581
     5.8585   6.1711   6.1713   6.4879   6.5998   6.6589   7.4105   7.4920

          k = 0.0000 0.0000-0.5000 (  5130 PWs)   bands (ev):

   -64.8305 -64.8300 -64.8256 -64.8250 -31.6152 -31.6150 -31.6072 -31.6069
   -31.6023 -31.6022 -31.5916 -31.5915 -31.5834 -31.5831 -31.5785 -31.5782
    -8.6457  -8.6456  -7.8557  -7.8557   4.8404   4.8410   4.8538   4.8546
     5.1232   5.1234   5.9740   5.9742   6.9200   6.9201   7.0182   7.0186

          k = 0.0013 0.2500 0.0000 (  5165 PWs)   bands (ev):

   -64.8337 -64.8268 -64.8256 -64.8250 -31.6254 -31.6252 -31.6220 -31.6001
   -31.5986 -31.5937 -31.5933 -31.5895 -31.5891 -31.5803 -31.5721 -31.5709
    -9.1558  -8.1279  -7.8850  -7.8845   4.0486   4.0492   4.0957   5.8507
     5.8586   6.1709   6.1790   6.5433   6.5434   6.6583   7.4503   7.4520

          k = 0.0013 0.2500 0.2500 (  5154 PWs)   bands (ev):

   -64.8324 -64.8268 -64.8264 -64.8254 -31.6218 -31.6213 -31.6206 -31.6075
   -31.5951 -31.5943 -31.5933 -31.5878 -31.5869 -31.5866 -31.5759 -31.5689
    -8.9657  -8.0667  -8.0600  -7.8896   4.1561   4.1675   4.3292   5.0716
     5.8470   6.0457   6.0626   6.4832   6.4918   6.5841   7.1735   7.5069

          k = 0.0013 0.2500-0.5000 (  5150 PWs)   bands (ev):

   -64.8297 -64.8293 -64.8263 -64.8257 -31.6187 -31.6186 -31.6105 -31.6105
   -31.6069 -31.6067 -31.5858 -31.5855 -31.5841 -31.5841 -31.5754 -31.5753
    -8.5093  -8.5092  -7.9462  -7.9462   4.4187   4.4188   4.7512   4.7514
     5.0965   5.0967   6.5482   6.5484   6.5752   6.5753   7.0965   7.0967

          k =-0.0025-0.5000 0.0000 (  5128 PWs)   bands (ev):

   -64.8304 -64.8300 -64.8256 -64.8250 -31.6115 -31.6110 -31.6104 -31.6102
   -31.6028 -31.6024 -31.5923 -31.5921 -31.5809 -31.5807 -31.5803 -31.5800
    -8.6456  -8.6453  -7.8562  -7.8558   4.8467   4.8480   4.8481   4.8482
     5.1232   5.1236   5.9734   5.9752   6.9686   6.9690   6.9690   6.9692

          k =-0.0025-0.5000 0.2500 (  5154 PWs)   bands (ev):

   -64.8297 -64.8293 -64.8263 -64.8257 -31.6182 -31.6179 -31.6110 -31.6108
   -31.6073 -31.6071 -31.5858 -31.5856 -31.5842 -31.5840 -31.5756 -31.5754
    -8.5092  -8.5089  -7.9466  -7.9462   4.4181   4.4183   4.7516   4.7519
     5.0971   5.0973   6.5480   6.5490   6.5763   6.5765   7.0943   7.0947

          k =-0.0025-0.5000-0.5000 (  5180 PWs)   bands (ev):

   -64.8281 -64.8280 -64.8280 -64.8270 -31.6198 -31.6196 -31.6195 -31.6194
   -31.5976 -31.5973 -31.5967 -31.5965 -31.5765 -31.5763 -31.5760 -31.5759
    -8.2095  -8.2092  -8.2005  -8.2001   4.2850   4.2853   4.3019   4.3019
     5.7577   5.7578   5.7795   5.7795   7.0591   7.0595   7.0683   7.0690

          k = 0.2513 0.2513 0.0000 (  5159 PWs)   bands (ev):

   -64.8324 -64.8269 -64.8265 -64.8253 -31.6200 -31.6192 -31.6190 -31.6113
   -31.5956 -31.5948 -31.5948 -31.5889 -31.5887 -31.5859 -31.5762 -31.5670
    -8.9605  -8.0696  -8.0695  -7.8838   4.1644   4.1645   4.3343   5.1025
     5.8651   6.0477   6.0480   6.4959   6.4962   6.5324   7.1830   7.4704

          k = 0.2513 0.2513 0.2500 (  5156 PWs)   bands (ev):

   -64.8314 -64.8269 -64.8268 -64.8260 -31.6267 -31.6234 -31.6232 -31.6081
   -31.5969 -31.5969 -31.5957 -31.5839 -31.5839 -31.5821 -31.5727 -31.5696
    -8.7907  -8.0373  -8.0363  -8.0236   3.9947   3.9962   4.0208   5.1113
     5.8444   5.8526   5.8694   6.6562   6.7110   6.7111   7.3175   7.3605

          k = 0.2513 0.2513-0.5000 (  5152 PWs)   bands (ev):

   -64.8292 -64.8287 -64.8269 -64.8262 -31.6262 -31.6260 -31.6234 -31.6233
   -31.5973 -31.5971 -31.5801 -31.5800 -31.5797 -31.5797 -31.5763 -31.5761
    -8.3935  -8.3934  -8.0026  -8.0026   3.8112   3.8118   4.2216   4.2218
     5.8441   5.8444   6.7454   6.7457   6.8747   6.8753   6.9719   6.9720

          k = 0.2475-0.4988 0.0000 (  5153 PWs)   bands (ev):

   -64.8298 -64.8293 -64.8263 -64.8257 -31.6216 -31.6146 -31.6142 -31.6075
   -31.6072 -31.6071 -31.5867 -31.5856 -31.5853 -31.5816 -31.5781 -31.5734
    -8.5171  -8.5011  -7.9552  -7.9376   4.4075   4.4295   4.7469   4.7561
     5.0876   5.1057   6.5139   6.5636   6.5838   6.5888   7.0688   7.1213

          k = 0.2475-0.4988 0.2500 (  5136 PWs)   bands (ev):

   -64.8292 -64.8288 -64.8268 -64.8262 -31.6309 -31.6265 -31.6244 -31.6187
   -31.5938 -31.5933 -31.5823 -31.5807 -31.5795 -31.5791 -31.5771 -31.5754
    -8.4066  -8.3906  -8.0052  -7.9881   3.8043   3.8392   4.1852   4.2114
     5.8223   5.8384   6.7160   6.7666   6.8508   6.8854   7.0102   7.0261

          k = 0.2475-0.4988-0.5000 (  5146 PWs)   bands (ev):

   -64.8281 -64.8280 -64.8279 -64.8270 -31.6346 -31.6345 -31.6300 -31.6298
   -31.5853 -31.5850 -31.5827 -31.5825 -31.5760 -31.5758 -31.5750 -31.5750
    -8.1761  -8.1760  -8.1587  -8.1584   3.6210   3.6213   3.6602   3.6602
     6.4968   6.4971   6.5525   6.5526   7.0565   7.0566   7.0735   7.0740

          k = 0.2488-0.2488 0.0000 (  5143 PWs)   bands (ev):

   -64.8325 -64.8267 -64.8264 -64.8254 -31.6238 -31.6236 -31.6202 -31.6050
   -31.5946 -31.5945 -31.5899 -31.5894 -31.5849 -31.5847 -31.5758 -31.5714
    -8.9707  -8.0571  -8.0568  -7.8959   4.1596   4.1598   4.3235   5.0405
     5.8302   6.0641   6.0644   6.4746   6.4747   6.6371   7.1638   7.5422

          k = 0.2488-0.2488 0.2500 (  5142 PWs)   bands (ev):

   -64.8315 -64.8268 -64.8267 -64.8260 -31.6281 -31.6280 -31.6246 -31.6051
   -31.5921 -31.5915 -31.5913 -31.5865 -31.5840 -31.5839 -31.5745 -31.5707
    -8.8010  -8.0370  -8.0238  -8.0231   3.9806   4.0057   4.0068   5.0677
     5.8232   5.8403   5.8480   6.7009   6.7009   6.7566   7.3507   7.3946

          k = 0.2488-0.2488-0.5000 (  5128 PWs)   bands (ev):

   -64.8293 -64.8289 -64.8267 -64.8261 -31.6312 -31.6311 -31.6202 -31.6201
   -31.5898 -31.5895 -31.5822 -31.5822 -31.5806 -31.5803 -31.5766 -31.5766
    -8.4041  -8.4040  -7.9904  -7.9903   3.8316   3.8320   4.1748   4.1754
     5.8172   5.8177   6.7357   6.7358   6.8632   6.8634   7.0615   7.0619

          k =-0.5025-0.5025 0.0000 (  5188 PWs)   bands (ev):

   -64.8282 -64.8280 -64.8279 -64.8270 -31.6237 -31.6234 -31.6161 -31.6158
   -31.5975 -31.5974 -31.5973 -31.5971 -31.5783 -31.5780 -31.5745 -31.5742
    -8.2168  -8.2167  -8.1930  -8.1928   4.2864   4.2866   4.3001   4.3004
     5.7529   5.7533   5.7825   5.7828   7.0241   7.0242   7.1049   7.1052

          k =-0.5025-0.5025 0.2500 (  5144 PWs)   bands (ev):

   -64.8282 -64.8280 -64.8279 -64.8270 -31.6347 -31.6345 -31.6298 -31.6296
   -31.5845 -31.5845 -31.5823 -31.5823 -31.5784 -31.5781 -31.5737 -31.5734
    -8.1791  -8.1791  -8.1556  -8.1554   3.6254   3.6256   3.6556   3.6557
     6.5203   6.5205   6.5289   6.5291   7.0251   7.0252   7.1055   7.1059

          k =-0.5025-0.5025-0.5000 (  5136 PWs)   bands (ev):

   -64.8282 -64.8280 -64.8278 -64.8270 -31.6413 -31.6411 -31.6391 -31.6390
   -31.5776 -31.5773 -31.5763 -31.5763 -31.5746 -31.5746 -31.5736 -31.5734
    -8.1409  -8.1408  -8.1176  -8.1174   3.1991   3.1993   3.2364   3.2364
     7.0260   7.0261   7.0642   7.0642   7.0667   7.0670   7.1065   7.1067

          k = 0.2500 0.0013-0.2500 (  5154 PWs)   bands (ev):

   -64.8324 -64.8268 -64.8264 -64.8254 -31.6218 -31.6213 -31.6206 -31.6075
   -31.5951 -31.5943 -31.5933 -31.5878 -31.5869 -31.5866 -31.5759 -31.5689
    -8.9657  -8.0667  -8.0600  -7.8896   4.1561   4.1675   4.3292   5.0716
     5.8470   6.0457   6.0626   6.4832   6.4918   6.5841   7.1735   7.5069

          k = 0.2513 0.2513-0.2500 (  5156 PWs)   bands (ev):

   -64.8314 -64.8269 -64.8268 -64.8260 -31.6267 -31.6234 -31.6232 -31.6081
   -31.5969 -31.5969 -31.5957 -31.5839 -31.5839 -31.5821 -31.5727 -31.5696
    -8.7907  -8.0373  -8.0363  -8.0236   3.9947   3.9962   4.0208   5.1113
     5.8444   5.8526   5.8694   6.6562   6.7110   6.7111   7.3175   7.3605

          k =-0.4988 0.2475-0.2500 (  5136 PWs)   bands (ev):

   -64.8292 -64.8288 -64.8268 -64.8262 -31.6309 -31.6265 -31.6244 -31.6187
   -31.5938 -31.5933 -31.5823 -31.5807 -31.5795 -31.5791 -31.5771 -31.5754
    -8.4066  -8.3906  -8.0052  -7.9881   3.8043   3.8392   4.1852   4.2114
     5.8223   5.8384   6.7160   6.7666   6.8508   6.8854   7.0102   7.0261

     highest occupied level (ev):     7.7093

!    total energy              =    -608.39248704 Ry
     Harris-Foulkes estimate   =    -608.39248704 Ry
     estimated scf accuracy    <          3.7E-09 Ry

     The total energy is the sum of the following terms:

     one-electron contribution =    -303.55306175 Ry
     hartree contribution      =     168.06557280 Ry
     xc contribution           =     -97.84622902 Ry
     ewald contribution        =    -375.05876906 Ry

     convergence has been achieved in   3 iterations

     Forces acting on atoms (cartesian axes, Ry/au):

     atom    1 type  1   force =     0.00108064    0.00108064   -0.00000785
     atom    2 type  1   force =    -0.00110427    0.00103883    0.00000766
     atom    3 type  1   force =     0.00103883   -0.00110427    0.00000766
     atom    4 type  1   force =    -0.00098715   -0.00098715   -0.00000814
     atom    5 type  2   force =     0.00123809   -0.00129150   -0.00001104
     atom    6 type  2   force =    -0.00129150    0.00123809   -0.00001104
     atom    7 type  2   force =     0.00126473    0.00126473    0.00001157
     atom    8 type  2   force =    -0.00123938   -0.00123938    0.00001117

     Total force =     0.004643     Total SCF correction =     0.000077


     Computing stress (Cartesian axis) and pressure

          total   stress  (Ry/bohr**3)                   (kbar)     P=  -68.19
  -0.00046322   0.00009650   0.00000000        -68.14     14.20      0.00
   0.00009650  -0.00046322   0.00000000         14.20    -68.14      0.00
   0.00000000   0.00000000  -0.00046419          0.00      0.00    -68.28


     number of scf cycles    =   2
     number of bfgs steps    =   1

     energy   old            =    -608.3924606326 Ry
     energy   new            =    -608.3924870370 Ry

     CASE: energy  _new < energy  _old


     WARNING: bfgs curvature condition failed, Theta= 0.919
     new trust radius        =       0.0023185509 bohr
     new conv_thr            =       0.0000000003 Ry


ATOMIC_POSITIONS (alat)
Mg       0.000326701   0.000326701  -0.000003048
Mg      -0.000328646   0.500304724   0.500002971
Mg       0.500304724  -0.000328646   0.500002971
Mg       0.499709278   0.499709278  -0.000003087
O        0.500378550  -0.000399099  -0.000003767
O       -0.000399099   0.500378550  -0.000003767
O        0.000389012   0.000389012   0.500003870
O        0.499619480   0.499619480   0.500003857



     Writing output data file MgO.-0.01.70.4.save
     NEW-OLD atomic charge density approx. for the potential

     Check: negative/imaginary core charge=   -0.000007    0.000000

     total cpu time spent up to now is       15.5 secs

     per-process dynamical memory:    49.5 Mb

     Self-consistent Calculation

     iteration #  1     ecut=    70.00 Ry     beta=0.70
     Davidson diagonalization with overlap
     ethr =  1.00E-06,  avg # of iterations =  3.0

     Threshold (ethr) on eigenvalues was too large:
     Diagonalizing with lowered threshold

     Davidson diagonalization with overlap
     ethr =  3.40E-09,  avg # of iterations =  2.4

     total cpu time spent up to now is       17.8 secs

     total energy              =    -608.39251170 Ry
     Harris-Foulkes estimate   =    -608.39251294 Ry
     estimated scf accuracy    <       0.00000221 Ry

     iteration #  2     ecut=    70.00 Ry     beta=0.70
     Davidson diagonalization with overlap
     ethr =  3.45E-09,  avg # of iterations =  2.0

     total cpu time spent up to now is       18.8 secs

     total energy              =    -608.39251207 Ry
     Harris-Foulkes estimate   =    -608.39251209 Ry
     estimated scf accuracy    <       0.00000006 Ry

     iteration #  3     ecut=    70.00 Ry     beta=0.70
     Davidson diagonalization with overlap
     ethr =  9.32E-11,  avg # of iterations =  2.2

     total cpu time spent up to now is       19.8 secs

     total energy              =    -608.39251208 Ry
     Harris-Foulkes estimate   =    -608.39251209 Ry
     estimated scf accuracy    <       0.00000001 Ry

     iteration #  4     ecut=    70.00 Ry     beta=0.70
     Davidson diagonalization with overlap
     ethr =  1.77E-11,  avg # of iterations =  3.0

     total cpu time spent up to now is       20.9 secs

     total energy              =    -608.39251208 Ry
     Harris-Foulkes estimate   =    -608.39251209 Ry
     estimated scf accuracy    <          9.6E-09 Ry

     iteration #  5     ecut=    70.00 Ry     beta=0.70
     Davidson diagonalization with overlap
     ethr =  1.50E-11,  avg # of iterations =  2.3

     total cpu time spent up to now is       21.9 secs

     End of self-consistent calculation

          k = 0.0000 0.0000 0.0000 (  5141 PWs)   bands (ev):

   -64.8350 -64.8256 -64.8255 -64.8248 -31.6313 -31.6309 -31.6309 -31.5954
   -31.5937 -31.5936 -31.5930 -31.5929 -31.5915 -31.5674 -31.5656 -31.5638
    -9.3643  -7.9136  -7.9130  -7.9130   3.7584   3.7594   3.7595   6.3225
     6.3802   6.3804   6.3805   6.3808   6.4390   7.6365   7.6722   7.7092

          k = 0.0000 0.0000 0.2500 (  5149 PWs)   bands (ev):

   -64.8336 -64.8268 -64.8256 -64.8249 -31.6257 -31.6257 -31.6208 -31.5979
   -31.5978 -31.5942 -31.5941 -31.5914 -31.5868 -31.5786 -31.5740 -31.5691
    -9.1559  -8.1284  -7.8846  -7.8845   4.0483   4.0491   4.0963   5.8582
     5.8584   6.1710   6.1714   6.4878   6.5997   6.6589   7.4104   7.4920

          k = 0.0000 0.0000-0.5000 (  5130 PWs)   bands (ev):

   -64.8304 -64.8299 -64.8256 -64.8250 -31.6151 -31.6149 -31.6072 -31.6069
   -31.6023 -31.6022 -31.5915 -31.5914 -31.5834 -31.5831 -31.5784 -31.5782
    -8.6457  -8.6456  -7.8558  -7.8557   4.8405   4.8410   4.8540   4.8545
     5.1229   5.1232   5.9739   5.9742   6.9199   6.9201   7.0182   7.0184

          k = 0.0013 0.2500 0.0000 (  5165 PWs)   bands (ev):

   -64.8336 -64.8268 -64.8255 -64.8250 -31.6253 -31.6251 -31.6219 -31.6001
   -31.5986 -31.5936 -31.5932 -31.5895 -31.5890 -31.5803 -31.5720 -31.5709
    -9.1559  -8.1280  -7.8850  -7.8846   4.0486   4.0491   4.0956   5.8509
     5.8585   6.1709   6.1787   6.5432   6.5433   6.6582   7.4503   7.4520

          k = 0.0013 0.2500 0.2500 (  5154 PWs)   bands (ev):

   -64.8324 -64.8268 -64.8264 -64.8253 -31.6218 -31.6213 -31.6206 -31.6075
   -31.5951 -31.5942 -31.5933 -31.5877 -31.5869 -31.5866 -31.5758 -31.5688
    -8.9657  -8.0661  -8.0607  -7.8896   4.1572   4.1663   4.3292   5.0716
     5.8470   6.0472   6.0610   6.4837   6.4911   6.5840   7.1734   7.5068

          k = 0.0013 0.2500-0.5000 (  5150 PWs)   bands (ev):

   -64.8297 -64.8292 -64.8263 -64.8257 -31.6187 -31.6185 -31.6105 -31.6105
   -31.6069 -31.6066 -31.5857 -31.5855 -31.5841 -31.5841 -31.5754 -31.5752
    -8.5094  -8.5092  -7.9463  -7.9462   4.4187   4.4188   4.7511   4.7513
     5.0965   5.0966   6.5482   6.5484   6.5750   6.5751   7.0964   7.0965

          k =-0.0025-0.5000 0.0000 (  5128 PWs)   bands (ev):

   -64.8304 -64.8300 -64.8255 -64.8250 -31.6115 -31.6110 -31.6103 -31.6101
   -31.6027 -31.6024 -31.5923 -31.5921 -31.5809 -31.5807 -31.5802 -31.5800
    -8.6456  -8.6453  -7.8562  -7.8559   4.8469   4.8479   4.8480   4.8482
     5.1232   5.1235   5.9735   5.9749   6.9686   6.9689   6.9689   6.9691

          k =-0.0025-0.5000 0.2500 (  5154 PWs)   bands (ev):

   -64.8297 -64.8293 -64.8262 -64.8257 -31.6181 -31.6179 -31.6110 -31.6108
   -31.6073 -31.6071 -31.5857 -31.5856 -31.5841 -31.5840 -31.5755 -31.5754
    -8.5093  -8.5090  -7.9466  -7.9463   4.4181   4.4183   4.7515   4.7517
     5.0972   5.0972   6.5480   6.5488   6.5762   6.5764   7.0943   7.0946

          k =-0.0025-0.5000-0.5000 (  5180 PWs)   bands (ev):

   -64.8280 -64.8279 -64.8279 -64.8269 -31.6198 -31.6196 -31.6194 -31.6194
   -31.5975 -31.5972 -31.5968 -31.5965 -31.5765 -31.5762 -31.5760 -31.5759
    -8.2087  -8.2083  -8.2013  -8.2012   4.2866   4.2869   4.3002   4.3002
     5.7598   5.7599   5.7773   5.7773   7.0600   7.0603   7.0673   7.0680

          k = 0.2513 0.2513 0.0000 (  5159 PWs)   bands (ev):

   -64.8323 -64.8269 -64.8264 -64.8253 -31.6200 -31.6191 -31.6190 -31.6112
   -31.5955 -31.5948 -31.5947 -31.5888 -31.5887 -31.5859 -31.5761 -31.5670
    -8.9606  -8.0697  -8.0695  -7.8839   4.1644   4.1644   4.3343   5.1025
     5.8650   6.0476   6.0480   6.4959   6.4960   6.5323   7.1830   7.4703

          k = 0.2513 0.2513 0.2500 (  5156 PWs)   bands (ev):

   -64.8313 -64.8268 -64.8267 -64.8260 -31.6267 -31.6234 -31.6232 -31.6080
   -31.5968 -31.5968 -31.5957 -31.5839 -31.5839 -31.5820 -31.5727 -31.5696
    -8.7907  -8.0371  -8.0363  -8.0240   3.9951   3.9961   4.0204   5.1113
     5.8464   5.8526   5.8673   6.6561   6.7109   6.7111   7.3174   7.3604

          k = 0.2513 0.2513-0.5000 (  5152 PWs)   bands (ev):

   -64.8291 -64.8287 -64.8268 -64.8262 -31.6262 -31.6260 -31.6233 -31.6233
   -31.5973 -31.5970 -31.5801 -31.5800 -31.5796 -31.5796 -31.5763 -31.5760
    -8.3935  -8.3934  -8.0028  -8.0026   3.8113   3.8117   4.2216   4.2217
     5.8441   5.8444   6.7454   6.7457   6.8747   6.8751   6.9718   6.9720

          k = 0.2475-0.4988 0.0000 (  5153 PWs)   bands (ev):

   -64.8297 -64.8292 -64.8263 -64.8257 -31.6215 -31.6145 -31.6142 -31.6075
   -31.6071 -31.6071 -31.5867 -31.5855 -31.5852 -31.5816 -31.5780 -31.5734
    -8.5171  -8.5011  -7.9553  -7.9377   4.4075   4.4295   4.7469   4.7561
     5.0875   5.1056   6.5138   6.5635   6.5837   6.5888   7.0687   7.1212

          k = 0.2475-0.4988 0.2500 (  5136 PWs)   bands (ev):

   -64.8292 -64.8288 -64.8268 -64.8261 -31.6309 -31.6265 -31.6244 -31.6187
   -31.5938 -31.5933 -31.5823 -31.5806 -31.5794 -31.5790 -31.5771 -31.5753
    -8.4066  -8.3907  -8.0052  -7.9882   3.8042   3.8391   4.1852   4.2114
     5.8223   5.8384   6.7159   6.7665   6.8507   6.8853   7.0101   7.0260

          k = 0.2475-0.4988-0.5000 (  5146 PWs)   bands (ev):

   -64.8281 -64.8279 -64.8278 -64.8269 -31.6346 -31.6344 -31.6299 -31.6298
   -31.5852 -31.5850 -31.5826 -31.5825 -31.5759 -31.5757 -31.5750 -31.5750
    -8.1760  -8.1758  -8.1589  -8.1588   3.6213   3.6215   3.6598   3.6598
     6.4972   6.4974   6.5521   6.5522   7.0567   7.0567   7.0732   7.0736

          k = 0.2488-0.2488 0.0000 (  5143 PWs)   bands (ev):

   -64.8325 -64.8267 -64.8263 -64.8254 -31.6237 -31.6235 -31.6201 -31.6049
   -31.5945 -31.5944 -31.5899 -31.5893 -31.5848 -31.5846 -31.5758 -31.5714
    -8.9708  -8.0571  -8.0569  -7.8960   4.1595   4.1598   4.3235   5.0406
     5.8301   6.0640   6.0644   6.4745   6.4746   6.6370   7.1638   7.5421

          k = 0.2488-0.2488 0.2500 (  5142 PWs)   bands (ev):

   -64.8315 -64.8268 -64.8267 -64.8259 -31.6281 -31.6279 -31.6246 -31.6050
   -31.5920 -31.5915 -31.5913 -31.5864 -31.5840 -31.5839 -31.5745 -31.5707
    -8.8010  -8.0367  -8.0240  -8.0234   3.9810   4.0056   4.0064   5.0677
     5.8252   5.8402   5.8460   6.7007   6.7009   6.7565   7.3507   7.3945

          k = 0.2488-0.2488-0.5000 (  5128 PWs)   bands (ev):

   -64.8293 -64.8288 -64.8267 -64.8261 -31.6312 -31.6310 -31.6202 -31.6201
   -31.5898 -31.5895 -31.5822 -31.5821 -31.5806 -31.5803 -31.5766 -31.5765
    -8.4042  -8.4040  -7.9905  -7.9904   3.8317   3.8320   4.1748   4.1752
     5.8173   5.8175   6.7356   6.7358   6.8632   6.8633   7.0616   7.0617

          k =-0.5025-0.5025 0.0000 (  5188 PWs)   bands (ev):

   -64.8281 -64.8280 -64.8278 -64.8269 -31.6236 -31.6234 -31.6160 -31.6157
   -31.5975 -31.5973 -31.5973 -31.5970 -31.5783 -31.5780 -31.5744 -31.5742
    -8.2169  -8.2167  -8.1930  -8.1928   4.2865   4.2865   4.3000   4.3004
     5.7529   5.7533   5.7823   5.7828   7.0239   7.0241   7.1049   7.1050

          k =-0.5025-0.5025 0.2500 (  5144 PWs)   bands (ev):

   -64.8281 -64.8280 -64.8278 -64.8269 -31.6346 -31.6345 -31.6298 -31.6296
   -31.5845 -31.5845 -31.5822 -31.5822 -31.5783 -31.5780 -31.5736 -31.5734
    -8.1793  -8.1791  -8.1556  -8.1555   3.6254   3.6255   3.6555   3.6557
     6.5202   6.5205   6.5287   6.5291   7.0250   7.0252   7.1056   7.1056

          k =-0.5025-0.5025-0.5000 (  5136 PWs)   bands (ev):

   -64.8281 -64.8280 -64.8278 -64.8269 -31.6412 -31.6411 -31.6391 -31.6389
   -31.5776 -31.5773 -31.5763 -31.5762 -31.5746 -31.5745 -31.5736 -31.5733
    -8.1410  -8.1408  -8.1176  -8.1176   3.1991   3.1992   3.2364   3.2364
     7.0259   7.0260   7.0641   7.0642   7.0666   7.0669   7.1065   7.1065

          k = 0.2500 0.0013-0.2500 (  5154 PWs)   bands (ev):

   -64.8324 -64.8268 -64.8264 -64.8253 -31.6218 -31.6213 -31.6206 -31.6075
   -31.5951 -31.5942 -31.5933 -31.5877 -31.5869 -31.5866 -31.5758 -31.5688
    -8.9657  -8.0661  -8.0607  -7.8896   4.1572   4.1663   4.3292   5.0716
     5.8470   6.0472   6.0610   6.4837   6.4911   6.5840   7.1734   7.5068

          k = 0.2513 0.2513-0.2500 (  5156 PWs)   bands (ev):

   -64.8313 -64.8268 -64.8267 -64.8260 -31.6267 -31.6234 -31.6232 -31.6080
   -31.5968 -31.5968 -31.5957 -31.5839 -31.5839 -31.5820 -31.5727 -31.5696
    -8.7907  -8.0371  -8.0363  -8.0240   3.9951   3.9961   4.0204   5.1113
     5.8464   5.8526   5.8673   6.6561   6.7109   6.7111   7.3174   7.3604

          k =-0.4988 0.2475-0.2500 (  5136 PWs)   bands (ev):

   -64.8292 -64.8288 -64.8268 -64.8261 -31.6309 -31.6265 -31.6244 -31.6187
   -31.5938 -31.5933 -31.5823 -31.5806 -31.5794 -31.5790 -31.5771 -31.5753
    -8.4066  -8.3907  -8.0052  -7.9882   3.8042   3.8391   4.1852   4.2114
     5.8223   5.8384   6.7159   6.7665   6.8507   6.8853   7.0101   7.0260

     highest occupied level (ev):     7.7092

!    total energy              =    -608.39251208 Ry
     Harris-Foulkes estimate   =    -608.39251208 Ry
     estimated scf accuracy    <          6.1E-11 Ry

     The total energy is the sum of the following terms:

     one-electron contribution =    -303.55353844 Ry
     hartree contribution      =     168.06585743 Ry
     xc contribution           =     -97.84626395 Ry
     ewald contribution        =    -375.05856712 Ry

     convergence has been achieved in   5 iterations

     Forces acting on atoms (cartesian axes, Ry/au):

     atom    1 type  1   force =     0.00087546    0.00087546   -0.00000664
     atom    2 type  1   force =    -0.00092767    0.00090267    0.00000694
     atom    3 type  1   force =     0.00090267   -0.00092767    0.00000694
     atom    4 type  1   force =    -0.00084217   -0.00084217   -0.00000706
     atom    5 type  2   force =     0.00100004   -0.00101298   -0.00000581
     atom    6 type  2   force =    -0.00101298    0.00100004   -0.00000581
     atom    7 type  2   force =     0.00098290    0.00098290    0.00000570
     atom    8 type  2   force =    -0.00097824   -0.00097824    0.00000575

     Total force =     0.003768     Total SCF correction =     0.000017


     Computing stress (Cartesian axis) and pressure

          total   stress  (Ry/bohr**3)                   (kbar)     P=  -68.18
  -0.00046319   0.00009650  -0.00000000        -68.14     14.20     -0.00
   0.00009650  -0.00046319  -0.00000000         14.20    -68.14     -0.00
  -0.00000000  -0.00000000  -0.00046404         -0.00     -0.00    -68.26


     number of scf cycles    =   3
     number of bfgs steps    =   2

     energy   old            =    -608.3924870370 Ry
     energy   new            =    -608.3925120849 Ry

     CASE: energy  _new < energy  _old

     new trust radius        =       0.0034778263 bohr
     new conv_thr            =       0.0000000003 Ry


ATOMIC_POSITIONS (alat)
Mg       0.000590480   0.000590480  -0.000005150
Mg      -0.000604943   0.500570816   0.500005128
Mg       0.500570816  -0.000604943   0.500005128
Mg       0.499459837   0.499459837  -0.000005293
O        0.500680827  -0.000708156  -0.000005811
O       -0.000708156   0.500680827  -0.000005811
O        0.000689229   0.000689229   0.500005906
O        0.499321911   0.499321911   0.500005903



     Writing output data file MgO.-0.01.70.4.save
     NEW-OLD atomic charge density approx. for the potential

     Check: negative/imaginary core charge=   -0.000007    0.000000

     total cpu time spent up to now is       22.6 secs

     per-process dynamical memory:    49.5 Mb

     Self-consistent Calculation

     iteration #  1     ecut=    70.00 Ry     beta=0.70
     Davidson diagonalization with overlap
     ethr =  1.00E-06,  avg # of iterations =  3.0

     Threshold (ethr) on eigenvalues was too large:
     Diagonalizing with lowered threshold

     Davidson diagonalization with overlap
     ethr =  7.58E-09,  avg # of iterations =  2.1

     total cpu time spent up to now is       25.0 secs

     total energy              =    -608.39253997 Ry
     Harris-Foulkes estimate   =    -608.39254269 Ry
     estimated scf accuracy    <       0.00000486 Ry

     iteration #  2     ecut=    70.00 Ry     beta=0.70
     Davidson diagonalization with overlap
     ethr =  7.59E-09,  avg # of iterations =  2.0

     total cpu time spent up to now is       25.9 secs

     total energy              =    -608.39254078 Ry
     Harris-Foulkes estimate   =    -608.39254081 Ry
     estimated scf accuracy    <       0.00000012 Ry

     iteration #  3     ecut=    70.00 Ry     beta=0.70
     Davidson diagonalization with overlap
     ethr =  1.84E-10,  avg # of iterations =  2.0

     total cpu time spent up to now is       26.9 secs

     total energy              =    -608.39254080 Ry
     Harris-Foulkes estimate   =    -608.39254080 Ry
     estimated scf accuracy    <          7.7E-09 Ry

     iteration #  4     ecut=    70.00 Ry     beta=0.70
     Davidson diagonalization with overlap
     ethr =  1.21E-11,  avg # of iterations =  2.2

     total cpu time spent up to now is       27.9 secs

     total energy              =    -608.39254080 Ry
     Harris-Foulkes estimate   =    -608.39254080 Ry
     estimated scf accuracy    <          8.9E-10 Ry

     iteration #  5     ecut=    70.00 Ry     beta=0.70
     Davidson diagonalization with overlap
     ethr =  1.39E-12,  avg # of iterations =  3.0

     total cpu time spent up to now is       29.0 secs

     End of self-consistent calculation

          k = 0.0000 0.0000 0.0000 (  5141 PWs)   bands (ev):

   -64.8350 -64.8255 -64.8255 -64.8247 -31.6313 -31.6309 -31.6308 -31.5954
   -31.5937 -31.5936 -31.5929 -31.5928 -31.5915 -31.5674 -31.5655 -31.5638
    -9.3644  -7.9136  -7.9131  -7.9130   3.7583   3.7594   3.7594   6.3225
     6.3802   6.3803   6.3804   6.3808   6.4390   7.6365   7.6722   7.7091

          k = 0.0000 0.0000 0.2500 (  5149 PWs)   bands (ev):

   -64.8336 -64.8268 -64.8255 -64.8249 -31.6257 -31.6256 -31.6208 -31.5979
   -31.5978 -31.5941 -31.5941 -31.5914 -31.5868 -31.5785 -31.5739 -31.5691
    -9.1560  -8.1284  -7.8846  -7.8846   4.0487   4.0491   4.0958   5.8583
     5.8584   6.1710   6.1713   6.4878   6.5996   6.6589   7.4104   7.4919

          k = 0.0000 0.0000-0.5000 (  5130 PWs)   bands (ev):

   -64.8304 -64.8299 -64.8255 -64.8249 -31.6151 -31.6148 -31.6071 -31.6068
   -31.6022 -31.6022 -31.5915 -31.5914 -31.5834 -31.5831 -31.5784 -31.5781
    -8.6457  -8.6457  -7.8559  -7.8558   4.8407   4.8409   4.8542   4.8544
     5.1228   5.1230   5.9739   5.9742   6.9199   6.9200   7.0182   7.0183

          k = 0.0013 0.2500 0.0000 (  5165 PWs)   bands (ev):

   -64.8336 -64.8267 -64.8255 -64.8249 -31.6253 -31.6251 -31.6219 -31.6000
   -31.5985 -31.5936 -31.5932 -31.5895 -31.5890 -31.5802 -31.5720 -31.5709
    -9.1559  -8.1280  -7.8851  -7.8847   4.0486   4.0491   4.0956   5.8510
     5.8585   6.1709   6.1785   6.5432   6.5432   6.6581   7.4503   7.4519

          k = 0.0013 0.2500 0.2500 (  5154 PWs)   bands (ev):

   -64.8324 -64.8267 -64.8264 -64.8253 -31.6217 -31.6213 -31.6205 -31.6074
   -31.5950 -31.5942 -31.5933 -31.5877 -31.5868 -31.5866 -31.5758 -31.5688
    -8.9658  -8.0652  -8.0617  -7.8897   4.1589   4.1646   4.3291   5.0717
     5.8469   6.0495   6.0587   6.4845   6.4902   6.5839   7.1733   7.5068

          k = 0.0013 0.2500-0.5000 (  5150 PWs)   bands (ev):

   -64.8297 -64.8292 -64.8262 -64.8256 -31.6187 -31.6185 -31.6105 -31.6104
   -31.6068 -31.6066 -31.5857 -31.5854 -31.5841 -31.5840 -31.5753 -31.5752
    -8.5094  -8.5093  -7.9464  -7.9463   4.4188   4.4189   4.7510   4.7512
     5.0965   5.0965   6.5482   6.5484   6.5750   6.5750   7.0963   7.0964

          k =-0.0025-0.5000 0.0000 (  5128 PWs)   bands (ev):

   -64.8304 -64.8299 -64.8255 -64.8250 -31.6114 -31.6110 -31.6103 -31.6101
   -31.6026 -31.6024 -31.5922 -31.5921 -31.5808 -31.5806 -31.5802 -31.5800
    -8.6456  -8.6453  -7.8562  -7.8560   4.8472   4.8477   4.8479   4.8482
     5.1232   5.1234   5.9736   5.9746   6.9687   6.9688   6.9688   6.9691

          k =-0.0025-0.5000 0.2500 (  5154 PWs)   bands (ev):

   -64.8296 -64.8292 -64.8262 -64.8256 -31.6180 -31.6178 -31.6109 -31.6108
   -31.6072 -31.6070 -31.5857 -31.5855 -31.5841 -31.5840 -31.5755 -31.5753
    -8.5093  -8.5090  -7.9466  -7.9464   4.4182   4.4183   4.7514   4.7516
     5.0971   5.0973   6.5481   6.5487   6.5761   6.5763   7.0943   7.0945

          k =-0.0025-0.5000-0.5000 (  5180 PWs)   bands (ev):

   -64.8280 -64.8279 -64.8279 -64.8269 -31.6197 -31.6195 -31.6194 -31.6194
   -31.5974 -31.5971 -31.5968 -31.5966 -31.5764 -31.5762 -31.5759 -31.5759
    -8.2074  -8.2071  -8.2027  -8.2025   4.2891   4.2893   4.2976   4.2977
     5.7629   5.7630   5.7740   5.7742   7.0613   7.0615   7.0660   7.0665

          k = 0.2513 0.2513 0.0000 (  5159 PWs)   bands (ev):

   -64.8323 -64.8268 -64.8264 -64.8252 -31.6199 -31.6191 -31.6189 -31.6112
   -31.5955 -31.5948 -31.5947 -31.5888 -31.5886 -31.5859 -31.5761 -31.5669
    -8.9606  -8.0697  -8.0696  -7.8839   4.1643   4.1644   4.3343   5.1026
     5.8650   6.0476   6.0479   6.4958   6.4959   6.5322   7.1830   7.4702

          k = 0.2513 0.2513 0.2500 (  5156 PWs)   bands (ev):

   -64.8313 -64.8268 -64.8267 -64.8259 -31.6266 -31.6233 -31.6232 -31.6080
   -31.5968 -31.5967 -31.5958 -31.5838 -31.5838 -31.5820 -31.5726 -31.5696
    -8.7907  -8.0367  -8.0364  -8.0244   3.9956   3.9960   4.0198   5.1112
     5.8493   5.8525   5.8644   6.6560   6.7109   6.7111   7.3173   7.3604

          k = 0.2513 0.2513-0.5000 (  5152 PWs)   bands (ev):

   -64.8291 -64.8287 -64.8268 -64.8262 -31.6261 -31.6260 -31.6233 -31.6232
   -31.5973 -31.5970 -31.5800 -31.5799 -31.5796 -31.5796 -31.5762 -31.5760
    -8.3935  -8.3935  -8.0028  -8.0027   3.8114   3.8116   4.2215   4.2215
     5.8442   5.8443   6.7454   6.7456   6.8747   6.8749   6.9718   6.9718

          k = 0.2475-0.4988 0.0000 (  5153 PWs)   bands (ev):

   -64.8297 -64.8292 -64.8262 -64.8256 -31.6215 -31.6145 -31.6142 -31.6074
   -31.6071 -31.6070 -31.5866 -31.5855 -31.5852 -31.5816 -31.5780 -31.5733
    -8.5172  -8.5011  -7.9553  -7.9377   4.4075   4.4295   4.7468   4.7560
     5.0875   5.1056   6.5137   6.5635   6.5836   6.5887   7.0686   7.1211

          k = 0.2475-0.4988 0.2500 (  5136 PWs)   bands (ev):

   -64.8292 -64.8287 -64.8267 -64.8261 -31.6309 -31.6264 -31.6244 -31.6186
   -31.5938 -31.5933 -31.5823 -31.5806 -31.5794 -31.5790 -31.5770 -31.5753
    -8.4067  -8.3907  -8.0053  -7.9882   3.8042   3.8392   4.1851   4.2113
     5.8223   5.8384   6.7158   6.7664   6.8506   6.8853   7.0100   7.0259

          k = 0.2475-0.4988-0.5000 (  5146 PWs)   bands (ev):

   -64.8280 -64.8279 -64.8278 -64.8269 -31.6345 -31.6344 -31.6299 -31.6297
   -31.5852 -31.5849 -31.5826 -31.5824 -31.5759 -31.5757 -31.5750 -31.5749
    -8.1758  -8.1757  -8.1591  -8.1591   3.6217   3.6219   3.6594   3.6594
     6.4976   6.4977   6.5516   6.5516   7.0568   7.0569   7.0730   7.0733

          k = 0.2488-0.2488 0.0000 (  5143 PWs)   bands (ev):

   -64.8324 -64.8266 -64.8263 -64.8254 -31.6237 -31.6235 -31.6201 -31.6049
   -31.5945 -31.5944 -31.5898 -31.5893 -31.5848 -31.5846 -31.5757 -31.5713
    -8.9708  -8.0571  -8.0570  -7.8961   4.1594   4.1598   4.3235   5.0406
     5.8301   6.0639   6.0644   6.4744   6.4745   6.6369   7.1638   7.5420

          k = 0.2488-0.2488 0.2500 (  5142 PWs)   bands (ev):

   -64.8314 -64.8267 -64.8266 -64.8259 -31.6281 -31.6279 -31.6246 -31.6050
   -31.5918 -31.5915 -31.5913 -31.5864 -31.5839 -31.5839 -31.5745 -31.5707
    -8.8010  -8.0365  -8.0240  -8.0237   3.9814   4.0055   4.0059   5.0676
     5.8280   5.8401   5.8431   6.7007   6.7009   6.7564   7.3506   7.3944

          k = 0.2488-0.2488-0.5000 (  5128 PWs)   bands (ev):

   -64.8292 -64.8288 -64.8266 -64.8260 -31.6311 -31.6310 -31.6201 -31.6201
   -31.5897 -31.5894 -31.5821 -31.5821 -31.5805 -31.5802 -31.5766 -31.5765
    -8.4042  -8.4041  -7.9905  -7.9905   3.8318   3.8319   4.1748   4.1750
     5.8173   5.8175   6.7356   6.7358   6.8631   6.8632   7.0615   7.0616

          k =-0.5025-0.5025 0.0000 (  5188 PWs)   bands (ev):

   -64.8281 -64.8279 -64.8278 -64.8269 -31.6236 -31.6233 -31.6160 -31.6157
   -31.5974 -31.5973 -31.5973 -31.5970 -31.5782 -31.5779 -31.5744 -31.5741
    -8.2169  -8.2168  -8.1931  -8.1929   4.2864   4.2865   4.2999   4.3005
     5.7529   5.7532   5.7822   5.7829   7.0238   7.0240   7.1049   7.1049

          k =-0.5025-0.5025 0.2500 (  5144 PWs)   bands (ev):

   -64.8281 -64.8279 -64.8278 -64.8269 -31.6346 -31.6344 -31.6297 -31.6296
   -31.5844 -31.5844 -31.5822 -31.5822 -31.5783 -31.5780 -31.5736 -31.5734
    -8.1792  -8.1792  -8.1557  -8.1555   3.6254   3.6255   3.6554   3.6558
     6.5202   6.5205   6.5287   6.5292   7.0249   7.0250   7.1055   7.1055

          k =-0.5025-0.5025-0.5000 (  5136 PWs)   bands (ev):

   -64.8281 -64.8279 -64.8278 -64.8269 -31.6412 -31.6410 -31.6390 -31.6389
   -31.5775 -31.5773 -31.5762 -31.5762 -31.5745 -31.5745 -31.5735 -31.5733
    -8.1410  -8.1409  -8.1176  -8.1176   3.1991   3.1992   3.2363   3.2364
     7.0259   7.0259   7.0640   7.0642   7.0666   7.0669   7.1064   7.1064

          k = 0.2500 0.0013-0.2500 (  5154 PWs)   bands (ev):

   -64.8324 -64.8267 -64.8264 -64.8253 -31.6217 -31.6213 -31.6205 -31.6074
   -31.5950 -31.5942 -31.5933 -31.5877 -31.5868 -31.5866 -31.5758 -31.5688
    -8.9658  -8.0652  -8.0617  -7.8897   4.1589   4.1646   4.3291   5.0717
     5.8469   6.0495   6.0587   6.4845   6.4902   6.5839   7.1733   7.5068

          k = 0.2513 0.2513-0.2500 (  5156 PWs)   bands (ev):

   -64.8313 -64.8268 -64.8267 -64.8259 -31.6266 -31.6233 -31.6232 -31.6080
   -31.5968 -31.5967 -31.5958 -31.5838 -31.5838 -31.5820 -31.5726 -31.5696
    -8.7907  -8.0367  -8.0364  -8.0244   3.9956   3.9960   4.0198   5.1112
     5.8493   5.8525   5.8644   6.6560   6.7109   6.7111   7.3173   7.3604

          k =-0.4988 0.2475-0.2500 (  5136 PWs)   bands (ev):

   -64.8292 -64.8287 -64.8267 -64.8261 -31.6309 -31.6264 -31.6244 -31.6186
   -31.5938 -31.5933 -31.5823 -31.5806 -31.5794 -31.5790 -31.5770 -31.5753
    -8.4067  -8.3907  -8.0053  -7.9882   3.8042   3.8392   4.1851   4.2113
     5.8223   5.8384   6.7158   6.7664   6.8506   6.8853   7.0100   7.0259

     highest occupied level (ev):     7.7091

!    total energy              =    -608.39254080 Ry
     Harris-Foulkes estimate   =    -608.39254080 Ry
     estimated scf accuracy    <          9.3E-11 Ry

     The total energy is the sum of the following terms:

     one-electron contribution =    -303.55405250 Ry
     hartree contribution      =     168.06613740 Ry
     xc contribution           =     -97.84628663 Ry
     ewald contribution        =    -375.05833907 Ry

     convergence has been achieved in   5 iterations

     Forces acting on atoms (cartesian axes, Ry/au):

     atom    1 type  1   force =     0.00058820    0.00058820   -0.00000127
     atom    2 type  1   force =    -0.00066511    0.00069109    0.00000176
     atom    3 type  1   force =     0.00069109   -0.00066511    0.00000176
     atom    4 type  1   force =    -0.00063634   -0.00063634   -0.00000189
     atom    5 type  2   force =     0.00064802   -0.00061756   -0.00000083
     atom    6 type  2   force =    -0.00061756    0.00064802   -0.00000083
     atom    7 type  2   force =     0.00060451    0.00060451    0.00000069
     atom    8 type  2   force =    -0.00061281   -0.00061281    0.00000061

     Total force =     0.002535     Total SCF correction =     0.000026


     Computing stress (Cartesian axis) and pressure

          total   stress  (Ry/bohr**3)                   (kbar)     P=  -68.18
  -0.00046322   0.00009650   0.00000000        -68.14     14.20      0.00
   0.00009650  -0.00046322   0.00000000         14.20    -68.14      0.00
   0.00000000   0.00000000  -0.00046395          0.00      0.00    -68.25


     number of scf cycles    =   4
     number of bfgs steps    =   3

     energy   old            =    -608.3925120849 Ry
     energy   new            =    -608.3925408014 Ry

     CASE: energy  _new < energy  _old

     new trust radius        =       0.0052167395 bohr
     new conv_thr            =       0.0000000003 Ry


ATOMIC_POSITIONS (alat)
Mg       0.000996714   0.000996714  -0.000007490
Mg      -0.001042200   0.501004393   0.500007633
Mg       0.501004393  -0.001042200   0.500007633
Mg       0.499055852   0.499055852  -0.000007890
O        0.501139637  -0.001166408  -0.000008098
O       -0.001166408   0.501139637  -0.000008098
O        0.001135885   0.001135885   0.500008165
O        0.498876127   0.498876127   0.500008145



     Writing output data file MgO.-0.01.70.4.save
     NEW-OLD atomic charge density approx. for the potential

     Check: negative/imaginary core charge=   -0.000007    0.000000

     total cpu time spent up to now is       29.7 secs

     per-process dynamical memory:    49.5 Mb

     Self-consistent Calculation

     iteration #  1     ecut=    70.00 Ry     beta=0.70
     Davidson diagonalization with overlap
     ethr =  1.00E-06,  avg # of iterations =  3.0

     Threshold (ethr) on eigenvalues was too large:
     Diagonalizing with lowered threshold

     Davidson diagonalization with overlap
     ethr =  1.67E-08,  avg # of iterations =  1.8

     total cpu time spent up to now is       32.1 secs

     total energy              =    -608.39256123 Ry
     Harris-Foulkes estimate   =    -608.39256714 Ry
     estimated scf accuracy    <       0.00001066 Ry

     iteration #  2     ecut=    70.00 Ry     beta=0.70
     Davidson diagonalization with overlap
     ethr =  1.67E-08,  avg # of iterations =  2.0

     total cpu time spent up to now is       33.0 secs

     total energy              =    -608.39256302 Ry
     Harris-Foulkes estimate   =    -608.39256308 Ry
     estimated scf accuracy    <       0.00000027 Ry

     iteration #  3     ecut=    70.00 Ry     beta=0.70
     Davidson diagonalization with overlap
     ethr =  4.15E-10,  avg # of iterations =  2.0

     total cpu time spent up to now is       34.0 secs

     total energy              =    -608.39256305 Ry
     Harris-Foulkes estimate   =    -608.39256305 Ry
     estimated scf accuracy    <       0.00000002 Ry

     iteration #  4     ecut=    70.00 Ry     beta=0.70
     Davidson diagonalization with overlap
     ethr =  2.80E-11,  avg # of iterations =  2.2

     total cpu time spent up to now is       35.0 secs

     total energy              =    -608.39256305 Ry
     Harris-Foulkes estimate   =    -608.39256305 Ry
     estimated scf accuracy    <          2.5E-09 Ry

     iteration #  5     ecut=    70.00 Ry     beta=0.70
     Davidson diagonalization with overlap
     ethr =  3.85E-12,  avg # of iterations =  3.0

     total cpu time spent up to now is       36.1 secs

     End of self-consistent calculation

          k = 0.0000 0.0000 0.0000 (  5141 PWs)   bands (ev):

   -64.8350 -64.8255 -64.8255 -64.8247 -31.6312 -31.6309 -31.6308 -31.5954
   -31.5936 -31.5936 -31.5929 -31.5928 -31.5915 -31.5673 -31.5655 -31.5638
    -9.3644  -7.9136  -7.9132  -7.9130   3.7583   3.7594   3.7594   6.3224
     6.3802   6.3803   6.3804   6.3808   6.4390   7.6364   7.6722   7.7091

          k = 0.0000 0.0000 0.2500 (  5149 PWs)   bands (ev):

   -64.8336 -64.8267 -64.8255 -64.8249 -31.6257 -31.6256 -31.6207 -31.5978
   -31.5978 -31.5941 -31.5940 -31.5913 -31.5867 -31.5785 -31.5739 -31.5690
    -9.1560  -8.1284  -7.8847  -7.8846   4.0490   4.0490   4.0955   5.8583
     5.8583   6.1710   6.1714   6.4877   6.5996   6.6589   7.4103   7.4919

          k = 0.0000 0.0000-0.5000 (  5130 PWs)   bands (ev):

   -64.8303 -64.8299 -64.8255 -64.8249 -31.6151 -31.6148 -31.6070 -31.6068
   -31.6022 -31.6021 -31.5914 -31.5914 -31.5833 -31.5831 -31.5783 -31.5781
    -8.6458  -8.6457  -7.8560  -7.8558   4.8408   4.8409   4.8543   4.8544
     5.1226   5.1229   5.9738   5.9742   6.9199   6.9199   7.0181   7.0182

          k = 0.0013 0.2500 0.0000 (  5165 PWs)   bands (ev):

   -64.8336 -64.8267 -64.8255 -64.8249 -31.6252 -31.6251 -31.6219 -31.6000
   -31.5985 -31.5935 -31.5932 -31.5894 -31.5890 -31.5802 -31.5719 -31.5708
    -9.1559  -8.1281  -7.8851  -7.8847   4.0486   4.0491   4.0956   5.8512
     5.8585   6.1709   6.1783   6.5431   6.5432   6.6581   7.4503   7.4518

          k = 0.0013 0.2500 0.2500 (  5154 PWs)   bands (ev):

   -64.8323 -64.8267 -64.8263 -64.8253 -31.6217 -31.6212 -31.6205 -31.6074
   -31.5949 -31.5942 -31.5932 -31.5877 -31.5868 -31.5865 -31.5758 -31.5688
    -8.9658  -8.0638  -8.0632  -7.8897   4.1613   4.1622   4.3291   5.0717
     5.8469   6.0522   6.0559   6.4853   6.4894   6.5839   7.1733   7.5067

          k = 0.0013 0.2500-0.5000 (  5150 PWs)   bands (ev):

   -64.8296 -64.8292 -64.8262 -64.8256 -31.6186 -31.6184 -31.6104 -31.6104
   -31.6068 -31.6065 -31.5856 -31.5854 -31.5840 -31.5840 -31.5753 -31.5751
    -8.5094  -8.5093  -7.9465  -7.9463   4.4188   4.4189   4.7510   4.7512
     5.0965   5.0966   6.5482   6.5484   6.5749   6.5750   7.0963   7.0964

          k =-0.0025-0.5000 0.0000 (  5128 PWs)   bands (ev):

   -64.8303 -64.8299 -64.8255 -64.8249 -31.6113 -31.6110 -31.6103 -31.6101
   -31.6025 -31.6024 -31.5921 -31.5921 -31.5808 -31.5806 -31.5801 -31.5799
    -8.6457  -8.6453  -7.8562  -7.8561   4.8473   4.8477   4.8477   4.8483
     5.1231   5.1234   5.9739   5.9742   6.9686   6.9687   6.9688   6.9690

          k =-0.0025-0.5000 0.2500 (  5154 PWs)   bands (ev):

   -64.8296 -64.8292 -64.8262 -64.8256 -31.6180 -31.6178 -31.6108 -31.6108
   -31.6072 -31.6070 -31.5857 -31.5855 -31.5840 -31.5840 -31.5755 -31.5753
    -8.5093  -8.5090  -7.9466  -7.9465   4.4181   4.4184   4.7513   4.7516
     5.0969   5.0974   6.5482   6.5485   6.5760   6.5764   7.0943   7.0944

          k =-0.0025-0.5000-0.5000 (  5180 PWs)   bands (ev):

   -64.8279 -64.8279 -64.8279 -64.8269 -31.6197 -31.6195 -31.6194 -31.6194
   -31.5972 -31.5970 -31.5969 -31.5966 -31.5763 -31.5761 -31.5760 -31.5759
    -8.2055  -8.2052  -8.2046  -8.2045   4.2927   4.2928   4.2940   4.2941
     5.7673   5.7679   5.7692   5.7696   7.0633   7.0633   7.0641   7.0644

          k = 0.2513 0.2513 0.0000 (  5159 PWs)   bands (ev):

   -64.8323 -64.8268 -64.8264 -64.8252 -31.6199 -31.6190 -31.6189 -31.6112
   -31.5954 -31.5947 -31.5947 -31.5887 -31.5886 -31.5858 -31.5761 -31.5669
    -8.9606  -8.0697  -8.0696  -7.8840   4.1643   4.1644   4.3342   5.1026
     5.8649   6.0475   6.0479   6.4958   6.4959   6.5321   7.1830   7.4702

          k = 0.2513 0.2513 0.2500 (  5156 PWs)   bands (ev):

   -64.8313 -64.8268 -64.8267 -64.8259 -31.6266 -31.6233 -31.6231 -31.6079
   -31.5968 -31.5966 -31.5958 -31.5838 -31.5838 -31.5819 -31.5726 -31.5695
    -8.7908  -8.0365  -8.0364  -8.0247   3.9959   3.9960   4.0195   5.1112
     5.8522   5.8525   5.8615   6.6560   6.7108   6.7110   7.3173   7.3603

          k = 0.2513 0.2513-0.5000 (  5152 PWs)   bands (ev):

   -64.8290 -64.8286 -64.8268 -64.8262 -31.6261 -31.6259 -31.6233 -31.6232
   -31.5972 -31.5970 -31.5800 -31.5799 -31.5796 -31.5795 -31.5762 -31.5759
    -8.3936  -8.3934  -8.0029  -8.0027   3.8115   3.8116   4.2214   4.2215
     5.8442   5.8443   6.7454   6.7456   6.8747   6.8748   6.9717   6.9718

          k = 0.2475-0.4988 0.0000 (  5153 PWs)   bands (ev):

   -64.8296 -64.8292 -64.8262 -64.8256 -31.6214 -31.6144 -31.6141 -31.6074
   -31.6070 -31.6070 -31.5866 -31.5854 -31.5852 -31.5815 -31.5780 -31.5733
    -8.5172  -8.5012  -7.9554  -7.9378   4.4075   4.4295   4.7468   4.7560
     5.0875   5.1056   6.5137   6.5635   6.5836   6.5887   7.0685   7.1210

          k = 0.2475-0.4988 0.2500 (  5136 PWs)   bands (ev):

   -64.8291 -64.8287 -64.8267 -64.8261 -31.6308 -31.6264 -31.6243 -31.6186
   -31.5937 -31.5932 -31.5822 -31.5805 -31.5794 -31.5790 -31.5770 -31.5753
    -8.4067  -8.3907  -8.0053  -7.9883   3.8042   3.8392   4.1851   4.2113
     5.8223   5.8384   6.7158   6.7664   6.8506   6.8852   7.0100   7.0258

          k = 0.2475-0.4988-0.5000 (  5146 PWs)   bands (ev):

   -64.8280 -64.8279 -64.8278 -64.8269 -31.6345 -31.6343 -31.6298 -31.6297
   -31.5851 -31.5849 -31.5826 -31.5824 -31.5758 -31.5757 -31.5749 -31.5749
    -8.1756  -8.1755  -8.1594  -8.1593   3.6220   3.6221   3.6591   3.6592
     6.4979   6.4980   6.5513   6.5513   7.0569   7.0571   7.0728   7.0730

          k = 0.2488-0.2488 0.0000 (  5143 PWs)   bands (ev):

   -64.8324 -64.8266 -64.8263 -64.8253 -31.6237 -31.6234 -31.6201 -31.6048
   -31.5944 -31.5944 -31.5898 -31.5893 -31.5847 -31.5846 -31.5757 -31.5713
    -8.9708  -8.0572  -8.0570  -7.8961   4.1594   4.1598   4.3235   5.0406
     5.8301   6.0638   6.0644   6.4744   6.4745   6.6368   7.1638   7.5420

          k = 0.2488-0.2488 0.2500 (  5142 PWs)   bands (ev):

   -64.8314 -64.8267 -64.8266 -64.8259 -31.6280 -31.6278 -31.6245 -31.6050
   -31.5917 -31.5915 -31.5913 -31.5864 -31.5839 -31.5838 -31.5744 -31.5706
    -8.8011  -8.0363  -8.0241  -8.0239   3.9817   4.0054   4.0057   5.0676
     5.8307   5.8400   5.8404   6.7006   6.7008   6.7564   7.3506   7.3943

          k = 0.2488-0.2488-0.5000 (  5128 PWs)   bands (ev):

   -64.8292 -64.8288 -64.8266 -64.8260 -31.6311 -31.6309 -31.6201 -31.6200
   -31.5896 -31.5894 -31.5821 -31.5821 -31.5805 -31.5802 -31.5765 -31.5765
    -8.4042  -8.4041  -7.9906  -7.9905   3.8319   3.8319   4.1747   4.1749
     5.8174   5.8174   6.7355   6.7358   6.8630   6.8632   7.0614   7.0615

          k =-0.5025-0.5025 0.0000 (  5188 PWs)   bands (ev):

   -64.8281 -64.8279 -64.8277 -64.8269 -31.6236 -31.6233 -31.6159 -31.6157
   -31.5974 -31.5973 -31.5972 -31.5970 -31.5782 -31.5779 -31.5743 -31.5741
    -8.2170  -8.2168  -8.1931  -8.1929   4.2864   4.2865   4.2999   4.3004
     5.7528   5.7532   5.7822   5.7829   7.0238   7.0240   7.1048   7.1049

          k =-0.5025-0.5025 0.2500 (  5144 PWs)   bands (ev):

   -64.8281 -64.8279 -64.8277 -64.8269 -31.6346 -31.6344 -31.6297 -31.6295
   -31.5844 -31.5844 -31.5822 -31.5821 -31.5783 -31.5780 -31.5736 -31.5733
    -8.1793  -8.1792  -8.1558  -8.1555   3.6254   3.6254   3.6554   3.6557
     6.5202   6.5205   6.5286   6.5292   7.0248   7.0250   7.1054   7.1055

          k =-0.5025-0.5025-0.5000 (  5136 PWs)   bands (ev):

   -64.8280 -64.8279 -64.8277 -64.8269 -31.6412 -31.6410 -31.6390 -31.6388
   -31.5775 -31.5772 -31.5762 -31.5761 -31.5745 -31.5745 -31.5735 -31.5733
    -8.1411  -8.1409  -8.1177  -8.1176   3.1991   3.1991   3.2363   3.2364
     7.0258   7.0258   7.0640   7.0642   7.0666   7.0669   7.1063   7.1064

          k = 0.2500 0.0013-0.2500 (  5154 PWs)   bands (ev):

   -64.8323 -64.8267 -64.8263 -64.8253 -31.6217 -31.6212 -31.6205 -31.6074
   -31.5949 -31.5942 -31.5932 -31.5877 -31.5868 -31.5865 -31.5758 -31.5688
    -8.9658  -8.0638  -8.0632  -7.8897   4.1613   4.1622   4.3291   5.0717
     5.8469   6.0522   6.0559   6.4853   6.4894   6.5839   7.1733   7.5067

          k = 0.2513 0.2513-0.2500 (  5156 PWs)   bands (ev):

   -64.8313 -64.8268 -64.8267 -64.8259 -31.6266 -31.6233 -31.6231 -31.6079
   -31.5968 -31.5966 -31.5958 -31.5838 -31.5838 -31.5819 -31.5726 -31.5695
    -8.7908  -8.0365  -8.0364  -8.0247   3.9959   3.9960   4.0195   5.1112
     5.8522   5.8525   5.8615   6.6560   6.7108   6.7110   7.3173   7.3603

          k =-0.4988 0.2475-0.2500 (  5136 PWs)   bands (ev):

   -64.8291 -64.8287 -64.8267 -64.8261 -31.6308 -31.6264 -31.6243 -31.6186
   -31.5937 -31.5932 -31.5822 -31.5805 -31.5794 -31.5790 -31.5770 -31.5753
    -8.4067  -8.3907  -8.0053  -7.9883   3.8042   3.8392   4.1851   4.2113
     5.8223   5.8384   6.7158   6.7664   6.8506   6.8852   7.0100   7.0258

     highest occupied level (ev):     7.7091

!    total energy              =    -608.39256305 Ry
     Harris-Foulkes estimate   =    -608.39256305 Ry
     estimated scf accuracy    <          2.4E-10 Ry

     The total energy is the sum of the following terms:

     one-electron contribution =    -303.55443463 Ry
     hartree contribution      =     168.06634128 Ry
     xc contribution           =     -97.84629922 Ry
     ewald contribution        =    -375.05817048 Ry

     convergence has been achieved in   5 iterations

     Forces acting on atoms (cartesian axes, Ry/au):

     atom    1 type  1   force =     0.00014952    0.00014952    0.00000438
     atom    2 type  1   force =    -0.00023925    0.00032703   -0.00000385
     atom    3 type  1   force =     0.00032703   -0.00023925   -0.00000385
     atom    4 type  1   force =    -0.00029147   -0.00029147    0.00000375
     atom    5 type  2   force =     0.00011735   -0.00004521    0.00000479
     atom    6 type  2   force =    -0.00004521    0.00011735    0.00000479
     atom    7 type  2   force =     0.00005619    0.00005619   -0.00000492
     atom    8 type  2   force =    -0.00007416   -0.00007416   -0.00000510

     Total force =     0.000769     Total SCF correction =     0.000039


     Computing stress (Cartesian axis) and pressure

          total   stress  (Ry/bohr**3)                   (kbar)     P=  -68.18
  -0.00046326   0.00009650   0.00000000        -68.15     14.20      0.00
   0.00009650  -0.00046326   0.00000000         14.20    -68.15      0.00
   0.00000000   0.00000000  -0.00046389          0.00      0.00    -68.24


     number of scf cycles    =   5
     number of bfgs steps    =   4

     energy   old            =    -608.3925408014 Ry
     energy   new            =    -608.3925630541 Ry

     CASE: energy  _new < energy  _old

     new trust radius        =       0.0019073455 bohr
     new conv_thr            =       0.0000000002 Ry


ATOMIC_POSITIONS (alat)
Mg       0.001136082   0.001136082  -0.000007523
Mg      -0.001203701   0.501177973   0.500007791
Mg       0.501177973  -0.001203701   0.500007791
Mg       0.498895951   0.498895951  -0.000008089
O        0.501289261  -0.001305293  -0.000008066
O       -0.001305293   0.501289261  -0.000008066
O        0.001273146   0.001273146   0.500008107
O        0.498736580   0.498736580   0.500008056



     Writing output data file MgO.-0.01.70.4.save
     NEW-OLD atomic charge density approx. for the potential

     Check: negative/imaginary core charge=   -0.000007    0.000000

     total cpu time spent up to now is       36.8 secs

     per-process dynamical memory:    49.5 Mb

     Self-consistent Calculation

     iteration #  1     ecut=    70.00 Ry     beta=0.70
     Davidson diagonalization with overlap
     ethr =  1.00E-06,  avg # of iterations =  3.0

     Threshold (ethr) on eigenvalues was too large:
     Diagonalizing with lowered threshold

     Davidson diagonalization with overlap
     ethr =  1.41E-09,  avg # of iterations =  3.0

     total cpu time spent up to now is       39.2 secs

     total energy              =    -608.39256464 Ry
     Harris-Foulkes estimate   =    -608.39256516 Ry
     estimated scf accuracy    <       0.00000098 Ry

     iteration #  2     ecut=    70.00 Ry     beta=0.70
     Davidson diagonalization with overlap
     ethr =  1.53E-09,  avg # of iterations =  2.0

     total cpu time spent up to now is       40.2 secs

     total energy              =    -608.39256480 Ry
     Harris-Foulkes estimate   =    -608.39256480 Ry
     estimated scf accuracy    <       0.00000003 Ry

     iteration #  3     ecut=    70.00 Ry     beta=0.70
     Davidson diagonalization with overlap
     ethr =  4.38E-11,  avg # of iterations =  2.1

     total cpu time spent up to now is       41.2 secs

     total energy              =    -608.39256480 Ry
     Harris-Foulkes estimate   =    -608.39256480 Ry
     estimated scf accuracy    <          3.9E-09 Ry

     iteration #  4     ecut=    70.00 Ry     beta=0.70
     Davidson diagonalization with overlap
     ethr =  6.12E-12,  avg # of iterations =  3.0

     total cpu time spent up to now is       42.3 secs

     total energy              =    -608.39256480 Ry
     Harris-Foulkes estimate   =    -608.39256480 Ry
     estimated scf accuracy    <          4.0E-09 Ry

     iteration #  5     ecut=    70.00 Ry     beta=0.70
     Davidson diagonalization with overlap
     ethr =  6.12E-12,  avg # of iterations =  2.7

     total cpu time spent up to now is       43.4 secs

     End of self-consistent calculation

          k = 0.0000 0.0000 0.0000 (  5141 PWs)   bands (ev):

   -64.8350 -64.8255 -64.8255 -64.8247 -31.6312 -31.6309 -31.6308 -31.5954
   -31.5936 -31.5936 -31.5928 -31.5928 -31.5915 -31.5673 -31.5655 -31.5638
    -9.3644  -7.9136  -7.9131  -7.9131   3.7583   3.7594   3.7594   6.3224
     6.3802   6.3802   6.3804   6.3807   6.4390   7.6364   7.6722   7.7091

          k = 0.0000 0.0000 0.2500 (  5149 PWs)   bands (ev):

   -64.8336 -64.8267 -64.8255 -64.8249 -31.6257 -31.6256 -31.6207 -31.5978
   -31.5978 -31.5941 -31.5940 -31.5913 -31.5867 -31.5785 -31.5739 -31.5690
    -9.1560  -8.1284  -7.8847  -7.8846   4.0490   4.0490   4.0955   5.8583
     5.8583   6.1710   6.1713   6.4877   6.5996   6.6589   7.4103   7.4919

          k = 0.0000 0.0000-0.5000 (  5130 PWs)   bands (ev):

   -64.8303 -64.8299 -64.8255 -64.8249 -31.6150 -31.6148 -31.6070 -31.6068
   -31.6022 -31.6021 -31.5914 -31.5914 -31.5833 -31.5831 -31.5783 -31.5781
    -8.6458  -8.6457  -7.8559  -7.8559   4.8408   4.8409   4.8543   4.8543
     5.1226   5.1229   5.9739   5.9742   6.9199   6.9199   7.0182   7.0182

          k = 0.0013 0.2500 0.0000 (  5165 PWs)   bands (ev):

   -64.8336 -64.8267 -64.8255 -64.8249 -31.6252 -31.6251 -31.6218 -31.6000
   -31.5985 -31.5935 -31.5932 -31.5894 -31.5889 -31.5802 -31.5719 -31.5708
    -9.1559  -8.1281  -7.8851  -7.8847   4.0486   4.0491   4.0956   5.8512
     5.8585   6.1709   6.1783   6.5431   6.5432   6.6581   7.4503   7.4518

          k = 0.0013 0.2500 0.2500 (  5154 PWs)   bands (ev):

   -64.8323 -64.8267 -64.8263 -64.8253 -31.6217 -31.6212 -31.6205 -31.6074
   -31.5949 -31.5942 -31.5932 -31.5877 -31.5868 -31.5865 -31.5758 -31.5688
    -8.9658  -8.0637  -8.0633  -7.8898   4.1613   4.1622   4.3291   5.0717
     5.8469   6.0523   6.0559   6.4853   6.4893   6.5839   7.1733   7.5067

          k = 0.0013 0.2500-0.5000 (  5150 PWs)   bands (ev):

   -64.8296 -64.8292 -64.8262 -64.8256 -31.6186 -31.6184 -31.6104 -31.6104
   -31.6068 -31.6065 -31.5856 -31.5854 -31.5840 -31.5840 -31.5753 -31.5751
    -8.5094  -8.5093  -7.9464  -7.9464   4.4188   4.4189   4.7510   4.7512
     5.0965   5.0965   6.5482   6.5484   6.5749   6.5749   7.0963   7.0964

          k =-0.0025-0.5000 0.0000 (  5128 PWs)   bands (ev):

   -64.8303 -64.8299 -64.8255 -64.8249 -31.6113 -31.6110 -31.6103 -31.6100
   -31.6025 -31.6024 -31.5921 -31.5921 -31.5808 -31.5806 -31.5801 -31.5799
    -8.6457  -8.6453  -7.8562  -7.8561   4.8471   4.8477   4.8479   4.8484
     5.1231   5.1235   5.9739   5.9742   6.9685   6.9687   6.9689   6.9691

          k =-0.0025-0.5000 0.2500 (  5154 PWs)   bands (ev):

   -64.8296 -64.8292 -64.8262 -64.8256 -31.6180 -31.6178 -31.6108 -31.6108
   -31.6072 -31.6070 -31.5857 -31.5855 -31.5840 -31.5840 -31.5754 -31.5753
    -8.5094  -8.5090  -7.9466  -7.9465   4.4181   4.4184   4.7513   4.7516
     5.0968   5.0975   6.5482   6.5485   6.5759   6.5764   7.0943   7.0945

          k =-0.0025-0.5000-0.5000 (  5180 PWs)   bands (ev):

   -64.8279 -64.8279 -64.8279 -64.8269 -31.6197 -31.6195 -31.6194 -31.6193
   -31.5971 -31.5970 -31.5969 -31.5967 -31.5763 -31.5761 -31.5760 -31.5759
    -8.2053  -8.2051  -8.2049  -8.2046   4.2929   4.2930   4.2938   4.2939
     5.7677   5.7682   5.7688   5.7693   7.0634   7.0637   7.0639   7.0640

          k = 0.2513 0.2513 0.0000 (  5159 PWs)   bands (ev):

   -64.8323 -64.8268 -64.8264 -64.8252 -31.6199 -31.6190 -31.6189 -31.6112
   -31.5954 -31.5947 -31.5947 -31.5887 -31.5886 -31.5858 -31.5761 -31.5669
    -8.9606  -8.0697  -8.0696  -7.8840   4.1643   4.1643   4.3342   5.1026
     5.8649   6.0475   6.0479   6.4958   6.4958   6.5321   7.1830   7.4702

          k = 0.2513 0.2513 0.2500 (  5156 PWs)   bands (ev):

   -64.8312 -64.8268 -64.8267 -64.8259 -31.6266 -31.6232 -31.6231 -31.6079
[...]

   -64.8292 -64.8288 -64.8266 -64.8260 -31.6311 -31.6309 -31.6201 -31.6200
   -31.5896 -31.5894 -31.5821 -31.5820 -31.5805 -31.5802 -31.5765 -31.5764
    -8.4042  -8.4041  -7.9906  -7.9905   3.8319   3.8319   4.1747   4.1749
     5.8174   5.8174   6.7356   6.7358   6.8630   6.8632   7.0615   7.0615

          k =-0.5025-0.5025 0.0000 (  5188 PWs)   bands (ev):

   -64.8281 -64.8279 -64.8277 -64.8269 -31.6236 -31.6233 -31.6159 -31.6157
   -31.5974 -31.5972 -31.5972 -31.5970 -31.5782 -31.5779 -31.5743 -31.5741
    -8.2169  -8.2169  -8.1931  -8.1929   4.2864   4.2864   4.3001   4.3003
     5.7529   5.7532   5.7823   5.7827   7.0238   7.0239   7.1048   7.1048

          k =-0.5025-0.5025 0.2500 (  5144 PWs)   bands (ev):

   -64.8280 -64.8279 -64.8277 -64.8269 -31.6346 -31.6344 -31.6297 -31.6295
   -31.5844 -31.5844 -31.5821 -31.5821 -31.5783 -31.5780 -31.5736 -31.5733
    -8.1793  -8.1792  -8.1557  -8.1556   3.6254   3.6254   3.6555   3.6556
     6.5202   6.5205   6.5287   6.5291   7.0249   7.0249   7.1054   7.1054

          k =-0.5025-0.5025-0.5000 (  5136 PWs)   bands (ev):

   -64.8280 -64.8279 -64.8277 -64.8269 -31.6412 -31.6410 -31.6390 -31.6388
   -31.5775 -31.5772 -31.5762 -31.5761 -31.5745 -31.5745 -31.5735 -31.5733
    -8.1411  -8.1410  -8.1177  -8.1176   3.1991   3.1991   3.2363   3.2364
     7.0258   7.0258   7.0640   7.0642   7.0666   7.0669   7.1063   7.1064

          k = 0.2500 0.0013-0.2500 (  5154 PWs)   bands (ev):

   -64.8323 -64.8267 -64.8263 -64.8253 -31.6217 -31.6212 -31.6205 -31.6074
   -31.5949 -31.5942 -31.5932 -31.5877 -31.5868 -31.5865 -31.5758 -31.5688
    -8.9658  -8.0637  -8.0633  -7.8898   4.1613   4.1621   4.3291   5.0717
     5.8469   6.0523   6.0559   6.4853   6.4893   6.5839   7.1733   7.5067

          k = 0.2513 0.2513-0.2500 (  5156 PWs)   bands (ev):

   -64.8312 -64.8268 -64.8267 -64.8259 -31.6266 -31.6232 -31.6231 -31.6079
   -31.5967 -31.5965 -31.5958 -31.5838 -31.5838 -31.5819 -31.5726 -31.5695
    -8.7908  -8.0365  -8.0364  -8.0247   3.9959   3.9960   4.0195   5.1112
     5.8523   5.8525   5.8613   6.6560   6.7108   6.7110   7.3173   7.3603

          k =-0.4988 0.2475-0.2500 (  5136 PWs)   bands (ev):

   -64.8291 -64.8287 -64.8267 -64.8261 -31.6308 -31.6264 -31.6243 -31.6186
   -31.5937 -31.5932 -31.5822 -31.5805 -31.5794 -31.5790 -31.5770 -31.5753
    -8.4067  -8.3907  -8.0053  -7.9883   3.8042   3.8392   4.1851   4.2113
     5.8223   5.8384   6.7158   6.7664   6.8505   6.8852   7.0100   7.0258

     highest occupied level (ev):     7.7091

!    total energy              =    -608.39256496 Ry
     Harris-Foulkes estimate   =    -608.39256496 Ry
     estimated scf accuracy    <          2.1E-11 Ry

     The total energy is the sum of the following terms:

     one-electron contribution =    -303.55442651 Ry
     hartree contribution      =     168.06634246 Ry
     xc contribution           =     -97.84630075 Ry
     ewald contribution        =    -375.05818016 Ry

     convergence has been achieved in   4 iterations

     Forces acting on atoms (cartesian axes, Ry/au):

     atom    1 type  1   force =    -0.00001248   -0.00001248    0.00000307
     atom    2 type  1   force =    -0.00004063    0.00011642   -0.00000279
     atom    3 type  1   force =     0.00011642   -0.00004063   -0.00000279
     atom    4 type  1   force =    -0.00010453   -0.00010453    0.00000285
     atom    5 type  2   force =    -0.00005160    0.00009393    0.00000317
     atom    6 type  2   force =     0.00009393   -0.00005160    0.00000317
     atom    7 type  2   force =    -0.00007838   -0.00007838   -0.00000328
     atom    8 type  2   force =     0.00007728    0.00007728   -0.00000339

     Total force =     0.000316     Total SCF correction =     0.000006


     Computing stress (Cartesian axis) and pressure

          total   stress  (Ry/bohr**3)                   (kbar)     P=  -68.18
  -0.00046326   0.00009650   0.00000000        -68.15     14.20      0.00
   0.00009650  -0.00046326   0.00000000         14.20    -68.15      0.00
   0.00000000   0.00000000  -0.00046388          0.00      0.00    -68.24


     number of scf cycles    =   7
     number of bfgs steps    =   6

     energy   old            =    -608.3925648026 Ry
     energy   new            =    -608.3925649632 Ry

     CASE: energy  _new < energy  _old

     new trust radius        =       0.0003595002 bohr
     new conv_thr            =            1.0E-10 Ry


ATOMIC_POSITIONS (alat)
Mg       0.001145370   0.001145370  -0.000006145
Mg      -0.001238674   0.501245671   0.500006557
Mg       0.501245671  -0.001238674   0.500006557
Mg       0.498835633   0.498835633  -0.000006836
O        0.501282488  -0.001278035  -0.000006595
O       -0.001278035   0.501282488  -0.000006595
O        0.001252195   0.001252195   0.500006579
O        0.498755351   0.498755351   0.500006479



     Writing output data file MgO.-0.01.70.4.save
     NEW-OLD atomic charge density approx. for the potential

     Check: negative/imaginary core charge=   -0.000007    0.000000

     total cpu time spent up to now is       50.4 secs

     per-process dynamical memory:    49.5 Mb

     Self-consistent Calculation

     iteration #  1     ecut=    70.00 Ry     beta=0.70
     Davidson diagonalization with overlap
     ethr =  1.00E-06,  avg # of iterations =  2.0

     Threshold (ethr) on eigenvalues was too large:
     Diagonalizing with lowered threshold

     Davidson diagonalization with overlap
     ethr =  3.50E-11,  avg # of iterations =  3.7

     total cpu time spent up to now is       52.9 secs

     total energy              =    -608.39256512 Ry
     Harris-Foulkes estimate   =    -608.39256514 Ry
     estimated scf accuracy    <       0.00000003 Ry

     iteration #  2     ecut=    70.00 Ry     beta=0.70
     Davidson diagonalization with overlap
     ethr =  5.32E-11,  avg # of iterations =  2.0

     total cpu time spent up to now is       53.8 secs

     total energy              =    -608.39256513 Ry
     Harris-Foulkes estimate   =    -608.39256513 Ry
     estimated scf accuracy    <          9.1E-10 Ry

     iteration #  3     ecut=    70.00 Ry     beta=0.70
     Davidson diagonalization with overlap
     ethr =  1.42E-12,  avg # of iterations =  2.8

     total cpu time spent up to now is       54.9 secs

     total energy              =    -608.39256513 Ry
     Harris-Foulkes estimate   =    -608.39256513 Ry
     estimated scf accuracy    <          2.2E-10 Ry

     iteration #  4     ecut=    70.00 Ry     beta=0.70
     Davidson diagonalization with overlap
     ethr =  3.40E-13,  avg # of iterations =  3.0

     total cpu time spent up to now is       56.0 secs

     End of self-consistent calculation

          k = 0.0000 0.0000 0.0000 (  5141 PWs)   bands (ev):

   -64.8350 -64.8255 -64.8255 -64.8247 -31.6312 -31.6309 -31.6308 -31.5954
   -31.5936 -31.5936 -31.5928 -31.5928 -31.5915 -31.5673 -31.5655 -31.5638
    -9.3644  -7.9136  -7.9131  -7.9131   3.7583   3.7594   3.7594   6.3224
     6.3802   6.3802   6.3804   6.3807   6.4390   7.6364   7.6722   7.7091

          k = 0.0000 0.0000 0.2500 (  5149 PWs)   bands (ev):

   -64.8336 -64.8267 -64.8255 -64.8249 -31.6257 -31.6256 -31.6207 -31.5978
   -31.5978 -31.5941 -31.5940 -31.5913 -31.5867 -31.5785 -31.5739 -31.5690
    -9.1560  -8.1284  -7.8847  -7.8846   4.0490   4.0490   4.0955   5.8583
     5.8583   6.1710   6.1713   6.4877   6.5996   6.6589   7.4103   7.4919

          k = 0.0000 0.0000-0.5000 (  5130 PWs)   bands (ev):

   -64.8303 -64.8299 -64.8255 -64.8249 -31.6150 -31.6148 -31.6070 -31.6068
   -31.6022 -31.6021 -31.5914 -31.5914 -31.5833 -31.5831 -31.5783 -31.5781
    -8.6458  -8.6457  -7.8559  -7.8559   4.8408   4.8409   4.8543   4.8543
     5.1226   5.1229   5.9739   5.9742   6.9199   6.9199   7.0182   7.0182

          k = 0.0013 0.2500 0.0000 (  5165 PWs)   bands (ev):

   -64.8336 -64.8267 -64.8255 -64.8249 -31.6252 -31.6251 -31.6218 -31.6000
   -31.5985 -31.5935 -31.5932 -31.5894 -31.5889 -31.5802 -31.5719 -31.5708
    -9.1559  -8.1281  -7.8851  -7.8847   4.0486   4.0491   4.0956   5.8512
     5.8585   6.1709   6.1783   6.5431   6.5432   6.6581   7.4503   7.4518

          k = 0.0013 0.2500 0.2500 (  5154 PWs)   bands (ev):

   -64.8323 -64.8267 -64.8263 -64.8253 -31.6217 -31.6212 -31.6205 -31.6074
   -31.5949 -31.5942 -31.5932 -31.5877 -31.5868 -31.5865 -31.5758 -31.5688
    -8.9658  -8.0637  -8.0633  -7.8898   4.1614   4.1620   4.3291   5.0717
     5.8469   6.0523   6.0558   6.4853   6.4893   6.5839   7.1733   7.5067

          k = 0.0013 0.2500-0.5000 (  5150 PWs)   bands (ev):

   -64.8296 -64.8292 -64.8262 -64.8256 -31.6186 -31.6184 -31.6104 -31.6104
   -31.6068 -31.6065 -31.5856 -31.5854 -31.5840 -31.5840 -31.5753 -31.5751
    -8.5094  -8.5093  -7.9464  -7.9464   4.4188   4.4189   4.7510   4.7512
     5.0965   5.0965   6.5482   6.5484   6.5749   6.5749   7.0963   7.0964

          k =-0.0025-0.5000 0.0000 (  5128 PWs)   bands (ev):

   -64.8303 -64.8299 -64.8255 -64.8249 -31.6113 -31.6110 -31.6103 -31.6100
   -31.6025 -31.6024 -31.5921 -31.5921 -31.5808 -31.5806 -31.5801 -31.5799
    -8.6458  -8.6453  -7.8562  -7.8561   4.8471   4.8476   4.8479   4.8484
     5.1231   5.1235   5.9739   5.9742   6.9685   6.9687   6.9689   6.9691

          k =-0.0025-0.5000 0.2500 (  5154 PWs)   bands (ev):

   -64.8296 -64.8292 -64.8262 -64.8256 -31.6180 -31.6178 -31.6108 -31.6108
   -31.6072 -31.6070 -31.5857 -31.5855 -31.5840 -31.5840 -31.5754 -31.5753
    -8.5094  -8.5090  -7.9466  -7.9465   4.4181   4.4184   4.7513   4.7516
     5.0968   5.0976   6.5482   6.5485   6.5759   6.5764   7.0943   7.0945

          k =-0.0025-0.5000-0.5000 (  5180 PWs)   bands (ev):

   -64.8279 -64.8279 -64.8279 -64.8269 -31.6197 -31.6195 -31.6194 -31.6193
   -31.5971 -31.5970 -31.5969 -31.5967 -31.5763 -31.5761 -31.5760 -31.5759
    -8.2052  -8.2051  -8.2049  -8.2047   4.2931   4.2933   4.2936   4.2937
     5.7679   5.7683   5.7687   5.7691   7.0635   7.0638   7.0639   7.0640

          k = 0.2513 0.2513 0.0000 (  5159 PWs)   bands (ev):

   -64.8323 -64.8268 -64.8264 -64.8252 -31.6199 -31.6190 -31.6189 -31.6112
   -31.5954 -31.5947 -31.5947 -31.5887 -31.5886 -31.5858 -31.5761 -31.5669
    -8.9606  -8.0697  -8.0696  -7.8840   4.1643   4.1643   4.3342   5.1026
     5.8649   6.0475   6.0479   6.4958   6.4958   6.5321   7.1830   7.4702

          k = 0.2513 0.2513 0.2500 (  5156 PWs)   bands (ev):

   -64.8312 -64.8268 -64.8267 -64.8259 -31.6266 -31.6232 -31.6231 -31.6079
   -31.5967 -31.5966 -31.5958 -31.5838 -31.5838 -31.5819 -31.5726 -31.5695
    -8.7908  -8.0365  -8.0364  -8.0247   3.9959   3.9960   4.0195   5.1112
     5.8524   5.8525   5.8613   6.6560   6.7108   6.7110   7.3173   7.3603

          k = 0.2513 0.2513-0.5000 (  5152 PWs)   bands (ev):

   -64.8290 -64.8286 -64.8268 -64.8262 -31.6261 -31.6259 -31.6233 -31.6232
   -31.5972 -31.5970 -31.5800 -31.5799 -31.5796 -31.5795 -31.5762 -31.5759
    -8.3935  -8.3935  -8.0028  -8.0028   3.8115   3.8116   4.2214   4.2215
     5.8443   5.8443   6.7454   6.7456   6.8747   6.8748   6.9718   6.9718

          k = 0.2475-0.4988 0.0000 (  5153 PWs)   bands (ev):

   -64.8296 -64.8292 -64.8262 -64.8256 -31.6214 -31.6144 -31.6141 -31.6074
   -31.6070 -31.6070 -31.5866 -31.5854 -31.5851 -31.5815 -31.5780 -31.5733
    -8.5172  -8.5012  -7.9554  -7.9378   4.4075   4.4295   4.7468   4.7560
     5.0875   5.1056   6.5137   6.5635   6.5836   6.5887   7.0685   7.1210

          k = 0.2475-0.4988 0.2500 (  5136 PWs)   bands (ev):

   -64.8291 -64.8287 -64.8267 -64.8261 -31.6308 -31.6264 -31.6243 -31.6186
   -31.5937 -31.5932 -31.5822 -31.5805 -31.5794 -31.5790 -31.5770 -31.5753
    -8.4067  -8.3907  -8.0053  -7.9883   3.8042   3.8392   4.1851   4.2113
     5.8223   5.8384   6.7158   6.7664   6.8505   6.8852   7.0100   7.0258

          k = 0.2475-0.4988-0.5000 (  5146 PWs)   bands (ev):

   -64.8280 -64.8279 -64.8278 -64.8269 -31.6345 -31.6343 -31.6298 -31.6297
   -31.5851 -31.5849 -31.5826 -31.5824 -31.5758 -31.5757 -31.5749 -31.5749
    -8.1756  -8.1755  -8.1594  -8.1593   3.6220   3.6221   3.6591   3.6592
     6.4979   6.4980   6.5513   6.5513   7.0569   7.0571   7.0728   7.0730

          k = 0.2488-0.2488 0.0000 (  5143 PWs)   bands (ev):

   -64.8324 -64.8266 -64.8263 -64.8253 -31.6236 -31.6234 -31.6201 -31.6048
   -31.5944 -31.5944 -31.5898 -31.5893 -31.5847 -31.5846 -31.5757 -31.5713
    -8.9708  -8.0571  -8.0571  -7.8961   4.1596   4.1596   4.3235   5.0406
     5.8300   6.0640   6.0643   6.4744   6.4744   6.6368   7.1638   7.5420

          k = 0.2488-0.2488 0.2500 (  5142 PWs)   bands (ev):

   -64.8314 -64.8267 -64.8266 -64.8259 -31.6280 -31.6278 -31.6245 -31.6050
   -31.5916 -31.5915 -31.5913 -31.5864 -31.5839 -31.5838 -31.5744 -31.5706
    -8.8011  -8.0363  -8.0241  -8.0240   3.9817   4.0055   4.0056   5.0676
     5.8309   5.8401   5.8402   6.7007   6.7008   6.7564   7.3506   7.3943

          k = 0.2488-0.2488-0.5000 (  5128 PWs)   bands (ev):

   -64.8292 -64.8288 -64.8266 -64.8260 -31.6311 -31.6309 -31.6201 -31.6200
   -31.5896 -31.5894 -31.5821 -31.5820 -31.5805 -31.5802 -31.5765 -31.5764
    -8.4042  -8.4041  -7.9906  -7.9905   3.8319   3.8319   4.1747   4.1749
     5.8174   5.8174   6.7356   6.7358   6.8630   6.8632   7.0615   7.0615

          k =-0.5025-0.5025 0.0000 (  5188 PWs)   bands (ev):

   -64.8281 -64.8279 -64.8277 -64.8269 -31.6236 -31.6233 -31.6159 -31.6157
   -31.5974 -31.5972 -31.5972 -31.5970 -31.5782 -31.5779 -31.5743 -31.5741
    -8.2169  -8.2169  -8.1930  -8.1930   4.2864   4.2864   4.3002   4.3002
     5.7529   5.7532   5.7824   5.7827   7.0239   7.0239   7.1048   7.1048

          k =-0.5025-0.5025 0.2500 (  5144 PWs)   bands (ev):

   -64.8280 -64.8279 -64.8277 -64.8269 -31.6346 -31.6344 -31.6297 -31.6295
   -31.5844 -31.5844 -31.5821 -31.5821 -31.5783 -31.5780 -31.5735 -31.5733
    -8.1793  -8.1792  -8.1557  -8.1556   3.6254   3.6254   3.6555   3.6556
     6.5202   6.5205   6.5288   6.5290   7.0249   7.0249   7.1054   7.1054

          k =-0.5025-0.5025-0.5000 (  5136 PWs)   bands (ev):

   -64.8280 -64.8279 -64.8277 -64.8269 -31.6412 -31.6410 -31.6390 -31.6388
   -31.5775 -31.5772 -31.5762 -31.5761 -31.5745 -31.5745 -31.5735 -31.5733
    -8.1410  -8.1410  -8.1177  -8.1176   3.1991   3.1991   3.2363   3.2364
     7.0258   7.0258   7.0640   7.0642   7.0666   7.0669   7.1064   7.1064

          k = 0.2500 0.0013-0.2500 (  5154 PWs)   bands (ev):

   -64.8323 -64.8267 -64.8263 -64.8253 -31.6217 -31.6212 -31.6205 -31.6074
   -31.5949 -31.5942 -31.5932 -31.5877 -31.5868 -31.5865 -31.5758 -31.5688
    -8.9658  -8.0637  -8.0633  -7.8898   4.1614   4.1620   4.3291   5.0717
     5.8469   6.0523   6.0558   6.4853   6.4893   6.5839   7.1733   7.5067

          k = 0.2513 0.2513-0.2500 (  5156 PWs)   bands (ev):

   -64.8312 -64.8268 -64.8267 -64.8259 -31.6266 -31.6232 -31.6231 -31.6079
   -31.5967 -31.5966 -31.5958 -31.5838 -31.5838 -31.5819 -31.5726 -31.5695
    -8.7908  -8.0365  -8.0364  -8.0247   3.9959   3.9960   4.0195   5.1112
     5.8524   5.8525   5.8613   6.6560   6.7108   6.7110   7.3173   7.3603

          k =-0.4988 0.2475-0.2500 (  5136 PWs)   bands (ev):

   -64.8291 -64.8287 -64.8267 -64.8261 -31.6308 -31.6264 -31.6243 -31.6186
   -31.5937 -31.5932 -31.5822 -31.5805 -31.5794 -31.5790 -31.5770 -31.5753
    -8.4067  -8.3907  -8.0053  -7.9883   3.8042   3.8392   4.1851   4.2113
     5.8223   5.8384   6.7158   6.7664   6.8505   6.8852   7.0100   7.0258

     highest occupied level (ev):     7.7091

!    total energy              =    -608.39256513 Ry
     Harris-Foulkes estimate   =    -608.39256513 Ry
     estimated scf accuracy    <          9.6E-11 Ry

     The total energy is the sum of the following terms:

     one-electron contribution =    -303.55440983 Ry
     hartree contribution      =     168.06633374 Ry
     xc contribution           =     -97.84630035 Ry
     ewald contribution        =    -375.05818868 Ry

     convergence has been achieved in   4 iterations

     Forces acting on atoms (cartesian axes, Ry/au):

     atom    1 type  1   force =    -0.00001384   -0.00001384    0.00000123
     atom    2 type  1   force =    -0.00000965    0.00005995   -0.00000120
     atom    3 type  1   force =     0.00005995   -0.00000965   -0.00000120
     atom    4 type  1   force =    -0.00006046   -0.00006046    0.00000122
     atom    5 type  2   force =    -0.00003403    0.00004675    0.00000093
     atom    6 type  2   force =     0.00004675   -0.00003403    0.00000093
     atom    7 type  2   force =    -0.00003595   -0.00003595   -0.00000092
     atom    8 type  2   force =     0.00004724    0.00004724   -0.00000100

     Total force =     0.000170     Total SCF correction =     0.000004


     Computing stress (Cartesian axis) and pressure

          total   stress  (Ry/bohr**3)                   (kbar)     P=  -68.18
  -0.00046327   0.00009650   0.00000000        -68.15     14.20      0.00
   0.00009650  -0.00046327   0.00000000         14.20    -68.15      0.00
   0.00000000   0.00000000  -0.00046388          0.00      0.00    -68.24


     bfgs converged in   8 scf cycles and   7 bfgs steps
     (criteria: energy <  1.0E-05 Ry, force <  1.0E-04 Ry/Bohr)

     End of BFGS Geometry Optimization

     Final energy   =    -608.3925651261 Ry
Begin final coordinates

ATOMIC_POSITIONS (alat)
Mg       0.001145370   0.001145370  -0.000006145
Mg      -0.001238674   0.501245671   0.500006557
Mg       0.501245671  -0.001238674   0.500006557
Mg       0.498835633   0.498835633  -0.000006836
O        0.501282488  -0.001278035  -0.000006595
O       -0.001278035   0.501282488  -0.000006595
O        0.001252195   0.001252195   0.500006579
O        0.498755351   0.498755351   0.500006479
End final coordinates



     Writing output data file MgO.-0.01.70.4.save
 
     init_run     :      0.47s CPU      0.48s WALL (       1 calls)
     electrons    :     49.47s CPU     50.69s WALL (       8 calls)
     update_pot   :      0.80s CPU      0.81s WALL (       7 calls)
     forces       :      1.20s CPU      1.21s WALL (       8 calls)
     stress       :      2.71s CPU      2.73s WALL (       8 calls)

     Called by init_run:
     wfcinit      :      0.34s CPU      0.35s WALL (       1 calls)
     potinit      :      0.04s CPU      0.05s WALL (       1 calls)

     Called by electrons:
     c_bands      :     43.18s CPU     44.25s WALL (      47 calls)
     sum_band     :      6.01s CPU      6.13s WALL (      47 calls)
     v_of_rho     :      0.25s CPU      0.25s WALL (      48 calls)
     mix_rho      :      0.02s CPU      0.03s WALL (      47 calls)

     Called by c_bands:
     init_us_2    :      0.63s CPU      0.66s WALL (    2664 calls)
     cegterg      :     40.34s CPU     41.33s WALL (    1128 calls)

     Called by sum_band:

     Called by *egterg:
     h_psi        :     29.37s CPU     29.93s WALL (    3882 calls)
     g_psi        :      0.22s CPU      0.22s WALL (    2730 calls)
     cdiaghg      :      5.89s CPU      5.90s WALL (    3522 calls)

     Called by h_psi:
     h_psi:pot    :     29.26s CPU     29.78s WALL (    3882 calls)
     h_psi:calbec :      1.67s CPU      1.67s WALL (    3882 calls)
     vloc_psi     :     26.21s CPU     26.71s WALL (    3882 calls)
     add_vuspsi   :      1.38s CPU      1.39s WALL (    3882 calls)

     General routines
     calbec       :      2.21s CPU      2.21s WALL (    4842 calls)
     fft          :      0.24s CPU      0.24s WALL (     741 calls)
     fftw         :     29.63s CPU     29.25s WALL (  227634 calls)
     davcio       :      0.00s CPU      0.02s WALL (      24 calls)
 
     Parallel routines
     fft_scatter  :      7.91s CPU      7.75s WALL (  228375 calls)
 
     PWSCF        :    55.17s CPU        56.63s WALL

 
   This run was terminated on:  19: 9:17  22Apr2018            

=------------------------------------------------------------------------------=
   JOB DONE.
=------------------------------------------------------------------------------=
