
     Program PWSCF v.6.1 (svn rev. 13369) starts on 22Apr2018 at 19:13:13 

     This program is part of the open-source Quantum ESPRESSO suite
     for quantum simulation of materials; please cite
         "P. Giannozzi et al., J. Phys.:Condens. Matter 21 395502 (2009);
          URL http://www.quantum-espresso.org", 
     in publications or presentations arising from this work. More details at
     http://www.quantum-espresso.org/quote

     Parallel version (MPI), running on     8 processors
     R & G space division:  proc/nbgrp/npool/nimage =       8
     Waiting for input...
     Reading input from standard input
Warning: card       &CELL ignored
Warning: card          CELL_DYNAMICS = 'BFGS' ignored
Warning: card          PRESS = 0.0D0 ignored
Warning: card          PRESS_CONV_THR = 0.01D0 ignored
Warning: card       / ignored

     Current dimensions of program PWSCF are:
     Max number of different atomic species (ntypx) = 10
     Max number of k-points (npk) =  40000
     Max angular momentum in pseudopotentials (lmaxx) =  3

     Subspace diagonalization in iterative solution of the eigenvalue problem:
     a serial algorithm will be used

 
     Parallelization info
     --------------------
     sticks:   dense  smooth     PW     G-vecs:    dense   smooth      PW
     Min         181     181     52                 5151     5151     814
     Max         182     182     53                 5153     5153     817
     Sum        1449    1449    421                41219    41219    6527
 


     bravais-lattice index     =            0
     lattice parameter (alat)  =       8.0448  a.u.
     unit-cell volume          =     520.6402 (a.u.)^3
     number of atoms/cell      =            8
     number of atomic types    =            2
     number of electrons       =        64.00
     number of Kohn-Sham states=           32
     kinetic-energy cutoff     =      70.0000  Ry
     charge density cutoff     =     280.0000  Ry
     convergence threshold     =      1.0E-08
     mixing beta               =       0.7000
     number of iterations used =            8  plain     mixing
     Exchange-correlation      = PBE ( 1  4  3  4 0 0)
     nstep                     =           50


     celldm(1)=   8.044750  celldm(2)=   0.000000  celldm(3)=   0.000000
     celldm(4)=   0.000000  celldm(5)=   0.000000  celldm(6)=   0.000000

     crystal axes: (cart. coord. in units of alat)
               a(1) = (   1.000000   0.004643   0.000000 )  
               a(2) = (   0.004643   1.000000   0.000000 )  
               a(3) = (   0.000000   0.000000   1.000022 )  

     reciprocal axes: (cart. coord. in units 2 pi/alat)
               b(1) = (  1.000022 -0.004643  0.000000 )  
               b(2) = ( -0.004643  1.000022  0.000000 )  
               b(3) = (  0.000000  0.000000  0.999978 )  


     PseudoPot. # 1 for Mg read from file:
     ../pseudo/Mg.pbe.UPF
     MD5 check sum: 4c04d8c6e0476e83eaecaf72fa8acc4d
     Pseudo is Norm-conserving, Zval = 10.0
     Generated using ONCVPSP code by D. R. Hamann
     Using radial grid of 1510 points,  4 beta functions with: 
                l(1) =   0
                l(2) =   0
                l(3) =   1
                l(4) =   1

     PseudoPot. # 2 for O  read from file:
     ../pseudo/O.pbe.UPF
     MD5 check sum: 3e3f909f7470e8921608ab6b1f57bbae
     Pseudo is Norm-conserving + core correction, Zval =  6.0
     Generated using ONCVPSP code by D. R. Hamann
     Using radial grid of  936 points,  5 beta functions with: 
                l(1) =   0
                l(2) =   0
                l(3) =   1
                l(4) =   1
                l(5) =   2

     atomic species   valence    mass     pseudopotential
        Mg            10.00    24.30500     Mg( 1.00)
        O              6.00    15.99940     O ( 1.00)

      2 Sym. Ops. (no inversion) found



   Cartesian axes

     site n.     atom                  positions (alat units)
         1           Mg  tau(   1) = (   0.0000000   0.0000000   0.0000000  )
         2           Mg  tau(   2) = (   0.0000000   0.5000000   0.5000000  )
         3           Mg  tau(   3) = (   0.5000000   0.0000000   0.5000000  )
         4           Mg  tau(   4) = (   0.5000000   0.5000000   0.0000000  )
         5           O   tau(   5) = (   0.5000000   0.0000000   0.0000000  )
         6           O   tau(   6) = (   0.0000000   0.5000000   0.0000000  )
         7           O   tau(   7) = (   0.0000000   0.0000000   0.5000000  )
         8           O   tau(   8) = (   0.5000000   0.5000000   0.5000000  )

     number of k points=    24
                       cart. coord. in units 2pi/alat
        k(    1) = (   0.0000000   0.0000000   0.0000000), wk =   0.0312500
        k(    2) = (   0.0000000   0.0000000   0.2499946), wk =   0.0625000
        k(    3) = (   0.0000000   0.0000000  -0.4999892), wk =   0.0312500
        k(    4) = (  -0.0011608   0.2500054   0.0000000), wk =   0.1250000
        k(    5) = (  -0.0011608   0.2500054   0.2499946), wk =   0.1250000
        k(    6) = (  -0.0011608   0.2500054  -0.4999892), wk =   0.1250000
        k(    7) = (   0.0023216  -0.5000108   0.0000000), wk =   0.0625000
        k(    8) = (   0.0023216  -0.5000108   0.2499946), wk =   0.1250000
        k(    9) = (   0.0023216  -0.5000108  -0.4999892), wk =   0.0625000
        k(   10) = (   0.2488446   0.2488446   0.0000000), wk =   0.0625000
        k(   11) = (   0.2488446   0.2488446   0.2499946), wk =   0.0625000
        k(   12) = (   0.2488446   0.2488446  -0.4999892), wk =   0.0625000
        k(   13) = (   0.2523269  -0.5011716   0.0000000), wk =   0.1250000
        k(   14) = (   0.2523269  -0.5011716   0.2499946), wk =   0.1250000
        k(   15) = (   0.2523269  -0.5011716  -0.4999892), wk =   0.1250000
        k(   16) = (   0.2511662  -0.2511662   0.0000000), wk =   0.0625000
        k(   17) = (   0.2511662  -0.2511662   0.2499946), wk =   0.1250000
        k(   18) = (   0.2511662  -0.2511662  -0.4999892), wk =   0.0625000
        k(   19) = (  -0.4976892  -0.4976892   0.0000000), wk =   0.0312500
        k(   20) = (  -0.4976892  -0.4976892   0.2499946), wk =   0.0625000
        k(   21) = (  -0.4976892  -0.4976892  -0.4999892), wk =   0.0312500
        k(   22) = (   0.2500054  -0.0011608  -0.2499946), wk =   0.1250000
        k(   23) = (   0.2488446   0.2488446  -0.2499946), wk =   0.0625000
        k(   24) = (  -0.5011716   0.2523269  -0.2499946), wk =   0.1250000

     Dense  grid:    41219 G-vectors     FFT dimensions: (  45,  45,  45)

     Estimated max dynamical RAM per process >      13.45MB

     Estimated total allocated dynamical RAM >     107.58MB

     Check: negative/imaginary core charge=   -0.000007    0.000000

     Initial potential from superposition of free atoms

     starting charge   63.99678, renormalised to   64.00000
     Starting wfc are   36 randomized atomic wfcs

     total cpu time spent up to now is        0.6 secs

     per-process dynamical memory:    49.1 Mb

     Self-consistent Calculation

     iteration #  1     ecut=    70.00 Ry     beta=0.70
     Davidson diagonalization with overlap
     ethr =  1.00E-02,  avg # of iterations =  2.0

     total cpu time spent up to now is        1.6 secs

     total energy              =    -607.71926674 Ry
     Harris-Foulkes estimate   =    -608.84352956 Ry
     estimated scf accuracy    <       1.56210393 Ry

     iteration #  2     ecut=    70.00 Ry     beta=0.70
     Davidson diagonalization with overlap
     ethr =  2.44E-03,  avg # of iterations =  2.9

     total cpu time spent up to now is        2.7 secs

     total energy              =    -608.10533291 Ry
     Harris-Foulkes estimate   =    -608.80363159 Ry
     estimated scf accuracy    <       1.44989169 Ry

     iteration #  3     ecut=    70.00 Ry     beta=0.70
     Davidson diagonalization with overlap
     ethr =  2.27E-03,  avg # of iterations =  2.0

     total cpu time spent up to now is        3.7 secs

     total energy              =    -608.39105719 Ry
     Harris-Foulkes estimate   =    -608.39171332 Ry
     estimated scf accuracy    <       0.00674486 Ry

     iteration #  4     ecut=    70.00 Ry     beta=0.70
     Davidson diagonalization with overlap
     ethr =  1.05E-05,  avg # of iterations =  2.0

     total cpu time spent up to now is        4.7 secs

     total energy              =    -608.39252888 Ry
     Harris-Foulkes estimate   =    -608.39257270 Ry
     estimated scf accuracy    <       0.00010987 Ry

     iteration #  5     ecut=    70.00 Ry     beta=0.70
     Davidson diagonalization with overlap
     ethr =  1.72E-07,  avg # of iterations =  1.4

     total cpu time spent up to now is        5.5 secs

     total energy              =    -608.39253620 Ry
     Harris-Foulkes estimate   =    -608.39253465 Ry
     estimated scf accuracy    <       0.00001037 Ry

     iteration #  6     ecut=    70.00 Ry     beta=0.70
     Davidson diagonalization with overlap
     ethr =  1.62E-08,  avg # of iterations =  2.0

     total cpu time spent up to now is        6.7 secs

     total energy              =    -608.39253784 Ry
     Harris-Foulkes estimate   =    -608.39253825 Ry
     estimated scf accuracy    <       0.00000102 Ry

     iteration #  7     ecut=    70.00 Ry     beta=0.70
     Davidson diagonalization with overlap
     ethr =  1.59E-09,  avg # of iterations =  2.0

     total cpu time spent up to now is        7.6 secs

     total energy              =    -608.39253784 Ry
     Harris-Foulkes estimate   =    -608.39253793 Ry
     estimated scf accuracy    <       0.00000022 Ry

     iteration #  8     ecut=    70.00 Ry     beta=0.70
     Davidson diagonalization with overlap
     ethr =  3.49E-10,  avg # of iterations =  2.0

     total cpu time spent up to now is        8.6 secs

     total energy              =    -608.39253785 Ry
     Harris-Foulkes estimate   =    -608.39253786 Ry
     estimated scf accuracy    <       0.00000004 Ry

     iteration #  9     ecut=    70.00 Ry     beta=0.70
     Davidson diagonalization with overlap
     ethr =  5.77E-11,  avg # of iterations =  2.0

     total cpu time spent up to now is        9.7 secs

     End of self-consistent calculation

          k = 0.0000 0.0000 0.0000 (  5149 PWs)   bands (ev):

   -64.8348 -64.8253 -64.8253 -64.8245 -31.6313 -31.6311 -31.6311 -31.5951
   -31.5937 -31.5936 -31.5929 -31.5929 -31.5915 -31.5670 -31.5654 -31.5639
    -9.3644  -7.9136  -7.9131  -7.9130   3.7583   3.7589   3.7591   6.3266
     6.3801   6.3804   6.3804   6.3808   6.4348   7.6390   7.6721   7.7066

          k = 0.0000 0.0000 0.2500 (  5153 PWs)   bands (ev):

   -64.8334 -64.8265 -64.8253 -64.8247 -31.6255 -31.6254 -31.6206 -31.5979
   -31.5979 -31.5943 -31.5942 -31.5910 -31.5868 -31.5784 -31.5736 -31.5691
    -9.1560  -8.1285  -7.8847  -7.8845   4.0475   4.0491   4.0969   5.8580
     5.8585   6.1709   6.1713   6.4918   6.5957   6.6589   7.4133   7.4890

          k = 0.0000 0.0000-0.5000 (  5130 PWs)   bands (ev):

   -64.8302 -64.8297 -64.8253 -64.8247 -31.6147 -31.6143 -31.6073 -31.6070
   -31.6021 -31.6020 -31.5913 -31.5912 -31.5830 -31.5827 -31.5784 -31.5781
    -8.6458  -8.6456  -7.8559  -7.8557   4.8407   4.8415   4.8532   4.8541
     5.1231   5.1235   5.9738   5.9742   6.9233   6.9236   7.0145   7.0149

          k =-0.0012 0.2500 0.0000 (  5167 PWs)   bands (ev):

   -64.8334 -64.8266 -64.8253 -64.8247 -31.6253 -31.6249 -31.6217 -31.5998
   -31.5986 -31.5935 -31.5931 -31.5893 -31.5889 -31.5800 -31.5718 -31.5708
    -9.1559  -8.1281  -7.8851  -7.8846   4.0486   4.0489   4.0956   5.8514
     5.8585   6.1708   6.1780   6.5432   6.5433   6.6583   7.4502   7.4518

          k =-0.0012 0.2500 0.2500 (  5153 PWs)   bands (ev):

   -64.8322 -64.8265 -64.8262 -64.8251 -31.6215 -31.6213 -31.6203 -31.6072
   -31.5948 -31.5940 -31.5931 -31.5876 -31.5867 -31.5863 -31.5756 -31.5687
    -8.9658  -8.0672  -8.0598  -7.8897   4.1554   4.1680   4.3292   5.0715
     5.8471   6.0451   6.0636   6.4826   6.4916   6.5840   7.1734   7.5066

          k =-0.0012 0.2500-0.5000 (  5148 PWs)   bands (ev):

   -64.8295 -64.8290 -64.8260 -64.8254 -31.6184 -31.6181 -31.6103 -31.6103
   -31.6066 -31.6064 -31.5855 -31.5852 -31.5839 -31.5839 -31.5753 -31.5751
    -8.5094  -8.5093  -7.9464  -7.9462   4.4186   4.4186   4.7512   4.7515
     5.0965   5.0967   6.5480   6.5483   6.5753   6.5754   7.0962   7.0962

          k = 0.0023-0.5000 0.0000 (  5128 PWs)   bands (ev):

   -64.8302 -64.8297 -64.8253 -64.8247 -31.6112 -31.6107 -31.6101 -31.6099
   -31.6025 -31.6021 -31.5921 -31.5919 -31.5807 -31.5805 -31.5801 -31.5799
    -8.6457  -8.6454  -7.8563  -7.8559   4.8467   4.8479   4.8481   4.8481
     5.1231   5.1235   5.9733   5.9751   6.9685   6.9689   6.9689   6.9691

          k = 0.0023-0.5000 0.2500 (  5154 PWs)   bands (ev):

   -64.8294 -64.8290 -64.8260 -64.8254 -31.6179 -31.6176 -31.6107 -31.6106
   -31.6071 -31.6069 -31.5855 -31.5853 -31.5840 -31.5838 -31.5754 -31.5752
    -8.5093  -8.5091  -7.9467  -7.9463   4.4180   4.4183   4.7515   4.7518
     5.0969   5.0971   6.5480   6.5489   6.5762   6.5763   7.0942   7.0947

          k = 0.0023-0.5000-0.5000 (  5180 PWs)   bands (ev):

   -64.8278 -64.8277 -64.8277 -64.8267 -31.6195 -31.6194 -31.6192 -31.6191
   -31.5974 -31.5971 -31.5965 -31.5962 -31.5762 -31.5762 -31.5758 -31.5757
    -8.2100  -8.2098  -8.2002  -8.1997   4.2843   4.2843   4.3025   4.3028
     5.7565   5.7567   5.7803   5.7804   7.0584   7.0592   7.0688   7.0692

          k = 0.2488 0.2488 0.0000 (  5151 PWs)   bands (ev):

   -64.8322 -64.8265 -64.8261 -64.8251 -31.6237 -31.6234 -31.6199 -31.6050
   -31.5944 -31.5943 -31.5900 -31.5889 -31.5849 -31.5846 -31.5758 -31.5715
    -8.9705  -8.0577  -8.0574  -7.8956   4.1596   4.1597   4.3239   5.0426
     5.8313   6.0633   6.0638   6.4753   6.4754   6.6332   7.1643   7.5392

          k = 0.2488 0.2488 0.2500 (  5146 PWs)   bands (ev):

   -64.8312 -64.8265 -64.8265 -64.8257 -31.6281 -31.6278 -31.6245 -31.6047
   -31.5920 -31.5917 -31.5912 -31.5861 -31.5840 -31.5839 -31.5740 -31.5705
    -8.8007  -8.0369  -8.0243  -8.0235   3.9815   4.0052   4.0065   5.0693
     5.8229   5.8407   5.8494   6.7010   6.7012   6.7529   7.3510   7.3918

          k = 0.2488 0.2488-0.5000 (  5128 PWs)   bands (ev):

   -64.8290 -64.8286 -64.8264 -64.8258 -31.6308 -31.6305 -31.6201 -31.6200
   -31.5898 -31.5896 -31.5819 -31.5819 -31.5802 -31.5799 -31.5766 -31.5764
    -8.4039  -8.4037  -7.9910  -7.9908   3.8307   3.8313   4.1765   4.1769
     5.8180   5.8185   6.7358   6.7362   6.8634   6.8640   7.0582   7.0586

          k = 0.2523-0.5012 0.0000 (  5153 PWs)   bands (ev):

   -64.8295 -64.8290 -64.8260 -64.8254 -31.6211 -31.6146 -31.6137 -31.6072
   -31.6072 -31.6069 -31.5863 -31.5853 -31.5850 -31.5816 -31.5776 -31.5734
    -8.5166  -8.5017  -7.9547  -7.9384   4.4082   4.4287   4.7472   4.7558
     5.0881   5.1049   6.5163   6.5644   6.5812   6.5878   7.0705   7.1193

          k = 0.2523-0.5012 0.2500 (  5137 PWs)   bands (ev):

   -64.8290 -64.8285 -64.8265 -64.8259 -31.6305 -31.6264 -31.6240 -31.6187
   -31.5936 -31.5931 -31.5822 -31.5802 -31.5794 -31.5788 -31.5770 -31.5753
    -8.4061  -8.3913  -8.0047  -7.9888   3.8054   3.8378   4.1861   4.2104
     5.8228   5.8377   6.7177   6.7646   6.8521   6.8842   7.0105   7.0252

          k = 0.2523-0.5012-0.5000 (  5144 PWs)   bands (ev):

   -64.8279 -64.8277 -64.8276 -64.8267 -31.6342 -31.6340 -31.6299 -31.6298
   -31.5849 -31.5846 -31.5823 -31.5822 -31.5757 -31.5756 -31.5749 -31.5748
    -8.1758  -8.1757  -8.1593  -8.1589   3.6221   3.6222   3.6590   3.6592
     6.4984   6.4987   6.5508   6.5510   7.0565   7.0571   7.0731   7.0733

          k = 0.2512-0.2512 0.0000 (  5159 PWs)   bands (ev):

   -64.8321 -64.8266 -64.8262 -64.8250 -31.6198 -31.6191 -31.6190 -31.6108
   -31.5951 -31.5946 -31.5945 -31.5885 -31.5883 -31.5859 -31.5760 -31.5670
    -8.9610  -8.0692  -8.0692  -7.8843   4.1641   4.1642   4.3339   5.1002
     5.8638   6.0482   6.0485   6.4950   6.4954   6.5360   7.1822   7.4728

          k = 0.2512-0.2512 0.2500 (  5158 PWs)   bands (ev):

   -64.8311 -64.8266 -64.8265 -64.8257 -31.6264 -31.6233 -31.6232 -31.6077
   -31.5967 -31.5962 -31.5956 -31.5838 -31.5837 -31.5821 -31.5724 -31.5696
    -8.7911  -8.0371  -8.0360  -8.0239   3.9946   3.9964   4.0197   5.1097
     5.8426   5.8520   5.8695   6.6596   6.7105   6.7107   7.3201   7.3600

          k = 0.2512-0.2512-0.5000 (  5152 PWs)   bands (ev):

   -64.8289 -64.8284 -64.8266 -64.8259 -31.6262 -31.6261 -31.6231 -31.6229
   -31.5969 -31.5966 -31.5799 -31.5799 -31.5793 -31.5793 -31.5763 -31.5759
    -8.3940  -8.3938  -8.0024  -8.0022   3.8119   3.8123   4.2197   4.2203
     5.8430   5.8434   6.7450   6.7452   6.8744   6.8747   6.9749   6.9751

          k =-0.4977-0.4977 0.0000 (  5188 PWs)   bands (ev):

   -64.8279 -64.8277 -64.8276 -64.8267 -31.6232 -31.6228 -31.6161 -31.6159
   -31.5973 -31.5971 -31.5971 -31.5968 -31.5779 -31.5776 -31.5744 -31.5741
    -8.2160  -8.2160  -8.1940  -8.1937   4.2869   4.2870   4.2997   4.2997
     5.7540   5.7542   5.7812   5.7818   7.0268   7.0269   7.1019   7.1022

          k =-0.4977-0.4977 0.2500 (  5140 PWs)   bands (ev):

   -64.8279 -64.8277 -64.8276 -64.8267 -31.6342 -31.6340 -31.6298 -31.6296
   -31.5842 -31.5841 -31.5821 -31.5821 -31.5779 -31.5777 -31.5733 -31.5730
    -8.1784  -8.1784  -8.1566  -8.1563   3.6265   3.6265   3.6545   3.6546
     6.5205   6.5207   6.5284   6.5288   7.0280   7.0281   7.1026   7.1029

          k =-0.4977-0.4977-0.5000 (  5136 PWs)   bands (ev):

   -64.8279 -64.8277 -64.8276 -64.8267 -31.6409 -31.6406 -31.6390 -31.6389
   -31.5772 -31.5769 -31.5760 -31.5759 -31.5745 -31.5745 -31.5736 -31.5733
    -8.1402  -8.1402  -8.1186  -8.1183   3.2004   3.2005   3.2350   3.2352
     7.0287   7.0288   7.0640   7.0644   7.0666   7.0667   7.1035   7.1037

          k = 0.2500-0.0012-0.2500 (  5153 PWs)   bands (ev):

   -64.8322 -64.8265 -64.8262 -64.8251 -31.6215 -31.6213 -31.6203 -31.6072
   -31.5948 -31.5940 -31.5931 -31.5876 -31.5867 -31.5863 -31.5756 -31.5687
    -8.9658  -8.0672  -8.0598  -7.8897   4.1554   4.1680   4.3292   5.0715
     5.8471   6.0451   6.0636   6.4826   6.4916   6.5840   7.1734   7.5066

          k = 0.2488 0.2488-0.2500 (  5146 PWs)   bands (ev):

   -64.8312 -64.8265 -64.8265 -64.8257 -31.6281 -31.6278 -31.6245 -31.6047
   -31.5920 -31.5917 -31.5912 -31.5861 -31.5840 -31.5839 -31.5740 -31.5705
    -8.8007  -8.0369  -8.0243  -8.0235   3.9815   4.0052   4.0065   5.0693
     5.8229   5.8407   5.8494   6.7010   6.7012   6.7529   7.3510   7.3918

          k =-0.5012 0.2523-0.2500 (  5137 PWs)   bands (ev):

   -64.8290 -64.8285 -64.8265 -64.8259 -31.6305 -31.6264 -31.6240 -31.6187
   -31.5936 -31.5931 -31.5822 -31.5802 -31.5794 -31.5788 -31.5770 -31.5753
    -8.4061  -8.3913  -8.0047  -7.9888   3.8054   3.8378   4.1861   4.2104
     5.8228   5.8377   6.7177   6.7646   6.8521   6.8842   7.0105   7.0252

     highest occupied level (ev):     7.7066

!    total energy              =    -608.39253785 Ry
     Harris-Foulkes estimate   =    -608.39253785 Ry
     estimated scf accuracy    <          1.4E-09 Ry

     The total energy is the sum of the following terms:

     one-electron contribution =    -303.55337451 Ry
     hartree contribution      =     168.06574899 Ry
     xc contribution           =     -97.84625329 Ry
     ewald contribution        =    -375.05865904 Ry

     convergence has been achieved in   9 iterations

     Forces acting on atoms (cartesian axes, Ry/au):

     atom    1 type  1   force =    -0.00104518   -0.00104518   -0.00001113
     atom    2 type  1   force =     0.00123643   -0.00114358    0.00001099
     atom    3 type  1   force =    -0.00114358    0.00123643    0.00001099
     atom    4 type  1   force =     0.00090153    0.00090153   -0.00001089
     atom    5 type  2   force =    -0.00138357    0.00146766   -0.00001273
     atom    6 type  2   force =     0.00146766   -0.00138357   -0.00001273
     atom    7 type  2   force =    -0.00134126   -0.00134126    0.00001244
     atom    8 type  2   force =     0.00130797    0.00130797    0.00001306

     Total force =     0.004964     Total SCF correction =     0.000012


     Computing stress (Cartesian axis) and pressure

          total   stress  (Ry/bohr**3)                   (kbar)     P=  -68.14
  -0.00046307  -0.00008936  -0.00000000        -68.12    -13.15     -0.00
  -0.00008936  -0.00046307  -0.00000000        -13.15    -68.12     -0.00
  -0.00000000  -0.00000000  -0.00046352         -0.00     -0.00    -68.19


     BFGS Geometry Optimization

     number of scf cycles    =   1
     number of bfgs steps    =   0

     energy   new            =    -608.3925378508 Ry

     new trust radius        =       0.0020170409 bohr
     new conv_thr            =       0.0000000100 Ry


ATOMIC_POSITIONS (alat)
Mg      -0.000129920  -0.000129920  -0.000001383
Mg       0.000153694   0.499857847   0.500001366
Mg       0.499857847   0.000153694   0.500001366
Mg       0.500112064   0.500112064  -0.000001354
O        0.499828016   0.000182437  -0.000001582
O        0.000182437   0.499828016  -0.000001582
O       -0.000166725  -0.000166725   0.500001546
O        0.500162586   0.500162586   0.500001624



     Writing output data file MgO.0.009286.70.4.save
     NEW-OLD atomic charge density approx. for the potential

     Check: negative/imaginary core charge=   -0.000007    0.000000

     total cpu time spent up to now is       10.4 secs

     per-process dynamical memory:    53.8 Mb

     Self-consistent Calculation

     iteration #  1     ecut=    70.00 Ry     beta=0.70
     Davidson diagonalization with overlap
     ethr =  1.00E-06,  avg # of iterations =  3.0

     Threshold (ethr) on eigenvalues was too large:
     Diagonalizing with lowered threshold

     Davidson diagonalization with overlap
     ethr =  2.50E-09,  avg # of iterations =  2.5

     total cpu time spent up to now is       12.8 secs

     total energy              =    -608.39256048 Ry
     Harris-Foulkes estimate   =    -608.39256140 Ry
     estimated scf accuracy    <       0.00000162 Ry

     iteration #  2     ecut=    70.00 Ry     beta=0.70
     Davidson diagonalization with overlap
     ethr =  2.53E-09,  avg # of iterations =  2.0

     total cpu time spent up to now is       13.7 secs

     total energy              =    -608.39256076 Ry
     Harris-Foulkes estimate   =    -608.39256077 Ry
     estimated scf accuracy    <       0.00000004 Ry

     iteration #  3     ecut=    70.00 Ry     beta=0.70
     Davidson diagonalization with overlap
     ethr =  6.72E-11,  avg # of iterations =  2.1

     total cpu time spent up to now is       14.7 secs

     End of self-consistent calculation

          k = 0.0000 0.0000 0.0000 (  5149 PWs)   bands (ev):

   -64.8350 -64.8255 -64.8255 -64.8247 -31.6314 -31.6313 -31.6312 -31.5952
   -31.5938 -31.5938 -31.5931 -31.5930 -31.5916 -31.5671 -31.5655 -31.5640
    -9.3643  -7.9136  -7.9131  -7.9129   3.7584   3.7589   3.7591   6.3266
     6.3802   6.3804   6.3806   6.3807   6.4348   7.6391   7.6722   7.7066

          k = 0.0000 0.0000 0.2500 (  5153 PWs)   bands (ev):

   -64.8335 -64.8267 -64.8255 -64.8249 -31.6256 -31.6255 -31.6208 -31.5980
   -31.5980 -31.5945 -31.5944 -31.5912 -31.5869 -31.5785 -31.5737 -31.5692
    -9.1559  -8.1284  -7.8847  -7.8845   4.0479   4.0491   4.0966   5.8581
     5.8585   6.1711   6.1712   6.4918   6.5957   6.6589   7.4133   7.4891

          k = 0.0000 0.0000-0.5000 (  5130 PWs)   bands (ev):

   -64.8304 -64.8299 -64.8255 -64.8249 -31.6148 -31.6144 -31.6074 -31.6072
   -31.6022 -31.6021 -31.5915 -31.5914 -31.5831 -31.5829 -31.5786 -31.5783
    -8.6458  -8.6456  -7.8559  -7.8557   4.8408   4.8416   4.8535   4.8539
     5.1231   5.1233   5.9740   5.9741   6.9232   6.9237   7.0147   7.0148

          k =-0.0012 0.2500 0.0000 (  5167 PWs)   bands (ev):

   -64.8335 -64.8267 -64.8255 -64.8249 -31.6254 -31.6251 -31.6218 -31.5999
   -31.5987 -31.5936 -31.5933 -31.5895 -31.5891 -31.5801 -31.5720 -31.5710
    -9.1559  -8.1280  -7.8850  -7.8846   4.0486   4.0489   4.0956   5.8517
     5.8585   6.1708   6.1779   6.5432   6.5433   6.6583   7.4503   7.4518

          k =-0.0012 0.2500 0.2500 (  5153 PWs)   bands (ev):

   -64.8323 -64.8267 -64.8263 -64.8253 -31.6217 -31.6214 -31.6204 -31.6073
   -31.5950 -31.5942 -31.5932 -31.5877 -31.5868 -31.5864 -31.5757 -31.5688
    -8.9657  -8.0666  -8.0603  -7.8896   4.1564   4.1670   4.3292   5.0716
     5.8471   6.0465   6.0622   6.4832   6.4911   6.5840   7.1735   7.5067

          k =-0.0012 0.2500-0.5000 (  5148 PWs)   bands (ev):

   -64.8296 -64.8292 -64.8262 -64.8256 -31.6185 -31.6183 -31.6104 -31.6104
   -31.6067 -31.6065 -31.5856 -31.5853 -31.5840 -31.5840 -31.5754 -31.5752
    -8.5094  -8.5092  -7.9464  -7.9462   4.4186   4.4188   4.7512   4.7514
     5.0965   5.0968   6.5482   6.5483   6.5751   6.5755   7.0961   7.0963

          k = 0.0023-0.5000 0.0000 (  5128 PWs)   bands (ev):

   -64.8303 -64.8299 -64.8255 -64.8249 -31.6113 -31.6109 -31.6103 -31.6101
   -31.6026 -31.6023 -31.5923 -31.5921 -31.5808 -31.5806 -31.5802 -31.5800
    -8.6455  -8.6454  -7.8562  -7.8559   4.8467   4.8480   4.8481   4.8482
     5.1231   5.1236   5.9734   5.9749   6.9685   6.9690   6.9690   6.9691

          k = 0.0023-0.5000 0.2500 (  5154 PWs)   bands (ev):

   -64.8296 -64.8292 -64.8262 -64.8256 -31.6180 -31.6178 -31.6109 -31.6107
   -31.6072 -31.6070 -31.5857 -31.5855 -31.5841 -31.5840 -31.5755 -31.5754
    -8.5092  -8.5091  -7.9466  -7.9463   4.4181   4.4184   4.7514   4.7518
     5.0969   5.0973   6.5481   6.5488   6.5762   6.5763   7.0943   7.0947

          k = 0.0023-0.5000-0.5000 (  5180 PWs)   bands (ev):

   -64.8280 -64.8279 -64.8278 -64.8269 -31.6197 -31.6196 -31.6194 -31.6193
   -31.5974 -31.5972 -31.5967 -31.5964 -31.5764 -31.5763 -31.5760 -31.5758
    -8.2093  -8.2089  -8.2007  -8.2007   4.2857   4.2857   4.3011   4.3014
     5.7584   5.7585   5.7783   5.7789   7.0593   7.0599   7.0681   7.0683

          k = 0.2488 0.2488 0.0000 (  5151 PWs)   bands (ev):

   -64.8324 -64.8266 -64.8262 -64.8253 -31.6238 -31.6236 -31.6201 -31.6051
   -31.5945 -31.5944 -31.5901 -31.5891 -31.5850 -31.5848 -31.5760 -31.5717
    -8.9704  -8.0575  -8.0574  -7.8955   4.1596   4.1598   4.3239   5.0427
     5.8314   6.0635   6.0637   6.4752   6.4755   6.6332   7.1643   7.5392

          k = 0.2488 0.2488 0.2500 (  5146 PWs)   bands (ev):

   -64.8314 -64.8267 -64.8266 -64.8258 -31.6282 -31.6280 -31.6246 -31.6049
   -31.5921 -31.5919 -31.5914 -31.5862 -31.5841 -31.5840 -31.5741 -31.5707
    -8.8006  -8.0365  -8.0245  -8.0236   3.9820   4.0053   4.0061   5.0693
     5.8247   5.8405   5.8478   6.7011   6.7012   6.7529   7.3511   7.3918

          k = 0.2488 0.2488-0.5000 (  5128 PWs)   bands (ev):

   -64.8292 -64.8288 -64.8266 -64.8260 -31.6309 -31.6307 -31.6202 -31.6202
   -31.5899 -31.5897 -31.5820 -31.5820 -31.5803 -31.5800 -31.5767 -31.5766
    -8.4038  -8.4036  -7.9910  -7.9908   3.8308   3.8314   4.1766   4.1768
     5.8183   5.8184   6.7360   6.7362   6.8634   6.8640   7.0583   7.0584

          k = 0.2523-0.5012 0.0000 (  5153 PWs)   bands (ev):

   -64.8296 -64.8292 -64.8262 -64.8256 -31.6212 -31.6147 -31.6139 -31.6074
   -31.6073 -31.6070 -31.5864 -31.5855 -31.5852 -31.5817 -31.5778 -31.5735
    -8.5166  -8.5017  -7.9546  -7.9383   4.4083   4.4287   4.7472   4.7558
     5.0882   5.1050   6.5163   6.5644   6.5812   6.5879   7.0705   7.1193

          k = 0.2523-0.5012 0.2500 (  5137 PWs)   bands (ev):

   -64.8291 -64.8287 -64.8267 -64.8260 -31.6306 -31.6266 -31.6241 -31.6188
   -31.5937 -31.5932 -31.5824 -31.5804 -31.5795 -31.5789 -31.5771 -31.5755
    -8.4061  -8.3913  -8.0046  -7.9888   3.8055   3.8379   4.1861   4.2104
     5.8229   5.8378   6.7177   6.7646   6.8521   6.8843   7.0105   7.0252

          k = 0.2523-0.5012-0.5000 (  5144 PWs)   bands (ev):

   -64.8280 -64.8279 -64.8278 -64.8268 -31.6343 -31.6341 -31.6300 -31.6299
   -31.5850 -31.5848 -31.5825 -31.5823 -31.5758 -31.5757 -31.5750 -31.5749
    -8.1757  -8.1753  -8.1593  -8.1592   3.6225   3.6225   3.6586   3.6589
     6.4990   6.4990   6.5503   6.5508   7.0568   7.0573   7.0730   7.0731

          k = 0.2512-0.2512 0.0000 (  5159 PWs)   bands (ev):

   -64.8323 -64.8268 -64.8263 -64.8252 -31.6199 -31.6192 -31.6191 -31.6109
   -31.5952 -31.5947 -31.5947 -31.5886 -31.5885 -31.5860 -31.5761 -31.5671
    -8.9609  -8.0693  -8.0690  -7.8843   4.1641   4.1643   4.3339   5.1003
     5.8638   6.0483   6.0484   6.4952   6.4952   6.5360   7.1823   7.4728

          k = 0.2512-0.2512 0.2500 (  5158 PWs)   bands (ev):

   -64.8313 -64.8268 -64.8266 -64.8259 -31.6265 -31.6235 -31.6234 -31.6078
   -31.5968 -31.5963 -31.5958 -31.5839 -31.5839 -31.5822 -31.5725 -31.5697
    -8.7911  -8.0370  -8.0358  -8.0242   3.9951   3.9963   4.0193   5.1097
     5.8444   5.8521   5.8677   6.6596   6.7106   6.7107   7.3201   7.3601

          k = 0.2512-0.2512-0.5000 (  5152 PWs)   bands (ev):

   -64.8290 -64.8286 -64.8268 -64.8261 -31.6263 -31.6262 -31.6232 -31.6231
   -31.5970 -31.5967 -31.5801 -31.5800 -31.5795 -31.5795 -31.5764 -31.5761
    -8.3939  -8.3937  -8.0024  -8.0022   3.8121   3.8123   4.2197   4.2202
     5.8430   5.8435   6.7451   6.7452   6.8745   6.8746   6.9748   6.9753

          k =-0.4977-0.4977 0.0000 (  5188 PWs)   bands (ev):

   -64.8281 -64.8279 -64.8278 -64.8268 -31.6233 -31.6230 -31.6163 -31.6160
   -31.5974 -31.5973 -31.5973 -31.5970 -31.5780 -31.5777 -31.5746 -31.5743
    -8.2162  -8.2158  -8.1938  -8.1938   4.2868   4.2871   4.2997   4.2999
     5.7540   5.7543   5.7814   5.7816   7.0267   7.0271   7.1020   7.1021

          k =-0.4977-0.4977 0.2500 (  5140 PWs)   bands (ev):

   -64.8281 -64.8279 -64.8277 -64.8268 -31.6344 -31.6341 -31.6299 -31.6298
   -31.5843 -31.5843 -31.5823 -31.5822 -31.5781 -31.5778 -31.5734 -31.5731
    -8.1785  -8.1782  -8.1565  -8.1564   3.6264   3.6266   3.6544   3.6547
     6.5206   6.5208   6.5285   6.5288   7.0278   7.0282   7.1026   7.1028

          k =-0.4977-0.4977-0.5000 (  5136 PWs)   bands (ev):

   -64.8280 -64.8279 -64.8277 -64.8268 -31.6410 -31.6408 -31.6392 -31.6391
   -31.5773 -31.5771 -31.5761 -31.5761 -31.5746 -31.5746 -31.5737 -31.5734
    -8.1403  -8.1400  -8.1185  -8.1184   3.2004   3.2005   3.2350   3.2352
     7.0286   7.0290   7.0642   7.0644   7.0667   7.0667   7.1035   7.1037

          k = 0.2500-0.0012-0.2500 (  5153 PWs)   bands (ev):

   -64.8323 -64.8267 -64.8263 -64.8253 -31.6217 -31.6214 -31.6204 -31.6073
   -31.5950 -31.5942 -31.5932 -31.5877 -31.5868 -31.5864 -31.5757 -31.5688
    -8.9657  -8.0666  -8.0603  -7.8896   4.1564   4.1670   4.3292   5.0716
     5.8471   6.0465   6.0622   6.4832   6.4911   6.5840   7.1735   7.5067

          k = 0.2488 0.2488-0.2500 (  5146 PWs)   bands (ev):

   -64.8314 -64.8267 -64.8266 -64.8258 -31.6282 -31.6280 -31.6246 -31.6049
   -31.5921 -31.5919 -31.5914 -31.5862 -31.5841 -31.5840 -31.5741 -31.5707
    -8.8006  -8.0365  -8.0245  -8.0236   3.9820   4.0053   4.0061   5.0693
     5.8247   5.8405   5.8478   6.7011   6.7012   6.7529   7.3511   7.3918

          k =-0.5012 0.2523-0.2500 (  5137 PWs)   bands (ev):

   -64.8291 -64.8287 -64.8267 -64.8260 -31.6306 -31.6266 -31.6241 -31.6188
   -31.5937 -31.5932 -31.5824 -31.5804 -31.5795 -31.5789 -31.5771 -31.5755
    -8.4061  -8.3913  -8.0046  -7.9888   3.8055   3.8379   4.1861   4.2104
     5.8229   5.8378   6.7177   6.7646   6.8521   6.8843   7.0105   7.0252

     highest occupied level (ev):     7.7066

!    total energy              =    -608.39256076 Ry
     Harris-Foulkes estimate   =    -608.39256077 Ry
     estimated scf accuracy    <          6.4E-09 Ry

     The total energy is the sum of the following terms:

     one-electron contribution =    -303.55384419 Ry
     hartree contribution      =     168.06601186 Ry
     xc contribution           =     -97.84625534 Ry
     ewald contribution        =    -375.05847309 Ry

     convergence has been achieved in   3 iterations

     Forces acting on atoms (cartesian axes, Ry/au):

     atom    1 type  1   force =    -0.00095188   -0.00095188   -0.00000704
     atom    2 type  1   force =     0.00107689   -0.00101979    0.00000638
     atom    3 type  1   force =    -0.00101979    0.00107689    0.00000638
     atom    4 type  1   force =     0.00086896    0.00086896   -0.00000730
     atom    5 type  2   force =    -0.00117889    0.00122888   -0.00001002
     atom    6 type  2   force =     0.00122888   -0.00117889   -0.00001002
     atom    7 type  2   force =    -0.00115479   -0.00115479    0.00001108
     atom    8 type  2   force =     0.00113062    0.00113062    0.00001054

     Total force =     0.004330     Total SCF correction =     0.000123


     Computing stress (Cartesian axis) and pressure

          total   stress  (Ry/bohr**3)                   (kbar)     P=  -68.11
  -0.00046287  -0.00008935  -0.00000000        -68.09    -13.14     -0.00
  -0.00008935  -0.00046287  -0.00000000        -13.14    -68.09     -0.00
  -0.00000000  -0.00000000  -0.00046323         -0.00     -0.00    -68.14


     number of scf cycles    =   2
     number of bfgs steps    =   1

     energy   old            =    -608.3925378508 Ry
     energy   new            =    -608.3925607628 Ry

     CASE: energy  _new < energy  _old


     WARNING: bfgs curvature condition failed, Theta= 0.918
     new trust radius        =       0.0022187450 bohr
     new conv_thr            =       0.0000000002 Ry


ATOMIC_POSITIONS (alat)
Mg      -0.000282763  -0.000282763  -0.000002569
Mg       0.000327475   0.499693719   0.500002455
Mg       0.499693719   0.000327475   0.500002455
Mg       0.500250749   0.500250749  -0.000002573
O        0.499637293   0.000381655  -0.000003219
O        0.000381655   0.499637293  -0.000003219
O       -0.000353324  -0.000353324   0.500003329
O        0.500345196   0.500345196   0.500003339



     Writing output data file MgO.0.009286.70.4.save
     NEW-OLD atomic charge density approx. for the potential

     Check: negative/imaginary core charge=   -0.000007    0.000000

     total cpu time spent up to now is       15.4 secs

     per-process dynamical memory:    53.8 Mb

     Self-consistent Calculation

     iteration #  1     ecut=    70.00 Ry     beta=0.70
     Davidson diagonalization with overlap
     ethr =  1.00E-06,  avg # of iterations =  3.0

     Threshold (ethr) on eigenvalues was too large:
     Diagonalizing with lowered threshold

     Davidson diagonalization with overlap
     ethr =  2.97E-09,  avg # of iterations =  2.5

     total cpu time spent up to now is       17.8 secs

     total energy              =    -608.39258224 Ry
     Harris-Foulkes estimate   =    -608.39258334 Ry
     estimated scf accuracy    <       0.00000195 Ry

     iteration #  2     ecut=    70.00 Ry     beta=0.70
     Davidson diagonalization with overlap
     ethr =  3.05E-09,  avg # of iterations =  2.0

     total cpu time spent up to now is       18.7 secs

     total energy              =    -608.39258256 Ry
     Harris-Foulkes estimate   =    -608.39258260 Ry
     estimated scf accuracy    <       0.00000008 Ry

     iteration #  3     ecut=    70.00 Ry     beta=0.70
     Davidson diagonalization with overlap
     ethr =  1.23E-10,  avg # of iterations =  3.0

     total cpu time spent up to now is       19.8 secs

     total energy              =    -608.39258257 Ry
     Harris-Foulkes estimate   =    -608.39258259 Ry
     estimated scf accuracy    <       0.00000004 Ry

     iteration #  4     ecut=    70.00 Ry     beta=0.70
     Davidson diagonalization with overlap
     ethr =  6.72E-11,  avg # of iterations =  2.9

     total cpu time spent up to now is       20.9 secs

     total energy              =    -608.39258258 Ry
     Harris-Foulkes estimate   =    -608.39258259 Ry
     estimated scf accuracy    <          7.4E-09 Ry

     iteration #  5     ecut=    70.00 Ry     beta=0.70
     Davidson diagonalization with overlap
     ethr =  1.15E-11,  avg # of iterations =  2.6

     total cpu time spent up to now is       22.0 secs

     End of self-consistent calculation

          k = 0.0000 0.0000 0.0000 (  5149 PWs)   bands (ev):

   -64.8349 -64.8255 -64.8254 -64.8247 -31.6313 -31.6313 -31.6312 -31.5952
   -31.5938 -31.5937 -31.5930 -31.5930 -31.5916 -31.5671 -31.5655 -31.5640
    -9.3644  -7.9136  -7.9131  -7.9130   3.7583   3.7589   3.7590   6.3266
     6.3802   6.3803   6.3804   6.3808   6.4348   7.6390   7.6722   7.7065

          k = 0.0000 0.0000 0.2500 (  5153 PWs)   bands (ev):

   -64.8335 -64.8267 -64.8255 -64.8248 -31.6256 -31.6255 -31.6207 -31.5980
   -31.5979 -31.5944 -31.5943 -31.5911 -31.5869 -31.5785 -31.5737 -31.5692
    -9.1560  -8.1284  -7.8847  -7.8846   4.0483   4.0491   4.0962   5.8582
     5.8584   6.1709   6.1713   6.4917   6.5956   6.6589   7.4132   7.4890

          k = 0.0000 0.0000-0.5000 (  5130 PWs)   bands (ev):

   -64.8303 -64.8298 -64.8254 -64.8249 -31.6147 -31.6144 -31.6074 -31.6071
   -31.6022 -31.6021 -31.5914 -31.5913 -31.5831 -31.5829 -31.5785 -31.5782
    -8.6458  -8.6457  -7.8559  -7.8558   4.8411   4.8414   4.8535   4.8540
     5.1229   5.1232   5.9738   5.9742   6.9233   6.9235   7.0146   7.0148

          k =-0.0012 0.2500 0.0000 (  5167 PWs)   bands (ev):

   -64.8335 -64.8267 -64.8254 -64.8248 -31.6254 -31.6251 -31.6218 -31.5999
   -31.5987 -31.5936 -31.5933 -31.5894 -31.5890 -31.5801 -31.5719 -31.5709
    -9.1559  -8.1281  -7.8851  -7.8847   4.0486   4.0489   4.0956   5.8518
     5.8585   6.1708   6.1776   6.5432   6.5433   6.6583   7.4503   7.4517

          k =-0.0012 0.2500 0.2500 (  5153 PWs)   bands (ev):

   -64.8323 -64.8267 -64.8263 -64.8252 -31.6216 -31.6214 -31.6204 -31.6073
   -31.5949 -31.5941 -31.5932 -31.5877 -31.5868 -31.5864 -31.5757 -31.5688
    -8.9658  -8.0660  -8.0610  -7.8897   4.1575   4.1659   4.3291   5.0716
     5.8470   6.0480   6.0607   6.4837   6.4905   6.5839   7.1734   7.5066

          k =-0.0012 0.2500-0.5000 (  5148 PWs)   bands (ev):

   -64.8296 -64.8291 -64.8262 -64.8255 -31.6184 -31.6183 -31.6104 -31.6104
   -31.6067 -31.6065 -31.5856 -31.5853 -31.5840 -31.5840 -31.5754 -31.5752
    -8.5094  -8.5093  -7.9464  -7.9463   4.4187   4.4188   4.7511   4.7513
     5.0966   5.0967   6.5481   6.5484   6.5752   6.5752   7.0961   7.0962

          k = 0.0023-0.5000 0.0000 (  5128 PWs)   bands (ev):

   -64.8303 -64.8298 -64.8254 -64.8249 -31.6113 -31.6109 -31.6103 -31.6100
   -31.6025 -31.6023 -31.5922 -31.5921 -31.5808 -31.5806 -31.5802 -31.5800
    -8.6456  -8.6454  -7.8562  -7.8560   4.8467   4.8478   4.8482   4.8482
     5.1231   5.1235   5.9735   5.9747   6.9684   6.9689   6.9690   6.9690

          k = 0.0023-0.5000 0.2500 (  5154 PWs)   bands (ev):

   -64.8296 -64.8292 -64.8261 -64.8256 -31.6180 -31.6177 -31.6108 -31.6107
   -31.6072 -31.6070 -31.5856 -31.5854 -31.5841 -31.5839 -31.5755 -31.5753
    -8.5093  -8.5091  -7.9466  -7.9464   4.4181   4.4184   4.7514   4.7518
     5.0968   5.0974   6.5481   6.5486   6.5761   6.5763   7.0942   7.0946

          k = 0.0023-0.5000-0.5000 (  5180 PWs)   bands (ev):

   -64.8279 -64.8278 -64.8278 -64.8268 -31.6196 -31.6195 -31.6193 -31.6192
   -31.5974 -31.5971 -31.5967 -31.5964 -31.5763 -31.5762 -31.5759 -31.5758
    -8.2084  -8.2083  -8.2016  -8.2015   4.2872   4.2873   4.2995   4.2998
     5.7601   5.7606   5.7763   5.7768   7.0601   7.0606   7.0673   7.0674

          k = 0.2488 0.2488 0.0000 (  5151 PWs)   bands (ev):

   -64.8324 -64.8266 -64.8262 -64.8253 -31.6238 -31.6235 -31.6200 -31.6051
   -31.5945 -31.5944 -31.5901 -31.5891 -31.5850 -31.5848 -31.5759 -31.5716
    -8.9705  -8.0576  -8.0574  -7.8956   4.1596   4.1597   4.3239   5.0427
     5.8313   6.0633   6.0637   6.4752   6.4753   6.6331   7.1643   7.5392

          k = 0.2488 0.2488 0.2500 (  5146 PWs)   bands (ev):

   -64.8314 -64.8267 -64.8266 -64.8258 -31.6281 -31.6279 -31.6246 -31.6048
   -31.5920 -31.5918 -31.5914 -31.5862 -31.5841 -31.5840 -31.5741 -31.5706
    -8.8007  -8.0363  -8.0244  -8.0240   3.9823   4.0052   4.0058   5.0693
     5.8266   5.8406   5.8458   6.7010   6.7012   6.7528   7.3510   7.3917

          k = 0.2488 0.2488-0.5000 (  5128 PWs)   bands (ev):

   -64.8292 -64.8287 -64.8266 -64.8259 -31.6309 -31.6307 -31.6202 -31.6201
   -31.5899 -31.5897 -31.5820 -31.5820 -31.5803 -31.5800 -31.5767 -31.5765
    -8.4038  -8.4037  -7.9910  -7.9909   3.8309   3.8313   4.1765   4.1766
     5.8182   5.8184   6.7359   6.7362   6.8634   6.8638   7.0582   7.0584

          k = 0.2523-0.5012 0.0000 (  5153 PWs)   bands (ev):

   -64.8296 -64.8291 -64.8262 -64.8255 -31.6211 -31.6147 -31.6138 -31.6074
   -31.6073 -31.6070 -31.5864 -31.5854 -31.5851 -31.5817 -31.5778 -31.5735
    -8.5166  -8.5017  -7.9547  -7.9384   4.4083   4.4287   4.7472   4.7557
     5.0881   5.1049   6.5162   6.5644   6.5811   6.5878   7.0704   7.1192

          k = 0.2523-0.5012 0.2500 (  5137 PWs)   bands (ev):

   -64.8291 -64.8286 -64.8267 -64.8260 -31.6306 -31.6265 -31.6241 -31.6188
   -31.5937 -31.5932 -31.5823 -31.5803 -31.5795 -31.5789 -31.5771 -31.5755
    -8.4061  -8.3913  -8.0047  -7.9889   3.8054   3.8379   4.1861   4.2104
     5.8229   5.8378   6.7176   6.7645   6.8520   6.8842   7.0104   7.0251

          k = 0.2523-0.5012-0.5000 (  5144 PWs)   bands (ev):

   -64.8280 -64.8278 -64.8277 -64.8268 -31.6343 -31.6341 -31.6300 -31.6299
   -31.5850 -31.5847 -31.5824 -31.5823 -31.5758 -31.5757 -31.5750 -31.5749
    -8.1754  -8.1753  -8.1596  -8.1594   3.6228   3.6228   3.6583   3.6585
     6.4993   6.4994   6.5500   6.5502   7.0570   7.0574   7.0727   7.0728

          k = 0.2512-0.2512 0.0000 (  5159 PWs)   bands (ev):

   -64.8322 -64.8267 -64.8263 -64.8252 -31.6199 -31.6192 -31.6191 -31.6109
   -31.5952 -31.5947 -31.5946 -31.5886 -31.5885 -31.5860 -31.5761 -31.5671
    -8.9610  -8.0693  -8.0692  -7.8844   4.1640   4.1643   4.3339   5.1003
     5.8637   6.0481   6.0485   6.4951   6.4952   6.5359   7.1823   7.4727

          k = 0.2512-0.2512 0.2500 (  5158 PWs)   bands (ev):

   -64.8312 -64.8267 -64.8266 -64.8259 -31.6265 -31.6234 -31.6233 -31.6077
   -31.5967 -31.5963 -31.5958 -31.5839 -31.5838 -31.5822 -31.5725 -31.5697
    -8.7911  -8.0366  -8.0360  -8.0245   3.9955   3.9963   4.0189   5.1097
     5.8464   5.8519   5.8657   6.6596   6.7105   6.7107   7.3200   7.3600

          k = 0.2512-0.2512-0.5000 (  5152 PWs)   bands (ev):

   -64.8290 -64.8286 -64.8267 -64.8261 -31.6263 -31.6261 -31.6231 -31.6230
   -31.5970 -31.5967 -31.5801 -31.5800 -31.5794 -31.5794 -31.5764 -31.5761
    -8.3939  -8.3938  -8.0024  -8.0023   3.8121   3.8123   4.2197   4.2201
     5.8431   5.8433   6.7450   6.7452   6.8744   6.8745   6.9749   6.9750

          k =-0.4977-0.4977 0.0000 (  5188 PWs)   bands (ev):

   -64.8280 -64.8279 -64.8277 -64.8268 -31.6232 -31.6229 -31.6162 -31.6160
   -31.5974 -31.5972 -31.5972 -31.5969 -31.5780 -31.5777 -31.5745 -31.5742
    -8.2161  -8.2160  -8.1939  -8.1938   4.2868   4.2871   4.2997   4.2997
     5.7539   5.7543   5.7813   5.7817   7.0268   7.0268   7.1019   7.1021

          k =-0.4977-0.4977 0.2500 (  5140 PWs)   bands (ev):

   -64.8280 -64.8278 -64.8277 -64.8268 -31.6343 -31.6341 -31.6299 -31.6297
   -31.5843 -31.5842 -31.5822 -31.5822 -31.5780 -31.5778 -31.5734 -31.5731
    -8.1784  -8.1783  -8.1566  -8.1564   3.6264   3.6266   3.6545   3.6546
     6.5205   6.5208   6.5285   6.5288   7.0279   7.0280   7.1025   7.1027

          k =-0.4977-0.4977-0.5000 (  5136 PWs)   bands (ev):

   -64.8280 -64.8278 -64.8277 -64.8268 -31.6409 -31.6408 -31.6391 -31.6390
   -31.5773 -31.5770 -31.5761 -31.5760 -31.5746 -31.5746 -31.5737 -31.5734
    -8.1402  -8.1402  -8.1186  -8.1184   3.2004   3.2004   3.2350   3.2351
     7.0287   7.0287   7.0641   7.0644   7.0666   7.0667   7.1035   7.1036

          k = 0.2500-0.0012-0.2500 (  5153 PWs)   bands (ev):

   -64.8323 -64.8267 -64.8263 -64.8252 -31.6216 -31.6214 -31.6204 -31.6073
   -31.5949 -31.5941 -31.5932 -31.5877 -31.5868 -31.5864 -31.5757 -31.5688
    -8.9658  -8.0660  -8.0610  -7.8897   4.1575   4.1659   4.3291   5.0716
     5.8470   6.0480   6.0607   6.4837   6.4905   6.5839   7.1734   7.5066

          k = 0.2488 0.2488-0.2500 (  5146 PWs)   bands (ev):

   -64.8314 -64.8267 -64.8266 -64.8258 -31.6281 -31.6279 -31.6246 -31.6048
   -31.5920 -31.5918 -31.5914 -31.5862 -31.5841 -31.5840 -31.5741 -31.5706
    -8.8007  -8.0363  -8.0244  -8.0240   3.9823   4.0052   4.0058   5.0693
     5.8266   5.8406   5.8458   6.7010   6.7012   6.7528   7.3510   7.3917

          k =-0.5012 0.2523-0.2500 (  5137 PWs)   bands (ev):

   -64.8291 -64.8286 -64.8267 -64.8260 -31.6306 -31.6265 -31.6241 -31.6188
   -31.5937 -31.5932 -31.5823 -31.5803 -31.5795 -31.5789 -31.5771 -31.5755
    -8.4061  -8.3913  -8.0047  -7.9889   3.8054   3.8379   4.1861   4.2104
     5.8229   5.8378   6.7176   6.7645   6.8520   6.8842   7.0104   7.0251

     highest occupied level (ev):     7.7065

!    total energy              =    -608.39258258 Ry
     Harris-Foulkes estimate   =    -608.39258258 Ry
     estimated scf accuracy    <          6.0E-11 Ry

     The total energy is the sum of the following terms:

     one-electron contribution =    -303.55426790 Ry
     hartree contribution      =     168.06626806 Ry
     xc contribution           =     -97.84628807 Ry
     ewald contribution        =    -375.05829468 Ry

     convergence has been achieved in   5 iterations

     Forces acting on atoms (cartesian axes, Ry/au):

     atom    1 type  1   force =    -0.00079082   -0.00079082   -0.00000609
     atom    2 type  1   force =     0.00088503   -0.00086478    0.00000633
     atom    3 type  1   force =    -0.00086478    0.00088503    0.00000633
     atom    4 type  1   force =     0.00076137    0.00076137   -0.00000646
     atom    5 type  2   force =    -0.00093166    0.00094410   -0.00000494
     atom    6 type  2   force =     0.00094410   -0.00093166   -0.00000494
     atom    7 type  2   force =    -0.00090509   -0.00090509    0.00000487
     atom    8 type  2   force =     0.00090186    0.00090186    0.00000489

     Total force =     0.003501     Total SCF correction =     0.000024


     Computing stress (Cartesian axis) and pressure

          total   stress  (Ry/bohr**3)                   (kbar)     P=  -68.10
  -0.00046283  -0.00008935   0.00000000        -68.09    -13.14      0.00
  -0.00008935  -0.00046283   0.00000000        -13.14    -68.09      0.00
   0.00000000   0.00000000  -0.00046309          0.00      0.00    -68.12


     number of scf cycles    =   3
     number of bfgs steps    =   2

     energy   old            =    -608.3925607628 Ry
     energy   new            =    -608.3925825840 Ry

     CASE: energy  _new < energy  _old

     new trust radius        =       0.0033281176 bohr
     new conv_thr            =       0.0000000002 Ry


ATOMIC_POSITIONS (alat)
Mg      -0.000523545  -0.000523545  -0.000004495
Mg       0.000599002   0.499430999   0.500004416
Mg       0.499430999   0.000599002   0.500004416
Mg       0.500478504   0.500478504  -0.000004586
O        0.499348050   0.000677432  -0.000004998
O        0.000677432   0.499348050  -0.000004998
O       -0.000634515  -0.000634515   0.500005115
O        0.500624073   0.500624073   0.500005131



     Writing output data file MgO.0.009286.70.4.save
     NEW-OLD atomic charge density approx. for the potential

     Check: negative/imaginary core charge=   -0.000007    0.000000

     total cpu time spent up to now is       22.6 secs

     per-process dynamical memory:    53.8 Mb

     Self-consistent Calculation

     iteration #  1     ecut=    70.00 Ry     beta=0.70
     Davidson diagonalization with overlap
     ethr =  1.00E-06,  avg # of iterations =  3.0

     Threshold (ethr) on eigenvalues was too large:
     Diagonalizing with lowered threshold

     Davidson diagonalization with overlap
     ethr =  6.80E-09,  avg # of iterations =  2.1

     total cpu time spent up to now is       25.0 secs

     total energy              =    -608.39260701 Ry
     Harris-Foulkes estimate   =    -608.39260945 Ry
     estimated scf accuracy    <       0.00000436 Ry

     iteration #  2     ecut=    70.00 Ry     beta=0.70
     Davidson diagonalization with overlap
     ethr =  6.81E-09,  avg # of iterations =  2.0

     total cpu time spent up to now is       26.0 secs

     total energy              =    -608.39260775 Ry
     Harris-Foulkes estimate   =    -608.39260777 Ry
     estimated scf accuracy    <       0.00000011 Ry

     iteration #  3     ecut=    70.00 Ry     beta=0.70
     Davidson diagonalization with overlap
     ethr =  1.68E-10,  avg # of iterations =  2.0

     total cpu time spent up to now is       26.9 secs

     total energy              =    -608.39260776 Ry
     Harris-Foulkes estimate   =    -608.39260776 Ry
     estimated scf accuracy    <          7.0E-09 Ry

     iteration #  4     ecut=    70.00 Ry     beta=0.70
     Davidson diagonalization with overlap
     ethr =  1.09E-11,  avg # of iterations =  2.1

     total cpu time spent up to now is       27.9 secs

     total energy              =    -608.39260776 Ry
     Harris-Foulkes estimate   =    -608.39260776 Ry
     estimated scf accuracy    <          5.1E-10 Ry

     iteration #  5     ecut=    70.00 Ry     beta=0.70
     Davidson diagonalization with overlap
     ethr =  7.96E-13,  avg # of iterations =  3.0

     total cpu time spent up to now is       29.0 secs

     End of self-consistent calculation

          k = 0.0000 0.0000 0.0000 (  5149 PWs)   bands (ev):

   -64.8349 -64.8254 -64.8254 -64.8246 -31.6313 -31.6312 -31.6312 -31.5951
   -31.5938 -31.5937 -31.5930 -31.5930 -31.5916 -31.5670 -31.5655 -31.5639
    -9.3644  -7.9136  -7.9132  -7.9131   3.7583   3.7589   3.7589   6.3265
     6.3802   6.3803   6.3804   6.3807   6.4347   7.6390   7.6722   7.7065

          k = 0.0000 0.0000 0.2500 (  5153 PWs)   bands (ev):

   -64.8335 -64.8266 -64.8254 -64.8248 -31.6255 -31.6254 -31.6207 -31.5980
   -31.5979 -31.5944 -31.5943 -31.5911 -31.5869 -31.5784 -31.5736 -31.5692
    -9.1560  -8.1284  -7.8847  -7.8847   4.0487   4.0490   4.0958   5.8582
     5.8583   6.1709   6.1712   6.4917   6.5956   6.6589   7.4132   7.4889

          k = 0.0000 0.0000-0.5000 (  5130 PWs)   bands (ev):

   -64.8303 -64.8298 -64.8254 -64.8248 -31.6146 -31.6144 -31.6073 -31.6071
   -31.6021 -31.6021 -31.5914 -31.5913 -31.5831 -31.5828 -31.5785 -31.5782
    -8.6458  -8.6457  -7.8559  -7.8559   4.8412   4.8414   4.8537   4.8539
     5.1228   5.1230   5.9738   5.9741   6.9233   6.9234   7.0146   7.0146

          k =-0.0012 0.2500 0.0000 (  5167 PWs)   bands (ev):

   -64.8335 -64.8266 -64.8254 -64.8248 -31.6254 -31.6250 -31.6217 -31.5998
   -31.5986 -31.5935 -31.5933 -31.5894 -31.5890 -31.5800 -31.5719 -31.5709
    -9.1559  -8.1281  -7.8851  -7.8848   4.0485   4.0488   4.0955   5.8519
     5.8584   6.1708   6.1774   6.5431   6.5432   6.6582   7.4503   7.4517

          k =-0.0012 0.2500 0.2500 (  5153 PWs)   bands (ev):

   -64.8323 -64.8266 -64.8262 -64.8252 -31.6216 -31.6213 -31.6203 -31.6072
   -31.5948 -31.5941 -31.5931 -31.5876 -31.5867 -31.5864 -31.5757 -31.5688
    -8.9658  -8.0651  -8.0619  -7.8898   4.1590   4.1643   4.3291   5.0716
     5.8470   6.0501   6.0585   6.4845   6.4896   6.5839   7.1733   7.5066

          k =-0.0012 0.2500-0.5000 (  5148 PWs)   bands (ev):

   -64.8296 -64.8291 -64.8261 -64.8255 -31.6184 -31.6182 -31.6104 -31.6103
   -31.6067 -31.6064 -31.5855 -31.5853 -31.5840 -31.5840 -31.5753 -31.5752
    -8.5094  -8.5093  -7.9464  -7.9464   4.4187   4.4188   4.7510   4.7512
     5.0966   5.0966   6.5481   6.5484   6.5751   6.5751   7.0960   7.0961

          k = 0.0023-0.5000 0.0000 (  5128 PWs)   bands (ev):

   -64.8303 -64.8298 -64.8254 -64.8248 -31.6112 -31.6109 -31.6102 -31.6100
   -31.6024 -31.6023 -31.5922 -31.5921 -31.5808 -31.5805 -31.5802 -31.5799
    -8.6458  -8.6454  -7.8563  -7.8561   4.8468   4.8476   4.8482   4.8484
     5.1230   5.1235   5.9736   5.9744   6.9684   6.9687   6.9690   6.9690

          k = 0.0023-0.5000 0.2500 (  5154 PWs)   bands (ev):

   -64.8295 -64.8291 -64.8261 -64.8255 -31.6179 -31.6177 -31.6107 -31.6107
   -31.6071 -31.6069 -31.5856 -31.5854 -31.5840 -31.5839 -31.5755 -31.5753
    -8.5094  -8.5091  -7.9466  -7.9465   4.4180   4.4185   4.7513   4.7517
     5.0966   5.0975   6.5482   6.5484   6.5759   6.5764   7.0942   7.0945

          k = 0.0023-0.5000-0.5000 (  5180 PWs)   bands (ev):

   -64.8279 -64.8278 -64.8278 -64.8268 -31.6196 -31.6194 -31.6193 -31.6192
   -31.5972 -31.5970 -31.5968 -31.5964 -31.5763 -31.5762 -31.5759 -31.5758
    -8.2072  -8.2070  -8.2029  -8.2028   4.2895   4.2895   4.2972   4.2974
     5.7630   5.7637   5.7732   5.7739   7.0615   7.0617   7.0659   7.0661

          k = 0.2488 0.2488 0.0000 (  5151 PWs)   bands (ev):

   -64.8323 -64.8265 -64.8262 -64.8252 -31.6237 -31.6235 -31.6200 -31.6050
   -31.5944 -31.5943 -31.5900 -31.5890 -31.5849 -31.5847 -31.5759 -31.5716
    -8.9705  -8.0576  -8.0575  -7.8957   4.1596   4.1596   4.3238   5.0428
     5.8313   6.0633   6.0637   6.4752   6.4752   6.6331   7.1643   7.5391

          k = 0.2488 0.2488 0.2500 (  5146 PWs)   bands (ev):

   -64.8313 -64.8266 -64.8265 -64.8258 -31.6281 -31.6279 -31.6245 -31.6048
   -31.5919 -31.5918 -31.5914 -31.5861 -31.5841 -31.5840 -31.5740 -31.5706
    -8.8007  -8.0361  -8.0245  -8.0243   3.9828   4.0051   4.0053   5.0693
     5.8292   5.8405   5.8431   6.7010   6.7011   6.7527   7.3510   7.3916

          k = 0.2488 0.2488-0.5000 (  5128 PWs)   bands (ev):

   -64.8291 -64.8287 -64.8265 -64.8259 -31.6308 -31.6306 -31.6202 -31.6201
   -31.5899 -31.5896 -31.5819 -31.5819 -31.5802 -31.5800 -31.5766 -31.5765
    -8.4038  -8.4038  -7.9911  -7.9910   3.8310   3.8312   4.1765   4.1765
     5.8183   5.8183   6.7359   6.7361   6.8634   6.8637   7.0582   7.0582

          k = 0.2523-0.5012 0.0000 (  5153 PWs)   bands (ev):

   -64.8296 -64.8291 -64.8261 -64.8255 -31.6211 -31.6146 -31.6138 -31.6073
   -31.6072 -31.6069 -31.5863 -31.5854 -31.5851 -31.5817 -31.5777 -31.5734
    -8.5166  -8.5018  -7.9547  -7.9384   4.4083   4.4287   4.7471   4.7557
     5.0881   5.1049   6.5161   6.5644   6.5810   6.5878   7.0703   7.1191

          k = 0.2523-0.5012 0.2500 (  5137 PWs)   bands (ev):

   -64.8291 -64.8286 -64.8266 -64.8260 -31.6306 -31.6265 -31.6240 -31.6187
   -31.5936 -31.5932 -31.5823 -31.5803 -31.5795 -31.5789 -31.5770 -31.5754
    -8.4061  -8.3913  -8.0047  -7.9889   3.8054   3.8379   4.1860   4.2103
     5.8229   5.8378   6.7175   6.7644   6.8519   6.8842   7.0104   7.0251

          k = 0.2523-0.5012-0.5000 (  5144 PWs)   bands (ev):

   -64.8279 -64.8278 -64.8277 -64.8268 -31.6342 -31.6341 -31.6299 -31.6298
   -31.5849 -31.5847 -31.5824 -31.5822 -31.5758 -31.5756 -31.5750 -31.5749
    -8.1752  -8.1751  -8.1598  -8.1598   3.6231   3.6231   3.6579   3.6581
     6.4997   6.4997   6.5496   6.5498   7.0573   7.0575   7.0724   7.0725

          k = 0.2512-0.2512 0.0000 (  5159 PWs)   bands (ev):

   -64.8322 -64.8267 -64.8263 -64.8251 -31.6199 -31.6191 -31.6190 -31.6109
   -31.5951 -31.5947 -31.5946 -31.5885 -31.5884 -31.5859 -31.5760 -31.5670
    -8.9610  -8.0693  -8.0692  -7.8844   4.1639   4.1643   4.3338   5.1003
     5.8637   6.0480   6.0485   6.4950   6.4951   6.5358   7.1822   7.4726

          k = 0.2512-0.2512 0.2500 (  5158 PWs)   bands (ev):

   -64.8312 -64.8267 -64.8266 -64.8258 -31.6265 -31.6234 -31.6233 -31.6077
   -31.5966 -31.5963 -31.5959 -31.5838 -31.5838 -31.5821 -31.5725 -31.5697
    -8.7912  -8.0363  -8.0360  -8.0249   3.9959   3.9963   4.0184   5.1096
     5.8491   5.8519   5.8630   6.6595   6.7105   6.7106   7.3200   7.3600

          k = 0.2512-0.2512-0.5000 (  5152 PWs)   bands (ev):

   -64.8290 -64.8285 -64.8267 -64.8261 -31.6262 -31.6261 -31.6231 -31.6230
   -31.5969 -31.5966 -31.5800 -31.5799 -31.5794 -31.5794 -31.5763 -31.5760
    -8.3939  -8.3939  -8.0024  -8.0024   3.8122   3.8122   4.2197   4.2199
     5.8432   5.8433   6.7450   6.7452   6.8743   6.8744   6.9749   6.9749

          k =-0.4977-0.4977 0.0000 (  5188 PWs)   bands (ev):

   -64.8280 -64.8278 -64.8277 -64.8268 -31.6232 -31.6229 -31.6162 -31.6159
   -31.5974 -31.5972 -31.5972 -31.5969 -31.5779 -31.5777 -31.5745 -31.5742
    -8.2162  -8.2160  -8.1939  -8.1938   4.2867   4.2871   4.2997   4.2997
     5.7538   5.7544   5.7813   5.7816   7.0267   7.0267   7.1018   7.1020

          k =-0.4977-0.4977 0.2500 (  5140 PWs)   bands (ev):

   -64.8280 -64.8278 -64.8277 -64.8268 -31.6342 -31.6341 -31.6298 -31.6297
   -31.5842 -31.5842 -31.5822 -31.5822 -31.5780 -31.5778 -31.5733 -31.5731
    -8.1785  -8.1783  -8.1565  -8.1565   3.6263   3.6266   3.6544   3.6545
     6.5204   6.5209   6.5285   6.5287   7.0278   7.0279   7.1024   7.1026

          k =-0.4977-0.4977-0.5000 (  5136 PWs)   bands (ev):

   -64.8280 -64.8278 -64.8277 -64.8268 -31.6409 -31.6407 -31.6391 -31.6390
   -31.5772 -31.5770 -31.5760 -31.5760 -31.5746 -31.5745 -31.5737 -31.5734
    -8.1402  -8.1402  -8.1185  -8.1185   3.2004   3.2004   3.2350   3.2351
     7.0286   7.0286   7.0641   7.0644   7.0665   7.0667   7.1034   7.1034

          k = 0.2500-0.0012-0.2500 (  5153 PWs)   bands (ev):

   -64.8323 -64.8266 -64.8262 -64.8252 -31.6216 -31.6213 -31.6203 -31.6072
   -31.5948 -31.5941 -31.5931 -31.5876 -31.5867 -31.5864 -31.5757 -31.5688
    -8.9658  -8.0651  -8.0619  -7.8898   4.1590   4.1643   4.3291   5.0716
     5.8470   6.0501   6.0585   6.4845   6.4896   6.5839   7.1733   7.5066

          k = 0.2488 0.2488-0.2500 (  5146 PWs)   bands (ev):

   -64.8313 -64.8266 -64.8265 -64.8258 -31.6281 -31.6279 -31.6245 -31.6048
   -31.5919 -31.5918 -31.5914 -31.5861 -31.5841 -31.5840 -31.5740 -31.5706
    -8.8007  -8.0361  -8.0245  -8.0243   3.9828   4.0051   4.0053   5.0693
     5.8292   5.8405   5.8431   6.7010   6.7011   6.7527   7.3510   7.3916

          k =-0.5012 0.2523-0.2500 (  5137 PWs)   bands (ev):

   -64.8291 -64.8286 -64.8266 -64.8260 -31.6306 -31.6265 -31.6240 -31.6187
   -31.5936 -31.5932 -31.5823 -31.5803 -31.5795 -31.5789 -31.5770 -31.5754
    -8.4061  -8.3913  -8.0047  -7.9889   3.8054   3.8379   4.1860   4.2103
     5.8229   5.8378   6.7175   6.7644   6.8519   6.8842   7.0104   7.0251

     highest occupied level (ev):     7.7065

!    total energy              =    -608.39260776 Ry
     Harris-Foulkes estimate   =    -608.39260776 Ry
     estimated scf accuracy    <          1.2E-10 Ry

     The total energy is the sum of the following terms:

     one-electron contribution =    -303.55473802 Ry
     hartree contribution      =     168.06653071 Ry
     xc contribution           =     -97.84631207 Ry
     ewald contribution        =    -375.05808838 Ry

     convergence has been achieved in   5 iterations

     Forces acting on atoms (cartesian axes, Ry/au):

     atom    1 type  1   force =    -0.00056309   -0.00056309   -0.00000104
     atom    2 type  1   force =     0.00058908   -0.00061600    0.00000158
     atom    3 type  1   force =    -0.00061600    0.00058908    0.00000158
     atom    4 type  1   force =     0.00060831    0.00060831   -0.00000163
     atom    5 type  2   force =    -0.00058046    0.00055266   -0.00000074
     atom    6 type  2   force =     0.00055266   -0.00058046   -0.00000074
     atom    7 type  2   force =    -0.00056338   -0.00056338    0.00000055
     atom    8 type  2   force =     0.00057287    0.00057287    0.00000045

     Total force =     0.002324     Total SCF correction =     0.000021


     Computing stress (Cartesian axis) and pressure

          total   stress  (Ry/bohr**3)                   (kbar)     P=  -68.09
  -0.00046284  -0.00008935  -0.00000000        -68.09    -13.14     -0.00
  -0.00008935  -0.00046284  -0.00000000        -13.14    -68.09     -0.00
  -0.00000000  -0.00000000  -0.00046300         -0.00     -0.00    -68.11


     number of scf cycles    =   4
     number of bfgs steps    =   3

     energy   old            =    -608.3925825840 Ry
     energy   new            =    -608.3926077626 Ry

     CASE: energy  _new < energy  _old

     new trust radius        =       0.0049921763 bohr
     new conv_thr            =       0.0000000003 Ry


ATOMIC_POSITIONS (alat)
Mg      -0.000908917  -0.000908917  -0.000006624
Mg       0.001021697   0.499010388   0.500006709
Mg       0.499010388   0.001021697   0.500006709
Mg       0.500862243   0.500862243  -0.000006951
O        0.498909159   0.001116127  -0.000007038
O        0.001116127   0.498909159  -0.000007038
O       -0.001061021  -0.001061021   0.500007119
O        0.501050323   0.501050323   0.500007113



     Writing output data file MgO.0.009286.70.4.save
     NEW-OLD atomic charge density approx. for the potential

     Check: negative/imaginary core charge=   -0.000007    0.000000

     total cpu time spent up to now is       29.7 secs

     per-process dynamical memory:    53.8 Mb

     Self-consistent Calculation

     iteration #  1     ecut=    70.00 Ry     beta=0.70
     Davidson diagonalization with overlap
     ethr =  1.00E-06,  avg # of iterations =  3.0

     Threshold (ethr) on eigenvalues was too large:
     Diagonalizing with lowered threshold

     Davidson diagonalization with overlap
     ethr =  1.52E-08,  avg # of iterations =  1.8

     total cpu time spent up to now is       32.1 secs

     total energy              =    -608.39262507 Ry
     Harris-Foulkes estimate   =    -608.39263046 Ry
     estimated scf accuracy    <       0.00000973 Ry

     iteration #  2     ecut=    70.00 Ry     beta=0.70
     Davidson diagonalization with overlap
     ethr =  1.52E-08,  avg # of iterations =  2.0

     total cpu time spent up to now is       33.0 secs

     total energy              =    -608.39262670 Ry
     Harris-Foulkes estimate   =    -608.39262676 Ry
     estimated scf accuracy    <       0.00000024 Ry

     iteration #  3     ecut=    70.00 Ry     beta=0.70
     Davidson diagonalization with overlap
     ethr =  3.81E-10,  avg # of iterations =  2.0

     total cpu time spent up to now is       34.0 secs

     total energy              =    -608.39262673 Ry
     Harris-Foulkes estimate   =    -608.39262673 Ry
     estimated scf accuracy    <       0.00000002 Ry

     iteration #  4     ecut=    70.00 Ry     beta=0.70
     Davidson diagonalization with overlap
     ethr =  2.61E-11,  avg # of iterations =  2.2

     total cpu time spent up to now is       35.0 secs

     total energy              =    -608.39262673 Ry
     Harris-Foulkes estimate   =    -608.39262673 Ry
     estimated scf accuracy    <          3.2E-09 Ry

     iteration #  5     ecut=    70.00 Ry     beta=0.70
     Davidson diagonalization with overlap
     ethr =  5.06E-12,  avg # of iterations =  3.0

     total cpu time spent up to now is       36.1 secs

     End of self-consistent calculation

          k = 0.0000 0.0000 0.0000 (  5149 PWs)   bands (ev):

   -64.8349 -64.8254 -64.8254 -64.8246 -31.6312 -31.6312 -31.6311 -31.5951
   -31.5937 -31.5937 -31.5930 -31.5929 -31.5915 -31.5670 -31.5654 -31.5639
    -9.3644  -7.9136  -7.9133  -7.9131   3.7583   3.7589   3.7589   6.3265
     6.3802   6.3802   6.3803   6.3807   6.4347   7.6389   7.6722   7.7064

          k = 0.0000 0.0000 0.2500 (  5153 PWs)   bands (ev):

   -64.8335 -64.8266 -64.8254 -64.8248 -31.6255 -31.6254 -31.6207 -31.5979
   -31.5978 -31.5943 -31.5943 -31.5911 -31.5868 -31.5784 -31.5736 -31.5691
    -9.1560  -8.1285  -7.8848  -7.8847   4.0489   4.0489   4.0955   5.8583
     5.8583   6.1709   6.1713   6.4916   6.5955   6.6589   7.4131   7.4889

          k = 0.0000 0.0000-0.5000 (  5130 PWs)   bands (ev):

   -64.8302 -64.8298 -64.8254 -64.8248 -31.6146 -31.6144 -31.6073 -31.6070
   -31.6021 -31.6021 -31.5913 -31.5913 -31.5830 -31.5828 -31.5785 -31.5782
    -8.6458  -8.6457  -7.8560  -7.8559   4.8413   4.8413   4.8538   4.8539
     5.1226   5.1229   5.9738   5.9741   6.9233   6.9234   7.0146   7.0146

          k =-0.0012 0.2500 0.0000 (  5167 PWs)   bands (ev):

   -64.8334 -64.8266 -64.8254 -64.8248 -31.6253 -31.6250 -31.6217 -31.5998
   -31.5986 -31.5935 -31.5933 -31.5894 -31.5889 -31.5800 -31.5719 -31.5709
    -9.1560  -8.1281  -7.8851  -7.8848   4.0485   4.0488   4.0955   5.8520
     5.8584   6.1708   6.1772   6.5431   6.5432   6.6582   7.4502   7.4516

          k =-0.0012 0.2500 0.2500 (  5153 PWs)   bands (ev):

   -64.8322 -64.8266 -64.8262 -64.8252 -31.6215 -31.6213 -31.6203 -31.6072
   -31.5948 -31.5941 -31.5931 -31.5876 -31.5867 -31.5864 -31.5756 -31.5687
    -8.9658  -8.0638  -8.0633  -7.8898   4.1613   4.1620   4.3291   5.0716
     5.8469   6.0527   6.0559   6.4852   6.4888   6.5838   7.1733   7.5065

          k =-0.0012 0.2500-0.5000 (  5148 PWs)   bands (ev):

   -64.8295 -64.8291 -64.8261 -64.8255 -31.6184 -31.6182 -31.6103 -31.6103
   -31.6066 -31.6064 -31.5855 -31.5852 -31.5840 -31.5839 -31.5753 -31.5751
    -8.5094  -8.5093  -7.9465  -7.9464   4.4188   4.4188   4.7510   4.7512
     5.0965   5.0966   6.5481   6.5484   6.5750   6.5751   7.0960   7.0961

          k = 0.0023-0.5000 0.0000 (  5128 PWs)   bands (ev):

   -64.8302 -64.8298 -64.8254 -64.8248 -31.6111 -31.6109 -31.6102 -31.6100
   -31.6023 -31.6023 -31.5921 -31.5920 -31.5807 -31.5805 -31.5801 -31.5799
    -8.6459  -8.6452  -7.8562  -7.8562   4.8469   4.8474   4.8481   4.8485
     5.1230   5.1235   5.9738   5.9741   6.9683   6.9685   6.9690   6.9691

          k = 0.0023-0.5000 0.2500 (  5154 PWs)   bands (ev):

   -64.8295 -64.8291 -64.8261 -64.8255 -31.6178 -31.6177 -31.6107 -31.6107
   -31.6071 -31.6069 -31.5856 -31.5854 -31.5840 -31.5839 -31.5754 -31.5753
    -8.5095  -8.5089  -7.9467  -7.9466   4.4180   4.4185   4.7512   4.7516
     5.0965   5.0976   6.5481   6.5485   6.5757   6.5765   7.0942   7.0945

          k = 0.0023-0.5000-0.5000 (  5180 PWs)   bands (ev):

   -64.8278 -64.8278 -64.8278 -64.8268 -31.6196 -31.6194 -31.6193 -31.6192
   -31.5971 -31.5969 -31.5968 -31.5965 -31.5762 -31.5761 -31.5759 -31.5759
    -8.2055  -8.2050  -8.2049  -8.2046   4.2929   4.2930   4.2937   4.2939
     5.7673   5.7682   5.7687   5.7695   7.0634   7.0635   7.0639   7.0643

          k = 0.2488 0.2488 0.0000 (  5151 PWs)   bands (ev):

   -64.8323 -64.8265 -64.8262 -64.8252 -31.6237 -31.6235 -31.6200 -31.6050
   -31.5944 -31.5943 -31.5900 -31.5890 -31.5849 -31.5847 -31.5759 -31.5716
    -8.9705  -8.0577  -8.0575  -7.8957   4.1596   4.1596   4.3238   5.0428
     5.8312   6.0633   6.0637   6.4751   6.4752   6.6330   7.1643   7.5390

          k = 0.2488 0.2488 0.2500 (  5146 PWs)   bands (ev):

   -64.8313 -64.8266 -64.8265 -64.8258 -31.6280 -31.6279 -31.6245 -31.6048
   -31.5918 -31.5918 -31.5915 -31.5861 -31.5840 -31.5839 -31.5740 -31.5706
    -8.8007  -8.0359  -8.0246  -8.0245   3.9830   4.0051   4.0051   5.0692
     5.8318   5.8404   5.8405   6.7009   6.7011   6.7527   7.3509   7.3916

          k = 0.2488 0.2488-0.5000 (  5128 PWs)   bands (ev):

   -64.8291 -64.8287 -64.8265 -64.8259 -31.6308 -31.6306 -31.6201 -31.6200
   -31.5898 -31.5896 -31.5819 -31.5819 -31.5802 -31.5799 -31.5766 -31.5765
    -8.4039  -8.4037  -7.9911  -7.9910   3.8311   3.8312   4.1764   4.1765
     5.8183   5.8183   6.7359   6.7361   6.8634   6.8636   7.0582   7.0582

          k = 0.2523-0.5012 0.0000 (  5153 PWs)   bands (ev):

   -64.8295 -64.8291 -64.8261 -64.8255 -31.6211 -31.6146 -31.6137 -31.6073
   -31.6072 -31.6069 -31.5863 -31.5854 -31.5851 -31.5816 -31.5777 -31.5734
    -8.5167  -8.5018  -7.9548  -7.9384   4.4083   4.4287   4.7471   4.7557
     5.0881   5.1049   6.5161   6.5643   6.5810   6.5878   7.0703   7.1191

          k = 0.2523-0.5012 0.2500 (  5137 PWs)   bands (ev):

   -64.8290 -64.8286 -64.8266 -64.8260 -31.6305 -31.6265 -31.6240 -31.6187
   -31.5936 -31.5931 -31.5823 -31.5802 -31.5794 -31.5788 -31.5770 -31.5754
    -8.4062  -8.3913  -8.0048  -7.9889   3.8054   3.8379   4.1860   4.2103
     5.8229   5.8378   6.7175   6.7644   6.8519   6.8841   7.0103   7.0250

          k = 0.2523-0.5012-0.5000 (  5144 PWs)   bands (ev):

   -64.8279 -64.8278 -64.8277 -64.8268 -31.6342 -31.6340 -31.6299 -31.6298
   -31.5849 -31.5846 -31.5824 -31.5822 -31.5757 -31.5756 -31.5749 -31.5749
    -8.1751  -8.1750  -8.1600  -8.1599   3.6233   3.6233   3.6577   3.6578
     6.4999   6.5000   6.5494   6.5494   7.0574   7.0576   7.0722   7.0723

          k = 0.2512-0.2512 0.0000 (  5159 PWs)   bands (ev):

   -64.8322 -64.8267 -64.8263 -64.8251 -31.6198 -31.6191 -31.6190 -31.6108
   -31.5951 -31.5946 -31.5946 -31.5885 -31.5884 -31.5859 -31.5760 -31.5670
    -8.9610  -8.0694  -8.0692  -7.8844   4.1639   4.1643   4.3338   5.1003
     5.8637   6.0480   6.0485   6.4950   6.4951   6.5357   7.1822   7.4726

          k = 0.2512-0.2512 0.2500 (  5158 PWs)   bands (ev):

   -64.8312 -64.8267 -64.8266 -64.8258 -31.6264 -31.6234 -31.6232 -31.6077
   -31.5965 -31.5963 -31.5959 -31.5838 -31.5838 -31.5821 -31.5724 -31.5696
    -8.7912  -8.0362  -8.0360  -8.0251   3.9961   3.9964   4.0181   5.1096
     5.8517   5.8521   5.8602   6.6594   6.7104   6.7106   7.3199   7.3600

          k = 0.2512-0.2512-0.5000 (  5152 PWs)   bands (ev):

   -64.8289 -64.8285 -64.8267 -64.8260 -31.6262 -31.6261 -31.6231 -31.6230
   -31.5969 -31.5966 -31.5800 -31.5799 -31.5794 -31.5793 -31.5763 -31.5760
    -8.3940  -8.3938  -8.0025  -8.0024   3.8122   3.8123   4.2197   4.2198
     5.8432   5.8433   6.7450   6.7452   6.8743   6.8744   6.9748   6.9749

          k =-0.4977-0.4977 0.0000 (  5188 PWs)   bands (ev):

   -64.8279 -64.8278 -64.8276 -64.8268 -31.6231 -31.6229 -31.6161 -31.6159
   -31.5973 -31.5972 -31.5971 -31.5969 -31.5779 -31.5776 -31.5745 -31.5742
    -8.2162  -8.2160  -8.1940  -8.1938   4.2867   4.2871   4.2997   4.2997
     5.7537   5.7544   5.7813   5.7816   7.0266   7.0267   7.1017   7.1019

          k =-0.4977-0.4977 0.2500 (  5140 PWs)   bands (ev):

   -64.8279 -64.8278 -64.8276 -64.8268 -31.6342 -31.6340 -31.6298 -31.6296
   -31.5842 -31.5842 -31.5822 -31.5821 -31.5780 -31.5777 -31.5733 -31.5730
    -8.1785  -8.1783  -8.1566  -8.1565   3.6263   3.6266   3.6545   3.6545
     6.5204   6.5208   6.5285   6.5287   7.0277   7.0278   7.1024   7.1025

          k =-0.4977-0.4977-0.5000 (  5136 PWs)   bands (ev):

   -64.8279 -64.8278 -64.8276 -64.8268 -31.6408 -31.6407 -31.6391 -31.6389
   -31.5772 -31.5770 -31.5760 -31.5759 -31.5745 -31.5745 -31.5736 -31.5734
    -8.1403  -8.1402  -8.1186  -8.1185   3.2004   3.2004   3.2350   3.2350
     7.0285   7.0286   7.0641   7.0643   7.0665   7.0667   7.1034   7.1034

          k = 0.2500-0.0012-0.2500 (  5153 PWs)   bands (ev):

   -64.8322 -64.8266 -64.8262 -64.8252 -31.6215 -31.6213 -31.6203 -31.6072
   -31.5948 -31.5941 -31.5931 -31.5876 -31.5867 -31.5864 -31.5756 -31.5687
    -8.9658  -8.0638  -8.0633  -7.8898   4.1613   4.1620   4.3291   5.0716
     5.8469   6.0527   6.0559   6.4852   6.4888   6.5838   7.1733   7.5065

          k = 0.2488 0.2488-0.2500 (  5146 PWs)   bands (ev):

   -64.8313 -64.8266 -64.8265 -64.8258 -31.6280 -31.6279 -31.6245 -31.6048
   -31.5918 -31.5918 -31.5915 -31.5861 -31.5840 -31.5839 -31.5740 -31.5706
    -8.8007  -8.0359  -8.0246  -8.0245   3.9830   4.0051   4.0051   5.0692
     5.8318   5.8404   5.8405   6.7009   6.7011   6.7527   7.3509   7.3916

          k =-0.5012 0.2523-0.2500 (  5137 PWs)   bands (ev):

   -64.8290 -64.8286 -64.8266 -64.8260 -31.6305 -31.6265 -31.6240 -31.6187
   -31.5936 -31.5931 -31.5823 -31.5802 -31.5794 -31.5788 -31.5770 -31.5754
    -8.4062  -8.3913  -8.0048  -7.9889   3.8054   3.8379   4.1860   4.2103
     5.8229   5.8378   6.7175   6.7644   6.8519   6.8841   7.0103   7.0250

     highest occupied level (ev):     7.7064

!    total energy              =    -608.39262673 Ry
     Harris-Foulkes estimate   =    -608.39262673 Ry
     estimated scf accuracy    <          2.4E-10 Ry

     The total energy is the sum of the following terms:

     one-electron contribution =    -303.55508754 Ry
     hartree contribution      =     168.06671992 Ry
     xc contribution           =     -97.84632494 Ry
     ewald contribution        =    -375.05793418 Ry

     convergence has been achieved in   5 iterations

     Forces acting on atoms (cartesian axes, Ry/au):

     atom    1 type  1   force =    -0.00018549   -0.00018549    0.00000416
     atom    2 type  1   force =     0.00013539   -0.00021935   -0.00000361
     atom    3 type  1   force =    -0.00021935    0.00013539   -0.00000361
     atom    4 type  1   force =     0.00031914    0.00031914    0.00000356
     atom    5 type  2   force =    -0.00005619   -0.00001092    0.00000427
     atom    6 type  2   force =    -0.00001092   -0.00005619    0.00000427
     atom    7 type  2   force =    -0.00005660   -0.00005660   -0.00000446
     atom    8 type  2   force =     0.00007402    0.00007402   -0.00000458

     Total force =     0.000655     Total SCF correction =     0.000040


     Computing stress (Cartesian axis) and pressure

          total   stress  (Ry/bohr**3)                   (kbar)     P=  -68.09
  -0.00046287  -0.00008935  -0.00000000        -68.09    -13.14     -0.00
  -0.00008935  -0.00046287  -0.00000000        -13.14    -68.09     -0.00
  -0.00000000  -0.00000000  -0.00046294         -0.00     -0.00    -68.10


     number of scf cycles    =   5
     number of bfgs steps    =   4

     energy   old            =    -608.3926077626 Ry
     energy   new            =    -608.3926267333 Ry

     CASE: energy  _new < energy  _old

     new trust radius        =       0.0015589790 bohr
     new conv_thr            =       0.0000000002 Ry


ATOMIC_POSITIONS (alat)
Mg      -0.001027022  -0.001027022  -0.000006536
Mg       0.001141611   0.498878830   0.500006736
Mg       0.498878830   0.001141611   0.500006736
Mg       0.500999272   0.500999272  -0.000007003
O        0.498796778   0.001218922  -0.000006919
O        0.001218922   0.498796778  -0.000006919
O       -0.001170555  -0.001170555   0.500006966
O        0.501162163   0.501162163   0.500006941



     Writing output data file MgO.0.009286.70.4.save
     NEW-OLD atomic charge density approx. for the potential

     Check: negative/imaginary core charge=   -0.000007    0.000000

     total cpu time spent up to now is       36.8 secs

     per-process dynamical memory:    53.8 Mb

     Self-consistent Calculation

     iteration #  1     ecut=    70.00 Ry     beta=0.70
     Davidson diagonalization with overlap
     ethr =  1.00E-06,  avg # of iterations =  2.6

     Threshold (ethr) on eigenvalues was too large:
     Diagonalizing with lowered threshold

     Davidson diagonalization with overlap
     ethr =  6.72E-10,  avg # of iterations =  3.1

     total cpu time spent up to now is       39.2 secs

     total energy              =    -608.39262777 Ry
     Harris-Foulkes estimate   =    -608.39262808 Ry
     estimated scf accuracy    <       0.00000058 Ry

     iteration #  2     ecut=    70.00 Ry     beta=0.70
     Davidson diagonalization with overlap
     ethr =  9.05E-10,  avg # of iterations =  2.0

     total cpu time spent up to now is       40.2 secs

     total energy              =    -608.39262787 Ry
     Harris-Foulkes estimate   =    -608.39262787 Ry
     estimated scf accuracy    <       0.00000002 Ry

     iteration #  3     ecut=    70.00 Ry     beta=0.70
     Davidson diagonalization with overlap
     ethr =  2.74E-11,  avg # of iterations =  2.3

     total cpu time spent up to now is       41.2 secs

     total energy              =    -608.39262787 Ry
     Harris-Foulkes estimate   =    -608.39262787 Ry
     estimated scf accuracy    <          3.3E-09 Ry

     iteration #  4     ecut=    70.00 Ry     beta=0.70
     Davidson diagonalization with overlap
     ethr =  5.23E-12,  avg # of iterations =  3.0

     total cpu time spent up to now is       42.4 secs

     total energy              =    -608.39262787 Ry
     Harris-Foulkes estimate   =    -608.39262787 Ry
     estimated scf accuracy    <          3.0E-09 Ry

     iteration #  5     ecut=    70.00 Ry     beta=0.70
     Davidson diagonalization with overlap
     ethr =  4.66E-12,  avg # of iterations =  2.4

     total cpu time spent up to now is       43.4 secs

     End of self-consistent calculation

          k = 0.0000 0.0000 0.0000 (  5149 PWs)   bands (ev):

   -64.8349 -64.8254 -64.8254 -64.8246 -31.6312 -31.6312 -31.6311 -31.5951
   -31.5937 -31.5937 -31.5930 -31.5929 -31.5915 -31.5670 -31.5654 -31.5639
    -9.3644  -7.9136  -7.9132  -7.9132   3.7583   3.7589   3.7589   6.3265
     6.3802   6.3802   6.3803   6.3807   6.4347   7.6389   7.6722   7.7064

          k = 0.0000 0.0000 0.2500 (  5153 PWs)   bands (ev):

   -64.8334 -64.8266 -64.8254 -64.8248 -31.6255 -31.6254 -31.6207 -31.5979
   -31.5978 -31.5943 -31.5943 -31.5911 -31.5868 -31.5784 -31.5736 -31.5691
    -9.1560  -8.1285  -7.8848  -7.8847   4.0489   4.0489   4.0955   5.8583
     5.8583   6.1709   6.1712   6.4916   6.5955   6.6589   7.4131   7.4889

          k = 0.0000 0.0000-0.5000 (  5130 PWs)   bands (ev):

   -64.8302 -64.8298 -64.8254 -64.8248 -31.6146 -31.6144 -31.6073 -31.6070
   -31.6021 -31.6021 -31.5913 -31.5913 -31.5830 -31.5828 -31.5785 -31.5782
    -8.6458  -8.6457  -7.8560  -7.8559   4.8413   4.8413   4.8538   4.8538
     5.1226   5.1229   5.9738   5.9741   6.9233   6.9233   7.0146   7.0146

          k =-0.0012 0.2500 0.0000 (  5167 PWs)   bands (ev):

   -64.8334 -64.8266 -64.8254 -64.8248 -31.6253 -31.6250 -31.6217 -31.5998
   -31.5986 -31.5935 -31.5933 -31.5894 -31.5889 -31.5800 -31.5719 -31.5709
    -9.1560  -8.1281  -7.8851  -7.8848   4.0485   4.0488   4.0955   5.8520
     5.8584   6.1708   6.1772   6.5431   6.5432   6.6581   7.4502   7.4516

          k =-0.0012 0.2500 0.2500 (  5153 PWs)   bands (ev):

   -64.8322 -64.8266 -64.8262 -64.8252 -31.6215 -31.6213 -31.6203 -31.6072
   -31.5947 -31.5941 -31.5931 -31.5876 -31.5867 -31.5864 -31.5756 -31.5687
    -8.9658  -8.0638  -8.0633  -7.8898   4.1612   4.1621   4.3291   5.0716
     5.8469   6.0527   6.0558   6.4853   6.4887   6.5838   7.1733   7.5065

          k =-0.0012 0.2500-0.5000 (  5148 PWs)   bands (ev):

   -64.8295 -64.8291 -64.8261 -64.8255 -31.6183 -31.6182 -31.6103 -31.6103
   -31.6066 -31.6064 -31.5855 -31.5852 -31.5840 -31.5839 -31.5753 -31.5751
    -8.5094  -8.5093  -7.9465  -7.9464   4.4188   4.4188   4.7510   4.7512
     5.0965   5.0966   6.5481   6.5484   6.5750   6.5751   7.0960   7.0961

          k = 0.0023-0.5000 0.0000 (  5128 PWs)   bands (ev):

   -64.8302 -64.8298 -64.8254 -64.8248 -31.6111 -31.6109 -31.6102 -31.6100
   -31.6023 -31.6023 -31.5921 -31.5921 -31.5807 -31.5805 -31.5801 -31.5799
    -8.6459  -8.6452  -7.8562  -7.8561   4.8470   4.8474   4.8480   4.8485
     5.1230   5.1234   5.9737   5.9741   6.9684   6.9685   6.9689   6.9691

          k = 0.0023-0.5000 0.2500 (  5154 PWs)   bands (ev):

   -64.8295 -64.8291 -64.8261 -64.8255 -31.6178 -31.6177 -31.6107 -31.6107
   -31.6071 -31.6069 -31.5856 -31.5854 -31.5840 -31.5839 -31.5754 -31.5753
    -8.5095  -8.5089  -7.9467  -7.9465   4.4180   4.4185   4.7512   4.7516
     5.0965   5.0976   6.5480   6.5485   6.5757   6.5765   7.0942   7.0944

          k = 0.0023-0.5000-0.5000 (  5180 PWs)   bands (ev):

   -64.8278 -64.8278 -64.8278 -64.8268 -31.6196 -31.6194 -31.6192 -31.6192
   -31.5970 -31.5969 -31.5968 -31.5966 -31.5762 -31.5760 -31.5759 -31.5759
    -8.2054  -8.2051  -8.2050  -8.2046   4.2929   4.2931   4.2938   4.2939
     5.7675   5.7682   5.7686   5.7694   7.0634   7.0637   7.0639   7.0640

          k = 0.2488 0.2488 0.0000 (  5151 PWs)   bands (ev):

   -64.8323 -64.8265 -64.8262 -64.8252 -31.6237 -31.6235 -31.6200 -31.6050
   -31.5944 -31.5943 -31.5900 -31.5890 -31.5849 -31.5847 -31.5759 -31.5716
    -8.9705  -8.0576  -8.0576  -7.8957   4.1596   4.1596   4.3238   5.0428
     5.8312   6.0633   6.0637   6.4751   6.4751   6.6330   7.1643   7.5390

          k = 0.2488 0.2488 0.2500 (  5146 PWs)   bands (ev):

   -64.8313 -64.8266 -64.8265 -64.8258 -31.6280 -31.6279 -31.6245 -31.6048
[...]
   -31.5969 -31.5966 -31.5800 -31.5799 -31.5794 -31.5793 -31.5763 -31.5760
    -8.3940  -8.3939  -8.0025  -8.0024   3.8122   3.8123   4.2197   4.2198
     5.8432   5.8433   6.7450   6.7452   6.8743   6.8744   6.9748   6.9749

          k =-0.4977-0.4977 0.0000 (  5188 PWs)   bands (ev):

   -64.8279 -64.8278 -64.8276 -64.8268 -31.6231 -31.6229 -31.6161 -31.6159
   -31.5973 -31.5972 -31.5971 -31.5969 -31.5779 -31.5776 -31.5745 -31.5742
    -8.2162  -8.2160  -8.1940  -8.1939   4.2868   4.2870   4.2997   4.2997
     5.7539   5.7542   5.7813   5.7816   7.0266   7.0267   7.1018   7.1019

          k =-0.4977-0.4977 0.2500 (  5140 PWs)   bands (ev):

   -64.8279 -64.8278 -64.8276 -64.8268 -31.6342 -31.6340 -31.6298 -31.6296
   -31.5842 -31.5842 -31.5822 -31.5821 -31.5780 -31.5777 -31.5733 -31.5730
    -8.1785  -8.1784  -8.1566  -8.1565   3.6264   3.6265   3.6545   3.6545
     6.5205   6.5207   6.5285   6.5287   7.0277   7.0278   7.1024   7.1025

          k =-0.4977-0.4977-0.5000 (  5136 PWs)   bands (ev):

   -64.8279 -64.8278 -64.8276 -64.8268 -31.6408 -31.6407 -31.6391 -31.6389
   -31.5772 -31.5770 -31.5760 -31.5759 -31.5745 -31.5745 -31.5736 -31.5734
    -8.1403  -8.1402  -8.1186  -8.1185   3.2003   3.2004   3.2350   3.2350
     7.0285   7.0286   7.0641   7.0643   7.0665   7.0667   7.1034   7.1034

          k = 0.2500-0.0012-0.2500 (  5153 PWs)   bands (ev):

   -64.8322 -64.8266 -64.8262 -64.8252 -31.6215 -31.6213 -31.6203 -31.6072
   -31.5947 -31.5941 -31.5931 -31.5876 -31.5867 -31.5864 -31.5756 -31.5687
    -8.9658  -8.0638  -8.0634  -7.8898   4.1613   4.1621   4.3291   5.0716
     5.8469   6.0527   6.0558   6.4853   6.4887   6.5838   7.1733   7.5065

          k = 0.2488 0.2488-0.2500 (  5146 PWs)   bands (ev):

   -64.8313 -64.8266 -64.8265 -64.8258 -31.6280 -31.6279 -31.6245 -31.6048
   -31.5918 -31.5917 -31.5915 -31.5861 -31.5840 -31.5839 -31.5740 -31.5706
    -8.8007  -8.0359  -8.0246  -8.0245   3.9830   4.0051   4.0051   5.0692
     5.8319   5.8404   5.8405   6.7009   6.7011   6.7527   7.3509   7.3916

          k =-0.5012 0.2523-0.2500 (  5137 PWs)   bands (ev):

   -64.8290 -64.8286 -64.8266 -64.8260 -31.6305 -31.6265 -31.6240 -31.6187
   -31.5936 -31.5931 -31.5823 -31.5802 -31.5794 -31.5788 -31.5770 -31.5754
    -8.4062  -8.3913  -8.0048  -7.9889   3.8054   3.8379   4.1860   4.2103
     5.8229   5.8378   6.7174   6.7644   6.8519   6.8841   7.0103   7.0250

     highest occupied level (ev):     7.7064

!    total energy              =    -608.39262802 Ry
     Harris-Foulkes estimate   =    -608.39262802 Ry
     estimated scf accuracy    <          8.1E-11 Ry

     The total energy is the sum of the following terms:

     one-electron contribution =    -303.55505434 Ry
     hartree contribution      =     168.06670681 Ry
     xc contribution           =     -97.84632550 Ry
     ewald contribution        =    -375.05795498 Ry

     convergence has been achieved in   3 iterations

     Forces acting on atoms (cartesian axes, Ry/au):

     atom    1 type  1   force =    -0.00002313   -0.00002313    0.00000236
     atom    2 type  1   force =    -0.00000175   -0.00006613   -0.00000198
     atom    3 type  1   force =    -0.00006613   -0.00000175   -0.00000198
     atom    4 type  1   force =     0.00013078    0.00013078    0.00000211
     atom    5 type  2   force =     0.00006313   -0.00010231    0.00000286
     atom    6 type  2   force =    -0.00010231    0.00006313    0.00000286
     atom    7 type  2   force =     0.00005470    0.00005470   -0.00000335
     atom    8 type  2   force =    -0.00005528   -0.00005528   -0.00000289

     Total force =     0.000292     Total SCF correction =     0.000023


     Computing stress (Cartesian axis) and pressure

          total   stress  (Ry/bohr**3)                   (kbar)     P=  -68.09
  -0.00046287  -0.00008935  -0.00000000        -68.09    -13.14     -0.00
  -0.00008935  -0.00046287  -0.00000000        -13.14    -68.09     -0.00
  -0.00000000  -0.00000000  -0.00046293         -0.00     -0.00    -68.10


     number of scf cycles    =   7
     number of bfgs steps    =   6

     energy   old            =    -608.3926278717 Ry
     energy   new            =    -608.3926280184 Ry

     CASE: energy  _new < energy  _old

     new trust radius        =       0.0004633780 bohr
     new conv_thr            =            1.0E-10 Ry


ATOMIC_POSITIONS (alat)
Mg      -0.001055950  -0.001055950  -0.000005324
Mg       0.001157161   0.498832393   0.500005701
Mg       0.498832393   0.001157161   0.500005701
Mg       0.501077025   0.501077025  -0.000005928
O        0.498809397   0.001186551  -0.000005581
O        0.001186551   0.498809397  -0.000005581
O       -0.001160319  -0.001160319   0.500005483
O        0.501153742   0.501153742   0.500005529



     Writing output data file MgO.0.009286.70.4.save
     NEW-OLD atomic charge density approx. for the potential

     Check: negative/imaginary core charge=   -0.000007    0.000000

     total cpu time spent up to now is       49.2 secs

     per-process dynamical memory:    53.8 Mb

     Self-consistent Calculation

     iteration #  1     ecut=    70.00 Ry     beta=0.70
     Davidson diagonalization with overlap
     ethr =  1.00E-06,  avg # of iterations =  2.0

     Threshold (ethr) on eigenvalues was too large:
     Diagonalizing with lowered threshold

     Davidson diagonalization with overlap
     ethr =  2.77E-11,  avg # of iterations =  3.7

     total cpu time spent up to now is       51.6 secs

     total energy              =    -608.39262815 Ry
     Harris-Foulkes estimate   =    -608.39262817 Ry
     estimated scf accuracy    <       0.00000003 Ry

     iteration #  2     ecut=    70.00 Ry     beta=0.70
     Davidson diagonalization with overlap
     ethr =  5.16E-11,  avg # of iterations =  2.0

     total cpu time spent up to now is       52.6 secs

     total energy              =    -608.39262816 Ry
     Harris-Foulkes estimate   =    -608.39262816 Ry
     estimated scf accuracy    <          1.7E-09 Ry

     iteration #  3     ecut=    70.00 Ry     beta=0.70
     Davidson diagonalization with overlap
     ethr =  2.71E-12,  avg # of iterations =  3.0

     total cpu time spent up to now is       53.7 secs

     total energy              =    -608.39262816 Ry
     Harris-Foulkes estimate   =    -608.39262816 Ry
     estimated scf accuracy    <          6.8E-10 Ry

     iteration #  4     ecut=    70.00 Ry     beta=0.70
     Davidson diagonalization with overlap
     ethr =  1.06E-12,  avg # of iterations =  3.0

     total cpu time spent up to now is       54.8 secs

     End of self-consistent calculation

          k = 0.0000 0.0000 0.0000 (  5149 PWs)   bands (ev):

   -64.8349 -64.8254 -64.8254 -64.8246 -31.6312 -31.6312 -31.6311 -31.5951
   -31.5937 -31.5937 -31.5930 -31.5929 -31.5915 -31.5670 -31.5654 -31.5639
    -9.3644  -7.9136  -7.9133  -7.9131   3.7583   3.7589   3.7589   6.3265
     6.3802   6.3802   6.3803   6.3807   6.4347   7.6389   7.6722   7.7064

          k = 0.0000 0.0000 0.2500 (  5153 PWs)   bands (ev):

   -64.8335 -64.8266 -64.8254 -64.8248 -31.6255 -31.6254 -31.6207 -31.5979
   -31.5978 -31.5943 -31.5943 -31.5911 -31.5868 -31.5784 -31.5736 -31.5691
    -9.1560  -8.1285  -7.8848  -7.8847   4.0489   4.0489   4.0955   5.8583
     5.8583   6.1709   6.1712   6.4916   6.5955   6.6589   7.4131   7.4889

          k = 0.0000 0.0000-0.5000 (  5130 PWs)   bands (ev):

   -64.8302 -64.8298 -64.8254 -64.8248 -31.6146 -31.6144 -31.6073 -31.6070
   -31.6021 -31.6021 -31.5913 -31.5913 -31.5830 -31.5828 -31.5785 -31.5782
    -8.6458  -8.6457  -7.8560  -7.8559   4.8413   4.8413   4.8538   4.8538
     5.1226   5.1229   5.9738   5.9741   6.9233   6.9233   7.0146   7.0146

          k =-0.0012 0.2500 0.0000 (  5167 PWs)   bands (ev):

   -64.8334 -64.8266 -64.8254 -64.8248 -31.6253 -31.6250 -31.6217 -31.5998
   -31.5986 -31.5935 -31.5933 -31.5894 -31.5889 -31.5800 -31.5719 -31.5709
    -9.1560  -8.1281  -7.8851  -7.8848   4.0485   4.0488   4.0955   5.8520
     5.8584   6.1708   6.1772   6.5431   6.5432   6.6581   7.4502   7.4516

          k =-0.0012 0.2500 0.2500 (  5153 PWs)   bands (ev):

   -64.8322 -64.8266 -64.8262 -64.8252 -31.6215 -31.6213 -31.6203 -31.6072
   -31.5947 -31.5941 -31.5931 -31.5876 -31.5867 -31.5864 -31.5756 -31.5687
    -8.9658  -8.0637  -8.0634  -7.8898   4.1613   4.1620   4.3291   5.0716
     5.8469   6.0528   6.0558   6.4853   6.4887   6.5838   7.1733   7.5065

          k =-0.0012 0.2500-0.5000 (  5148 PWs)   bands (ev):

   -64.8295 -64.8291 -64.8261 -64.8255 -31.6183 -31.6182 -31.6103 -31.6103
   -31.6066 -31.6064 -31.5855 -31.5852 -31.5840 -31.5839 -31.5753 -31.5751
    -8.5094  -8.5093  -7.9465  -7.9464   4.4188   4.4188   4.7510   4.7512
     5.0965   5.0966   6.5481   6.5484   6.5750   6.5751   7.0960   7.0961

          k = 0.0023-0.5000 0.0000 (  5128 PWs)   bands (ev):

   -64.8302 -64.8298 -64.8254 -64.8248 -31.6111 -31.6109 -31.6102 -31.6100
   -31.6023 -31.6023 -31.5921 -31.5921 -31.5807 -31.5805 -31.5801 -31.5799
    -8.6458  -8.6453  -7.8562  -7.8562   4.8471   4.8476   4.8479   4.8484
     5.1230   5.1234   5.9738   5.9741   6.9684   6.9686   6.9689   6.9690

          k = 0.0023-0.5000 0.2500 (  5154 PWs)   bands (ev):

   -64.8295 -64.8291 -64.8261 -64.8255 -31.6178 -31.6177 -31.6107 -31.6107
   -31.6071 -31.6069 -31.5856 -31.5854 -31.5840 -31.5839 -31.5754 -31.5753
    -8.5095  -8.5090  -7.9467  -7.9466   4.4181   4.4185   4.7513   4.7516
     5.0967   5.0975   6.5481   6.5484   6.5758   6.5764   7.0943   7.0944

          k = 0.0023-0.5000-0.5000 (  5180 PWs)   bands (ev):

   -64.8278 -64.8278 -64.8278 -64.8268 -31.6196 -31.6194 -31.6192 -31.6192
   -31.5970 -31.5969 -31.5968 -31.5966 -31.5762 -31.5760 -31.5759 -31.5759
    -8.2052  -8.2051  -8.2050  -8.2047   4.2931   4.2933   4.2935   4.2937
     5.7679   5.7682   5.7686   5.7690   7.0635   7.0637   7.0638   7.0639

          k = 0.2488 0.2488 0.0000 (  5151 PWs)   bands (ev):

   -64.8323 -64.8265 -64.8262 -64.8252 -31.6237 -31.6235 -31.6200 -31.6050
   -31.5944 -31.5943 -31.5900 -31.5890 -31.5849 -31.5847 -31.5759 -31.5716
    -8.9705  -8.0577  -8.0575  -7.8957   4.1596   4.1596   4.3238   5.0428
     5.8312   6.0633   6.0637   6.4751   6.4752   6.6330   7.1643   7.5390

          k = 0.2488 0.2488 0.2500 (  5146 PWs)   bands (ev):

   -64.8313 -64.8266 -64.8265 -64.8258 -31.6280 -31.6279 -31.6245 -31.6048
   -31.5918 -31.5917 -31.5915 -31.5861 -31.5840 -31.5839 -31.5740 -31.5706
    -8.8007  -8.0359  -8.0246  -8.0245   3.9830   4.0051   4.0051   5.0692
     5.8319   5.8404   5.8405   6.7009   6.7011   6.7527   7.3509   7.3916

          k = 0.2488 0.2488-0.5000 (  5128 PWs)   bands (ev):

   -64.8291 -64.8287 -64.8265 -64.8259 -31.6308 -31.6306 -31.6201 -31.6200
   -31.5898 -31.5896 -31.5819 -31.5819 -31.5802 -31.5799 -31.5766 -31.5765
    -8.4039  -8.4038  -7.9911  -7.9910   3.8311   3.8312   4.1764   4.1765
     5.8183   5.8183   6.7359   6.7361   6.8634   6.8635   7.0582   7.0582

          k = 0.2523-0.5012 0.0000 (  5153 PWs)   bands (ev):

   -64.8295 -64.8291 -64.8261 -64.8255 -31.6211 -31.6146 -31.6137 -31.6073
   -31.6072 -31.6069 -31.5863 -31.5854 -31.5851 -31.5816 -31.5777 -31.5734
    -8.5167  -8.5018  -7.9548  -7.9384   4.4083   4.4287   4.7471   4.7557
     5.0881   5.1049   6.5161   6.5643   6.5810   6.5878   7.0703   7.1191

          k = 0.2523-0.5012 0.2500 (  5137 PWs)   bands (ev):

   -64.8290 -64.8286 -64.8266 -64.8260 -31.6305 -31.6265 -31.6240 -31.6187
   -31.5936 -31.5931 -31.5823 -31.5802 -31.5794 -31.5788 -31.5770 -31.5754
    -8.4062  -8.3913  -8.0048  -7.9889   3.8054   3.8379   4.1860   4.2103
     5.8229   5.8378   6.7174   6.7644   6.8519   6.8841   7.0103   7.0250

          k = 0.2523-0.5012-0.5000 (  5144 PWs)   bands (ev):

   -64.8279 -64.8278 -64.8277 -64.8268 -31.6342 -31.6340 -31.6299 -31.6298
   -31.5849 -31.5846 -31.5824 -31.5822 -31.5757 -31.5756 -31.5749 -31.5749
    -8.1751  -8.1750  -8.1600  -8.1599   3.6233   3.6234   3.6577   3.6578
     6.4999   6.5000   6.5494   6.5494   7.0574   7.0576   7.0722   7.0723

          k = 0.2512-0.2512 0.0000 (  5159 PWs)   bands (ev):

   -64.8322 -64.8267 -64.8263 -64.8251 -31.6198 -31.6191 -31.6190 -31.6108
   -31.5951 -31.5946 -31.5946 -31.5885 -31.5884 -31.5859 -31.5760 -31.5670
    -8.9610  -8.0693  -8.0692  -7.8844   4.1641   4.1641   4.3338   5.1003
     5.8637   6.0481   6.0484   6.4950   6.4951   6.5357   7.1822   7.4726

          k = 0.2512-0.2512 0.2500 (  5158 PWs)   bands (ev):

   -64.8312 -64.8267 -64.8266 -64.8258 -31.6264 -31.6234 -31.6232 -31.6077
   -31.5964 -31.5963 -31.5959 -31.5838 -31.5838 -31.5821 -31.5724 -31.5696
    -8.7912  -8.0361  -8.0360  -8.0252   3.9962   3.9963   4.0181   5.1096
     5.8518   5.8520   5.8601   6.6594   6.7104   6.7106   7.3199   7.3600

          k = 0.2512-0.2512-0.5000 (  5152 PWs)   bands (ev):

   -64.8289 -64.8285 -64.8266 -64.8260 -31.6262 -31.6260 -31.6231 -31.6230
   -31.5969 -31.5966 -31.5800 -31.5799 -31.5794 -31.5793 -31.5763 -31.5760
    -8.3940  -8.3939  -8.0025  -8.0024   3.8122   3.8123   4.2197   4.2198
     5.8432   5.8433   6.7450   6.7452   6.8743   6.8744   6.9748   6.9749

          k =-0.4977-0.4977 0.0000 (  5188 PWs)   bands (ev):

   -64.8279 -64.8278 -64.8276 -64.8268 -31.6231 -31.6229 -31.6161 -31.6159
   -31.5973 -31.5972 -31.5971 -31.5969 -31.5779 -31.5776 -31.5745 -31.5742
    -8.2162  -8.2161  -8.1940  -8.1939   4.2869   4.2869   4.2997   4.2997
     5.7539   5.7542   5.7813   5.7816   7.0266   7.0267   7.1018   7.1019

          k =-0.4977-0.4977 0.2500 (  5140 PWs)   bands (ev):

   -64.8279 -64.8278 -64.8276 -64.8268 -31.6342 -31.6340 -31.6298 -31.6296
   -31.5842 -31.5842 -31.5822 -31.5821 -31.5780 -31.5777 -31.5733 -31.5730
    -8.1785  -8.1784  -8.1566  -8.1565   3.6264   3.6264   3.6545   3.6545
     6.5205   6.5207   6.5285   6.5287   7.0277   7.0278   7.1024   7.1025

          k =-0.4977-0.4977-0.5000 (  5136 PWs)   bands (ev):

   -64.8279 -64.8278 -64.8276 -64.8268 -31.6408 -31.6407 -31.6391 -31.6389
   -31.5772 -31.5770 -31.5760 -31.5759 -31.5745 -31.5745 -31.5736 -31.5734
    -8.1403  -8.1402  -8.1186  -8.1185   3.2003   3.2004   3.2350   3.2350
     7.0285   7.0286   7.0641   7.0643   7.0665   7.0667   7.1034   7.1034

          k = 0.2500-0.0012-0.2500 (  5153 PWs)   bands (ev):

   -64.8322 -64.8266 -64.8262 -64.8252 -31.6215 -31.6213 -31.6203 -31.6072
   -31.5947 -31.5941 -31.5931 -31.5876 -31.5867 -31.5864 -31.5756 -31.5687
    -8.9658  -8.0637  -8.0634  -7.8898   4.1613   4.1620   4.3291   5.0716
     5.8469   6.0528   6.0558   6.4853   6.4887   6.5838   7.1733   7.5065

          k = 0.2488 0.2488-0.2500 (  5146 PWs)   bands (ev):

   -64.8313 -64.8266 -64.8265 -64.8258 -31.6280 -31.6279 -31.6245 -31.6048
   -31.5918 -31.5917 -31.5915 -31.5861 -31.5840 -31.5839 -31.5740 -31.5706
    -8.8007  -8.0359  -8.0246  -8.0245   3.9830   4.0051   4.0051   5.0692
     5.8319   5.8404   5.8405   6.7009   6.7011   6.7527   7.3509   7.3916

          k =-0.5012 0.2523-0.2500 (  5137 PWs)   bands (ev):

   -64.8290 -64.8286 -64.8266 -64.8260 -31.6305 -31.6265 -31.6240 -31.6187
   -31.5936 -31.5931 -31.5823 -31.5802 -31.5794 -31.5788 -31.5770 -31.5754
    -8.4062  -8.3913  -8.0048  -7.9889   3.8054   3.8379   4.1860   4.2103
     5.8229   5.8378   6.7174   6.7644   6.8519   6.8841   7.0103   7.0250

     highest occupied level (ev):     7.7064

!    total energy              =    -608.39262816 Ry
     Harris-Foulkes estimate   =    -608.39262816 Ry
     estimated scf accuracy    <          9.8E-11 Ry

     The total energy is the sum of the following terms:

     one-electron contribution =    -303.55502569 Ry
     hartree contribution      =     168.06669190 Ry
     xc contribution           =     -97.84632480 Ry
     ewald contribution        =    -375.05796956 Ry

     convergence has been achieved in   4 iterations

     Forces acting on atoms (cartesian axes, Ry/au):

     atom    1 type  1   force =     0.00000084    0.00000084    0.00000114
     atom    2 type  1   force =    -0.00000922   -0.00003509   -0.00000112
     atom    3 type  1   force =    -0.00003509   -0.00000922   -0.00000112
     atom    4 type  1   force =     0.00006690    0.00006690    0.00000116
     atom    5 type  2   force =     0.00003356   -0.00004464    0.00000050
     atom    6 type  2   force =    -0.00004464    0.00003356    0.00000050
     atom    7 type  2   force =     0.00002779    0.00002779   -0.00000041
     atom    8 type  2   force =    -0.00004015   -0.00004015   -0.00000067

     Total force =     0.000150     Total SCF correction =     0.000014


     Computing stress (Cartesian axis) and pressure

          total   stress  (Ry/bohr**3)                   (kbar)     P=  -68.09
  -0.00046288  -0.00008935  -0.00000000        -68.09    -13.14     -0.00
  -0.00008935  -0.00046288  -0.00000000        -13.14    -68.09     -0.00
  -0.00000000  -0.00000000  -0.00046293         -0.00     -0.00    -68.10


     bfgs converged in   8 scf cycles and   7 bfgs steps
     (criteria: energy <  1.0E-05 Ry, force <  1.0E-04 Ry/Bohr)

     End of BFGS Geometry Optimization

     Final energy   =    -608.3926281605 Ry
Begin final coordinates

ATOMIC_POSITIONS (alat)
Mg      -0.001055950  -0.001055950  -0.000005324
Mg       0.001157161   0.498832393   0.500005701
Mg       0.498832393   0.001157161   0.500005701
Mg       0.501077025   0.501077025  -0.000005928
O        0.498809397   0.001186551  -0.000005581
O        0.001186551   0.498809397  -0.000005581
O       -0.001160319  -0.001160319   0.500005483
O        0.501153742   0.501153742   0.500005529
End final coordinates



     Writing output data file MgO.0.009286.70.4.save
 
     init_run     :      0.46s CPU      0.48s WALL (       1 calls)
     electrons    :     48.76s CPU     49.57s WALL (       8 calls)
     update_pot   :      0.76s CPU      0.77s WALL (       7 calls)
     forces       :      1.19s CPU      1.20s WALL (       8 calls)
     stress       :      2.70s CPU      2.70s WALL (       8 calls)

     Called by init_run:
     wfcinit      :      0.34s CPU      0.35s WALL (       1 calls)
     potinit      :      0.05s CPU      0.05s WALL (       1 calls)

     Called by electrons:
     c_bands      :     42.62s CPU     43.29s WALL (      46 calls)
     sum_band     :      5.86s CPU      5.98s WALL (      46 calls)
     v_of_rho     :      0.24s CPU      0.24s WALL (      47 calls)
     mix_rho      :      0.03s CPU      0.03s WALL (      46 calls)

     Called by c_bands:
     init_us_2    :      0.64s CPU      0.65s WALL (    2616 calls)
     cegterg      :     39.64s CPU     40.28s WALL (    1104 calls)

     Called by sum_band:

     Called by *egterg:
     h_psi        :     28.93s CPU     29.55s WALL (    3782 calls)
     g_psi        :      0.22s CPU      0.22s WALL (    2654 calls)
     cdiaghg      :      5.72s CPU      5.72s WALL (    3422 calls)

     Called by h_psi:
     h_psi:pot    :     28.80s CPU     29.39s WALL (    3782 calls)
     h_psi:calbec :      1.62s CPU      1.62s WALL (    3782 calls)
     vloc_psi     :     25.84s CPU     26.41s WALL (    3782 calls)
     add_vuspsi   :      1.34s CPU      1.35s WALL (    3782 calls)

     General routines
     calbec       :      2.15s CPU      2.16s WALL (    4742 calls)
     fft          :      0.23s CPU      0.24s WALL (     730 calls)
     fftw         :     28.61s CPU     28.86s WALL (  222904 calls)
     davcio       :      0.00s CPU      0.01s WALL (      24 calls)
 
     Parallel routines
     fft_scatter  :      8.03s CPU      7.75s WALL (  223634 calls)
 
     PWSCF        :    54.38s CPU        55.39s WALL

 
   This run was terminated on:  19:14: 8  22Apr2018            

=------------------------------------------------------------------------------=
   JOB DONE.
=------------------------------------------------------------------------------=
