
     Program PWSCF v.6.1 (svn rev. 13369) starts on 22Apr2018 at 19: 6:31 

     This program is part of the open-source Quantum ESPRESSO suite
     for quantum simulation of materials; please cite
         "P. Giannozzi et al., J. Phys.:Condens. Matter 21 395502 (2009);
          URL http://www.quantum-espresso.org", 
     in publications or presentations arising from this work. More details at
     http://www.quantum-espresso.org/quote

     Parallel version (MPI), running on     8 processors
     R & G space division:  proc/nbgrp/npool/nimage =       8
     Waiting for input...
     Reading input from standard input
Warning: card       &CELL ignored
Warning: card          CELL_DYNAMICS = 'BFGS' ignored
Warning: card          PRESS = 0.0D0 ignored
Warning: card          PRESS_CONV_THR = 0.01D0 ignored
Warning: card       / ignored

     Current dimensions of program PWSCF are:
     Max number of different atomic species (ntypx) = 10
     Max number of k-points (npk) =  40000
     Max angular momentum in pseudopotentials (lmaxx) =  3

     Subspace diagonalization in iterative solution of the eigenvalue problem:
     a serial algorithm will be used

 
     Parallelization info
     --------------------
     sticks:   dense  smooth     PW     G-vecs:    dense   smooth      PW
     Min         180     180     52                 5150     5150     816
     Max         182     182     53                 5151     5151     819
     Sum        1449    1449    421                41203    41203    6543
 


     bravais-lattice index     =            0
     lattice parameter (alat)  =       8.0448  a.u.
     unit-cell volume          =     520.6402 (a.u.)^3
     number of atoms/cell      =            8
     number of atomic types    =            2
     number of electrons       =        64.00
     number of Kohn-Sham states=           32
     kinetic-energy cutoff     =      70.0000  Ry
     charge density cutoff     =     280.0000  Ry
     convergence threshold     =      1.0E-08
     mixing beta               =       0.7000
     number of iterations used =            8  plain     mixing
     Exchange-correlation      = PBE ( 1  4  3  4 0 0)
     nstep                     =           50


     celldm(1)=   8.044750  celldm(2)=   0.000000  celldm(3)=   0.000000
     celldm(4)=   0.000000  celldm(5)=   0.000000  celldm(6)=   0.000000

     crystal axes: (cart. coord. in units of alat)
               a(1) = (   1.000000  -0.003928   0.000000 )  
               a(2) = (  -0.003928   1.000000   0.000000 )  
               a(3) = (   0.000000   0.000000   1.000015 )  

     reciprocal axes: (cart. coord. in units 2 pi/alat)
               b(1) = (  1.000015  0.003929  0.000000 )  
               b(2) = (  0.003929  1.000015  0.000000 )  
               b(3) = (  0.000000  0.000000  0.999985 )  


     PseudoPot. # 1 for Mg read from file:
     ../pseudo/Mg.pbe.UPF
     MD5 check sum: 4c04d8c6e0476e83eaecaf72fa8acc4d
     Pseudo is Norm-conserving, Zval = 10.0
     Generated using ONCVPSP code by D. R. Hamann
     Using radial grid of 1510 points,  4 beta functions with: 
                l(1) =   0
                l(2) =   0
                l(3) =   1
                l(4) =   1

     PseudoPot. # 2 for O  read from file:
     ../pseudo/O.pbe.UPF
     MD5 check sum: 3e3f909f7470e8921608ab6b1f57bbae
     Pseudo is Norm-conserving + core correction, Zval =  6.0
     Generated using ONCVPSP code by D. R. Hamann
     Using radial grid of  936 points,  5 beta functions with: 
                l(1) =   0
                l(2) =   0
                l(3) =   1
                l(4) =   1
                l(5) =   2

     atomic species   valence    mass     pseudopotential
        Mg            10.00    24.30500     Mg( 1.00)
        O              6.00    15.99940     O ( 1.00)

      2 Sym. Ops. (no inversion) found



   Cartesian axes

     site n.     atom                  positions (alat units)
         1           Mg  tau(   1) = (   0.0000000   0.0000000   0.0000000  )
         2           Mg  tau(   2) = (   0.0000000   0.5000000   0.5000000  )
         3           Mg  tau(   3) = (   0.5000000   0.0000000   0.5000000  )
         4           Mg  tau(   4) = (   0.5000000   0.5000000   0.0000000  )
         5           O   tau(   5) = (   0.5000000   0.0000000   0.0000000  )
         6           O   tau(   6) = (   0.0000000   0.5000000   0.0000000  )
         7           O   tau(   7) = (   0.0000000   0.0000000   0.5000000  )
         8           O   tau(   8) = (   0.5000000   0.5000000   0.5000000  )

     number of k points=    24
                       cart. coord. in units 2pi/alat
        k(    1) = (   0.0000000   0.0000000   0.0000000), wk =   0.0312500
        k(    2) = (   0.0000000   0.0000000   0.2499961), wk =   0.0625000
        k(    3) = (   0.0000000   0.0000000  -0.4999923), wk =   0.0312500
        k(    4) = (   0.0009821   0.2500039   0.0000000), wk =   0.1250000
        k(    5) = (   0.0009821   0.2500039   0.2499961), wk =   0.1250000
        k(    6) = (   0.0009821   0.2500039  -0.4999923), wk =   0.1250000
        k(    7) = (  -0.0019643  -0.5000077   0.0000000), wk =   0.0625000
        k(    8) = (  -0.0019643  -0.5000077   0.2499961), wk =   0.1250000
        k(    9) = (  -0.0019643  -0.5000077  -0.4999923), wk =   0.0625000
        k(   10) = (   0.2509860   0.2509860   0.0000000), wk =   0.0625000
        k(   11) = (   0.2509860   0.2509860   0.2499961), wk =   0.0625000
        k(   12) = (   0.2509860   0.2509860  -0.4999923), wk =   0.0625000
        k(   13) = (   0.2480396  -0.4990256   0.0000000), wk =   0.1250000
        k(   14) = (   0.2480396  -0.4990256   0.2499961), wk =   0.1250000
        k(   15) = (   0.2480396  -0.4990256  -0.4999923), wk =   0.1250000
        k(   16) = (   0.2490217  -0.2490217   0.0000000), wk =   0.0625000
        k(   17) = (   0.2490217  -0.2490217   0.2499961), wk =   0.1250000
        k(   18) = (   0.2490217  -0.2490217  -0.4999923), wk =   0.0625000
        k(   19) = (  -0.5019720  -0.5019720   0.0000000), wk =   0.0312500
        k(   20) = (  -0.5019720  -0.5019720   0.2499961), wk =   0.0625000
        k(   21) = (  -0.5019720  -0.5019720  -0.4999923), wk =   0.0312500
        k(   22) = (   0.2500039   0.0009821  -0.2499961), wk =   0.1250000
        k(   23) = (   0.2509860   0.2509860  -0.2499961), wk =   0.0625000
        k(   24) = (  -0.4990256   0.2480396  -0.2499961), wk =   0.1250000

     Dense  grid:    41203 G-vectors     FFT dimensions: (  45,  45,  45)

     Estimated max dynamical RAM per process >      13.45MB

     Estimated total allocated dynamical RAM >     107.57MB

     Check: negative/imaginary core charge=   -0.000007    0.000000

     Initial potential from superposition of free atoms

     starting charge   63.99678, renormalised to   64.00000
     Starting wfc are   36 randomized atomic wfcs

     total cpu time spent up to now is        0.6 secs

     per-process dynamical memory:    49.0 Mb

     Self-consistent Calculation

     iteration #  1     ecut=    70.00 Ry     beta=0.70
     Davidson diagonalization with overlap
     ethr =  1.00E-02,  avg # of iterations =  2.0

     total cpu time spent up to now is        1.6 secs

     total energy              =    -607.72088450 Ry
     Harris-Foulkes estimate   =    -608.84374504 Ry
     estimated scf accuracy    <       1.56037288 Ry

     iteration #  2     ecut=    70.00 Ry     beta=0.70
     Davidson diagonalization with overlap
     ethr =  2.44E-03,  avg # of iterations =  2.9

     total cpu time spent up to now is        2.7 secs

     total energy              =    -608.10598596 Ry
     Harris-Foulkes estimate   =    -608.80262422 Ry
     estimated scf accuracy    <       1.44603022 Ry

     iteration #  3     ecut=    70.00 Ry     beta=0.70
     Davidson diagonalization with overlap
     ethr =  2.26E-03,  avg # of iterations =  2.0

     total cpu time spent up to now is        3.7 secs

     total energy              =    -608.39113769 Ry
     Harris-Foulkes estimate   =    -608.39180463 Ry
     estimated scf accuracy    <       0.00676003 Ry

     iteration #  4     ecut=    70.00 Ry     beta=0.70
     Davidson diagonalization with overlap
     ethr =  1.06E-05,  avg # of iterations =  2.0

     total cpu time spent up to now is        4.7 secs

     total energy              =    -608.39261683 Ry
     Harris-Foulkes estimate   =    -608.39266037 Ry
     estimated scf accuracy    <       0.00010917 Ry

     iteration #  5     ecut=    70.00 Ry     beta=0.70
     Davidson diagonalization with overlap
     ethr =  1.71E-07,  avg # of iterations =  1.5

     total cpu time spent up to now is        5.5 secs

     total energy              =    -608.39262424 Ry
     Harris-Foulkes estimate   =    -608.39262271 Ry
     estimated scf accuracy    <       0.00001024 Ry

     iteration #  6     ecut=    70.00 Ry     beta=0.70
     Davidson diagonalization with overlap
     ethr =  1.60E-08,  avg # of iterations =  2.0

     total cpu time spent up to now is        6.7 secs

     total energy              =    -608.39262581 Ry
     Harris-Foulkes estimate   =    -608.39262619 Ry
     estimated scf accuracy    <       0.00000096 Ry

     iteration #  7     ecut=    70.00 Ry     beta=0.70
     Davidson diagonalization with overlap
     ethr =  1.49E-09,  avg # of iterations =  2.0

     total cpu time spent up to now is        7.6 secs

     total energy              =    -608.39262580 Ry
     Harris-Foulkes estimate   =    -608.39262589 Ry
     estimated scf accuracy    <       0.00000023 Ry

     iteration #  8     ecut=    70.00 Ry     beta=0.70
     Davidson diagonalization with overlap
     ethr =  3.57E-10,  avg # of iterations =  2.0

     total cpu time spent up to now is        8.6 secs

     total energy              =    -608.39262580 Ry
     Harris-Foulkes estimate   =    -608.39262582 Ry
     estimated scf accuracy    <       0.00000004 Ry

     iteration #  9     ecut=    70.00 Ry     beta=0.70
     Davidson diagonalization with overlap
     ethr =  6.01E-11,  avg # of iterations =  2.0

     total cpu time spent up to now is        9.8 secs

     End of self-consistent calculation

          k = 0.0000 0.0000 0.0000 (  5141 PWs)   bands (ev):

   -64.8347 -64.8252 -64.8252 -64.8244 -31.6310 -31.6309 -31.6309 -31.5946
   -31.5936 -31.5935 -31.5929 -31.5929 -31.5917 -31.5664 -31.5640 -31.5637
    -9.3645  -7.9137  -7.9133  -7.9132   3.7583   3.7588   3.7589   6.3347
     6.3801   6.3802   6.3803   6.3806   6.4263   7.6441   7.6723   7.7012

          k = 0.0000 0.0000 0.2500 (  5153 PWs)   bands (ev):

   -64.8332 -64.8264 -64.8252 -64.8246 -31.6251 -31.6251 -31.6205 -31.5980
   -31.5979 -31.5942 -31.5941 -31.5905 -31.5870 -31.5782 -31.5730 -31.5694
    -9.1560  -8.1285  -7.8849  -7.8847   4.0478   4.0490   4.0965   5.8580
     5.8583   6.1708   6.1711   6.4996   6.5875   6.6589   7.4189   7.4831

          k = 0.0000 0.0000-0.5000 (  5122 PWs)   bands (ev):

   -64.8300 -64.8296 -64.8252 -64.8246 -31.6135 -31.6133 -31.6072 -31.6069
   -31.6019 -31.6019 -31.5912 -31.5911 -31.5825 -31.5822 -31.5787 -31.5784
    -8.6459  -8.6457  -7.8561  -7.8559   4.8420   4.8427   4.8527   4.8532
     5.1230   5.1233   5.9737   5.9740   6.9301   6.9304   7.0074   7.0077

          k = 0.0010 0.2500 0.0000 (  5164 PWs)   bands (ev):

   -64.8332 -64.8264 -64.8252 -64.8246 -31.6250 -31.6245 -31.6214 -31.5994
   -31.5984 -31.5935 -31.5932 -31.5892 -31.5889 -31.5794 -31.5716 -31.5710
    -9.1560  -8.1282  -7.8851  -7.8848   4.0485   4.0487   4.0955   5.8532
     5.8584   6.1707   6.1760   6.5430   6.5432   6.6585   7.4502   7.4512

          k = 0.0010 0.2500 0.2500 (  5156 PWs)   bands (ev):

   -64.8320 -64.8264 -64.8260 -64.8250 -31.6212 -31.6210 -31.6200 -31.6072
   -31.5946 -31.5939 -31.5932 -31.5876 -31.5866 -31.5862 -31.5757 -31.5687
    -8.9659  -8.0667  -8.0605  -7.8899   4.1563   4.1670   4.3289   5.0715
     5.8470   6.0469   6.0624   6.4827   6.4902   6.5839   7.1732   7.5062

          k = 0.0010 0.2500-0.5000 (  5148 PWs)   bands (ev):

   -64.8293 -64.8289 -64.8259 -64.8253 -31.6179 -31.6178 -31.6102 -31.6102
   -31.6065 -31.6063 -31.5853 -31.5851 -31.5838 -31.5837 -31.5753 -31.5751
    -8.5095  -8.5094  -7.9465  -7.9464   4.4185   4.4186   4.7512   4.7514
     5.0964   5.0966   6.5480   6.5483   6.5754   6.5755   7.0956   7.0957

          k =-0.0020-0.5000 0.0000 (  5124 PWs)   bands (ev):

   -64.8300 -64.8296 -64.8252 -64.8246 -31.6109 -31.6105 -31.6100 -31.6098
   -31.6021 -31.6019 -31.5917 -31.5916 -31.5806 -31.5803 -31.5801 -31.5799
    -8.6457  -8.6455  -7.8563  -7.8561   4.8469   4.8479   4.8479   4.8481
     5.1230   5.1234   5.9733   5.9746   6.9685   6.9688   6.9688   6.9689

          k =-0.0020-0.5000 0.2500 (  5156 PWs)   bands (ev):

   -64.8293 -64.8289 -64.8259 -64.8253 -31.6177 -31.6175 -31.6105 -31.6103
   -31.6071 -31.6069 -31.5852 -31.5850 -31.5841 -31.5840 -31.5754 -31.5752
    -8.5094  -8.5092  -7.9468  -7.9465   4.4181   4.4183   4.7514   4.7517
     5.0966   5.0968   6.5478   6.5485   6.5762   6.5763   7.0942   7.0945

          k =-0.0020-0.5000-0.5000 (  5184 PWs)   bands (ev):

   -64.8277 -64.8276 -64.8275 -64.8266 -31.6195 -31.6192 -31.6191 -31.6191
   -31.5974 -31.5971 -31.5966 -31.5963 -31.5762 -31.5760 -31.5756 -31.5756
    -8.2094  -8.2091  -8.2009  -8.2008   4.2855   4.2858   4.3012   4.3012
     5.7580   5.7580   5.7781   5.7782   7.0594   7.0596   7.0678   7.0684

          k = 0.2510 0.2510 0.0000 (  5159 PWs)   bands (ev):

   -64.8320 -64.8265 -64.8260 -64.8249 -31.6197 -31.6192 -31.6190 -31.6101
   -31.5947 -31.5945 -31.5944 -31.5881 -31.5879 -31.5861 -31.5760 -31.5673
    -8.9618  -8.0686  -8.0683  -7.8853   4.1636   4.1637   4.3330   5.0957
     5.8611   6.0491   6.0496   6.4935   6.4937   6.5432   7.1807   7.4776

          k = 0.2510 0.2510 0.2500 (  5154 PWs)   bands (ev):

   -64.8310 -64.8264 -64.8264 -64.8256 -31.6261 -31.6233 -31.6231 -31.6072
   -31.5960 -31.5959 -31.5952 -31.5836 -31.5836 -31.5823 -31.5721 -31.5699
    -8.7920  -8.0363  -8.0351  -8.0250   3.9955   3.9970   4.0167   5.1065
     5.8430   5.8511   5.8657   6.6665   6.7097   6.7099   7.3254   7.3593

          k = 0.2510 0.2510-0.5000 (  5148 PWs)   bands (ev):

   -64.8288 -64.8283 -64.8264 -64.8258 -31.6265 -31.6263 -31.6225 -31.6225
   -31.5961 -31.5959 -31.5801 -31.5800 -31.5789 -31.5788 -31.5762 -31.5760
    -8.3948  -8.3947  -8.0017  -8.0015   3.8133   3.8137   4.2165   4.2167
     5.8409   5.8413   6.7441   6.7445   6.8734   6.8739   6.9811   6.9813

          k = 0.2480-0.4990 0.0000 (  5153 PWs)   bands (ev):

   -64.8293 -64.8289 -64.8259 -64.8253 -31.6203 -31.6150 -31.6130 -31.6076
   -31.6071 -31.6068 -31.5858 -31.5852 -31.5849 -31.5819 -31.5771 -31.5737
    -8.5156  -8.5030  -7.9536  -7.9397   4.4097   4.4271   4.7478   4.7550
     5.0894   5.1035   6.5210   6.5661   6.5760   6.5859   7.0740   7.1153

          k = 0.2480-0.4990 0.2500 (  5138 PWs)   bands (ev):

   -64.8288 -64.8284 -64.8264 -64.8257 -31.6301 -31.6267 -31.6233 -31.6189
   -31.5934 -31.5929 -31.5819 -31.5798 -31.5796 -31.5784 -31.5771 -31.5756
    -8.4051  -8.3926  -8.0036  -7.9902   3.8078   3.8353   4.1879   4.2085
     5.8240   5.8366   6.7210   6.7607   6.8547   6.8820   7.0112   7.0235

          k = 0.2480-0.4990-0.5000 (  5144 PWs)   bands (ev):

   -64.8277 -64.8276 -64.8275 -64.8265 -31.6338 -31.6336 -31.6301 -31.6300
   -31.5844 -31.5842 -31.5824 -31.5822 -31.5755 -31.5753 -31.5749 -31.5748
    -8.1747  -8.1745  -8.1605  -8.1605   3.6248   3.6250   3.6561   3.6562
     6.5024   6.5026   6.5467   6.5469   7.0579   7.0580   7.0716   7.0720

          k = 0.2490-0.2490 0.0000 (  5155 PWs)   bands (ev):

   -64.8321 -64.8263 -64.8260 -64.8250 -31.6233 -31.6232 -31.6198 -31.6053
   -31.5943 -31.5942 -31.5904 -31.5884 -31.5852 -31.5850 -31.5757 -31.5709
    -8.9698  -8.0586  -8.0586  -7.8948   4.1596   4.1598   4.3246   5.0470
     5.8337   6.0621   6.0624   6.4766   6.4767   6.6256   7.1656   7.5339

          k = 0.2490-0.2490 0.2500 (  5146 PWs)   bands (ev):

   -64.8311 -64.8264 -64.8263 -64.8255 -31.6274 -31.6272 -31.6244 -31.6047
   -31.5923 -31.5917 -31.5915 -31.5858 -31.5840 -31.5839 -31.5734 -31.5706
    -8.8000  -8.0360  -8.0255  -8.0246   3.9844   4.0044   4.0056   5.0724
     5.8263   5.8412   5.8489   6.7016   6.7018   6.7455   7.3516   7.3861

          k = 0.2490-0.2490-0.5000 (  5124 PWs)   bands (ev):

   -64.8289 -64.8284 -64.8263 -64.8257 -31.6301 -31.6299 -31.6201 -31.6200
   -31.5903 -31.5900 -31.5815 -31.5815 -31.5796 -31.5793 -31.5764 -31.5763
    -8.4032  -8.4030  -7.9920  -7.9919   3.8294   3.8297   4.1797   4.1802
     5.8199   5.8202   6.7365   6.7367   6.8645   6.8647   7.0518   7.0519

          k =-0.5020-0.5020 0.0000 (  5188 PWs)   bands (ev):

   -64.8277 -64.8276 -64.8275 -64.8265 -31.6223 -31.6221 -31.6167 -31.6164
   -31.5972 -31.5970 -31.5970 -31.5967 -31.5773 -31.5770 -31.5747 -31.5744
    -8.2146  -8.2143  -8.1957  -8.1957   4.2879   4.2879   4.2987   4.2988
     5.7559   5.7564   5.7791   5.7794   7.0323   7.0324   7.0960   7.0961

          k =-0.5020-0.5020 0.2500 (  5140 PWs)   bands (ev):

   -64.8277 -64.8276 -64.8275 -64.8265 -31.6338 -31.6336 -31.6301 -31.6299
   -31.5838 -31.5838 -31.5822 -31.5822 -31.5774 -31.5771 -31.5734 -31.5731
    -8.1769  -8.1767  -8.1583  -8.1583   3.6285   3.6286   3.6523   3.6523
     6.5210   6.5214   6.5278   6.5280   7.0335   7.0336   7.0966   7.0968

          k =-0.5020-0.5020-0.5000 (  5136 PWs)   bands (ev):

   -64.8277 -64.8276 -64.8275 -64.8265 -31.6402 -31.6401 -31.6393 -31.6392
   -31.5766 -31.5763 -31.5756 -31.5756 -31.5746 -31.5746 -31.5738 -31.5736
    -8.1388  -8.1385  -8.1202  -8.1202   3.2029   3.2031   3.2324   3.2324
     7.0341   7.0343   7.0643   7.0645   7.0662   7.0665   7.0976   7.0977

          k = 0.2500 0.0010-0.2500 (  5156 PWs)   bands (ev):

   -64.8320 -64.8264 -64.8260 -64.8250 -31.6212 -31.6210 -31.6200 -31.6072
   -31.5946 -31.5939 -31.5932 -31.5876 -31.5866 -31.5862 -31.5757 -31.5687
    -8.9659  -8.0667  -8.0605  -7.8899   4.1563   4.1670   4.3289   5.0715
     5.8470   6.0469   6.0624   6.4827   6.4902   6.5839   7.1732   7.5062

          k = 0.2510 0.2510-0.2500 (  5154 PWs)   bands (ev):

   -64.8310 -64.8264 -64.8264 -64.8256 -31.6261 -31.6233 -31.6231 -31.6072
   -31.5960 -31.5959 -31.5952 -31.5836 -31.5836 -31.5823 -31.5721 -31.5699
    -8.7920  -8.0363  -8.0351  -8.0250   3.9955   3.9970   4.0167   5.1065
     5.8430   5.8511   5.8657   6.6665   6.7097   6.7099   7.3254   7.3593

          k =-0.4990 0.2480-0.2500 (  5138 PWs)   bands (ev):

   -64.8288 -64.8284 -64.8264 -64.8257 -31.6301 -31.6267 -31.6233 -31.6189
   -31.5934 -31.5929 -31.5819 -31.5798 -31.5796 -31.5784 -31.5771 -31.5756
    -8.4051  -8.3926  -8.0036  -7.9902   3.8078   3.8353   4.1879   4.2085
     5.8240   5.8366   6.7210   6.7607   6.8547   6.8820   7.0112   7.0235

     highest occupied level (ev):     7.7012

!    total energy              =    -608.39262581 Ry
     Harris-Foulkes estimate   =    -608.39262581 Ry
     estimated scf accuracy    <          1.2E-09 Ry

     The total energy is the sum of the following terms:

     one-electron contribution =    -303.55467602 Ry
     hartree contribution      =     168.06642646 Ry
     xc contribution           =     -97.84629571 Ry
     ewald contribution        =    -375.05808053 Ry

     convergence has been achieved in   9 iterations

     Forces acting on atoms (cartesian axes, Ry/au):

     atom    1 type  1   force =     0.00095944    0.00095944   -0.00000762
     atom    2 type  1   force =    -0.00097171    0.00088924    0.00000712
     atom    3 type  1   force =     0.00088924   -0.00097171    0.00000712
     atom    4 type  1   force =    -0.00083455   -0.00083455   -0.00000707
     atom    5 type  2   force =     0.00113846   -0.00121115   -0.00000851
     atom    6 type  2   force =    -0.00121115    0.00113846   -0.00000851
     atom    7 type  2   force =     0.00116700    0.00116700    0.00000887
     atom    8 type  2   force =    -0.00113673   -0.00113673    0.00000860

     Total force =     0.004188     Total SCF correction =     0.000016


     Computing stress (Cartesian axis) and pressure

          total   stress  (Ry/bohr**3)                   (kbar)     P=  -68.15
  -0.00046340   0.00007550   0.00000000        -68.17     11.11      0.00
   0.00007550  -0.00046340   0.00000000         11.11    -68.17      0.00
   0.00000000   0.00000000  -0.00046309          0.00      0.00    -68.12


     BFGS Geometry Optimization

     number of scf cycles    =   1
     number of bfgs steps    =   0

     energy   new            =    -608.3926258073 Ry

     new trust radius        =       0.0016622393 bohr
     new conv_thr            =       0.0000000100 Ry


ATOMIC_POSITIONS (alat)
Mg       0.000119262   0.000119262  -0.000000947
Mg      -0.000120788   0.500110536   0.500000884
Mg       0.500110536  -0.000120788   0.500000884
Mg       0.499896262   0.499896262  -0.000000878
O        0.500141516  -0.000150551  -0.000001058
O       -0.000150551   0.500141516  -0.000001058
O        0.000145063   0.000145063   0.500001103
O        0.499858699   0.499858699   0.500001069



     Writing output data file MgO.-0.007857.70.4.save
     NEW-OLD atomic charge density approx. for the potential

     Check: negative/imaginary core charge=   -0.000007    0.000000

     total cpu time spent up to now is       10.4 secs

     per-process dynamical memory:    53.7 Mb

     Self-consistent Calculation

     iteration #  1     ecut=    70.00 Ry     beta=0.70
     Davidson diagonalization with overlap
     ethr =  1.00E-06,  avg # of iterations =  3.0

     Threshold (ethr) on eigenvalues was too large:
     Diagonalizing with lowered threshold

     Davidson diagonalization with overlap
     ethr =  1.74E-09,  avg # of iterations =  2.6

     total cpu time spent up to now is       12.8 secs

     total energy              =    -608.39264192 Ry
     Harris-Foulkes estimate   =    -608.39264258 Ry
     estimated scf accuracy    <       0.00000115 Ry

     iteration #  2     ecut=    70.00 Ry     beta=0.70
     Davidson diagonalization with overlap
     ethr =  1.80E-09,  avg # of iterations =  2.0

     total cpu time spent up to now is       13.8 secs

     total energy              =    -608.39264212 Ry
     Harris-Foulkes estimate   =    -608.39264213 Ry
     estimated scf accuracy    <       0.00000003 Ry

     iteration #  3     ecut=    70.00 Ry     beta=0.70
     Davidson diagonalization with overlap
     ethr =  4.42E-11,  avg # of iterations =  2.0

     total cpu time spent up to now is       14.8 secs

     End of self-consistent calculation

          k = 0.0000 0.0000 0.0000 (  5141 PWs)   bands (ev):

   -64.8349 -64.8254 -64.8254 -64.8246 -31.6311 -31.6311 -31.6311 -31.5947
   -31.5937 -31.5937 -31.5931 -31.5930 -31.5919 -31.5665 -31.5642 -31.5638
    -9.3644  -7.9136  -7.9132  -7.9132   3.7583   3.7588   3.7589   6.3348
     6.3801   6.3803   6.3804   6.3806   6.4263   7.6441   7.6724   7.7013

          k = 0.0000 0.0000 0.2500 (  5153 PWs)   bands (ev):

   -64.8334 -64.8266 -64.8254 -64.8247 -31.6253 -31.6252 -31.6207 -31.5981
   -31.5980 -31.5943 -31.5943 -31.5907 -31.5872 -31.5784 -31.5732 -31.5695
    -9.1560  -8.1284  -7.8848  -7.8847   4.0481   4.0490   4.0963   5.8581
     5.8584   6.1709   6.1711   6.4996   6.5875   6.6590   7.4189   7.4831

          k = 0.0000 0.0000-0.5000 (  5122 PWs)   bands (ev):

   -64.8302 -64.8298 -64.8254 -64.8248 -31.6137 -31.6134 -31.6074 -31.6071
   -31.6021 -31.6020 -31.5913 -31.5912 -31.5827 -31.5824 -31.5788 -31.5786
    -8.6458  -8.6457  -7.8560  -7.8559   4.8423   4.8426   4.8528   4.8533
     5.1230   5.1232   5.9738   5.9740   6.9303   6.9303   7.0074   7.0077

          k = 0.0010 0.2500 0.0000 (  5164 PWs)   bands (ev):

   -64.8334 -64.8266 -64.8254 -64.8248 -31.6252 -31.6247 -31.6215 -31.5995
   -31.5986 -31.5936 -31.5933 -31.5894 -31.5891 -31.5795 -31.5718 -31.5711
    -9.1560  -8.1282  -7.8851  -7.8848   4.0486   4.0488   4.0955   5.8534
     5.8584   6.1708   6.1759   6.5431   6.5432   6.6586   7.4503   7.4513

          k = 0.0010 0.2500 0.2500 (  5156 PWs)   bands (ev):

   -64.8322 -64.8266 -64.8262 -64.8251 -31.6214 -31.6212 -31.6202 -31.6074
   -31.5948 -31.5941 -31.5934 -31.5877 -31.5867 -31.5864 -31.5758 -31.5689
    -8.9658  -8.0662  -8.0609  -7.8898   4.1572   4.1662   4.3290   5.0715
     5.8470   6.0481   6.0613   6.4832   6.4898   6.5839   7.1732   7.5063

          k = 0.0010 0.2500-0.5000 (  5148 PWs)   bands (ev):

   -64.8295 -64.8291 -64.8261 -64.8255 -31.6181 -31.6179 -31.6104 -31.6104
   -31.6067 -31.6064 -31.5855 -31.5852 -31.5839 -31.5839 -31.5754 -31.5753
    -8.5094  -8.5093  -7.9465  -7.9464   4.4186   4.4187   4.7512   4.7514
     5.0965   5.0966   6.5481   6.5483   6.5754   6.5755   7.0956   7.0957

          k =-0.0020-0.5000 0.0000 (  5124 PWs)   bands (ev):

   -64.8302 -64.8298 -64.8254 -64.8248 -31.6110 -31.6107 -31.6101 -31.6099
   -31.6023 -31.6020 -31.5919 -31.5917 -31.5807 -31.5805 -31.5803 -31.5800
    -8.6457  -8.6455  -7.8563  -7.8560   4.8471   4.8479   4.8480   4.8481
     5.1231   5.1234   5.9734   5.9746   6.9686   6.9688   6.9688   6.9690

          k =-0.0020-0.5000 0.2500 (  5156 PWs)   bands (ev):

   -64.8295 -64.8291 -64.8261 -64.8255 -31.6179 -31.6177 -31.6106 -31.6105
   -31.6072 -31.6070 -31.5853 -31.5852 -31.5843 -31.5842 -31.5755 -31.5754
    -8.5094  -8.5092  -7.9467  -7.9465   4.4182   4.4183   4.7514   4.7516
     5.0967   5.0968   6.5479   6.5485   6.5762   6.5763   7.0943   7.0945

          k =-0.0020-0.5000-0.5000 (  5184 PWs)   bands (ev):

   -64.8278 -64.8278 -64.8277 -64.8267 -31.6196 -31.6194 -31.6193 -31.6192
   -31.5975 -31.5972 -31.5967 -31.5965 -31.5763 -31.5761 -31.5758 -31.5758
    -8.2086  -8.2085  -8.2016  -8.2013   4.2868   4.2870   4.3000   4.3000
     5.7595   5.7596   5.7766   5.7767   7.0601   7.0603   7.0672   7.0678

          k = 0.2510 0.2510 0.0000 (  5159 PWs)   bands (ev):

   -64.8322 -64.8266 -64.8262 -64.8251 -31.6198 -31.6193 -31.6191 -31.6103
   -31.5949 -31.5946 -31.5945 -31.5882 -31.5881 -31.5863 -31.5761 -31.5674
    -8.9618  -8.0684  -8.0684  -7.8852   4.1636   4.1638   4.3331   5.0958
     5.8611   6.0493   6.0496   6.4935   6.4937   6.5432   7.1807   7.4777

          k = 0.2510 0.2510 0.2500 (  5154 PWs)   bands (ev):

   -64.8311 -64.8266 -64.8265 -64.8258 -31.6262 -31.6234 -31.6233 -31.6073
   -31.5961 -31.5960 -31.5953 -31.5838 -31.5838 -31.5825 -31.5723 -31.5700
    -8.7919  -8.0359  -8.0352  -8.0252   3.9958   3.9970   4.0164   5.1066
     5.8446   5.8511   5.8643   6.6666   6.7098   6.7099   7.3254   7.3593

          k = 0.2510 0.2510-0.5000 (  5148 PWs)   bands (ev):

   -64.8289 -64.8285 -64.8266 -64.8260 -31.6267 -31.6265 -31.6227 -31.6226
   -31.5963 -31.5960 -31.5802 -31.5801 -31.5791 -31.5790 -31.5764 -31.5761
    -8.3947  -8.3946  -8.0016  -8.0015   3.8134   3.8138   4.2165   4.2166
     5.8411   5.8413   6.7442   6.7445   6.8735   6.8739   6.9812   6.9813

          k = 0.2480-0.4990 0.0000 (  5153 PWs)   bands (ev):

   -64.8295 -64.8290 -64.8261 -64.8255 -31.6205 -31.6151 -31.6131 -31.6078
   -31.6073 -31.6069 -31.5859 -31.5853 -31.5851 -31.5820 -31.5773 -31.5738
    -8.5155  -8.5030  -7.9535  -7.9397   4.4098   4.4271   4.7478   4.7551
     5.0894   5.1036   6.5211   6.5662   6.5760   6.5860   7.0740   7.1154

          k = 0.2480-0.4990 0.2500 (  5138 PWs)   bands (ev):

   -64.8290 -64.8286 -64.8266 -64.8259 -31.6302 -31.6268 -31.6235 -31.6191
   -31.5936 -31.5931 -31.5821 -31.5799 -31.5798 -31.5786 -31.5773 -31.5757
    -8.4050  -8.3925  -8.0035  -7.9901   3.8079   3.8353   4.1879   4.2085
     5.8240   5.8366   6.7210   6.7607   6.8547   6.8820   7.0112   7.0235

          k = 0.2480-0.4990-0.5000 (  5144 PWs)   bands (ev):

   -64.8279 -64.8278 -64.8277 -64.8267 -31.6339 -31.6338 -31.6303 -31.6301
   -31.5845 -31.5843 -31.5825 -31.5824 -31.5757 -31.5755 -31.5750 -31.5750
    -8.1744  -8.1743  -8.1607  -8.1605   3.6251   3.6253   3.6559   3.6559
     6.5027   6.5030   6.5465   6.5465   7.0581   7.0581   7.0714   7.0718

          k = 0.2490-0.2490 0.0000 (  5155 PWs)   bands (ev):

   -64.8323 -64.8265 -64.8261 -64.8252 -31.6235 -31.6233 -31.6200 -31.6055
   -31.5944 -31.5944 -31.5905 -31.5886 -31.5853 -31.5852 -31.5758 -31.5711
    -8.9698  -8.0586  -8.0585  -7.8948   4.1597   4.1598   4.3246   5.0471
     5.8337   6.0622   6.0624   6.4767   6.4767   6.6256   7.1657   7.5340

          k = 0.2490-0.2490 0.2500 (  5146 PWs)   bands (ev):

   -64.8313 -64.8266 -64.8265 -64.8257 -31.6275 -31.6274 -31.6245 -31.6049
   -31.5924 -31.5919 -31.5917 -31.5860 -31.5841 -31.5840 -31.5736 -31.5707
    -8.8000  -8.0357  -8.0254  -8.0248   3.9848   4.0044   4.0053   5.0724
     5.8279   5.8413   5.8474   6.7017   6.7018   6.7455   7.3517   7.3861

          k = 0.2490-0.2490-0.5000 (  5124 PWs)   bands (ev):

   -64.8291 -64.8286 -64.8265 -64.8259 -31.6302 -31.6301 -31.6203 -31.6202
   -31.5904 -31.5901 -31.5817 -31.5817 -31.5797 -31.5794 -31.5766 -31.5765
    -8.4031  -8.4030  -7.9920  -7.9919   3.8295   3.8297   4.1797   4.1801
     5.8199   5.8203   6.7366   6.7368   6.8645   6.8646   7.0517   7.0520

          k =-0.5020-0.5020 0.0000 (  5188 PWs)   bands (ev):

   -64.8279 -64.8278 -64.8277 -64.8267 -31.6224 -31.6222 -31.6168 -31.6165
   -31.5973 -31.5972 -31.5971 -31.5969 -31.5774 -31.5772 -31.5748 -31.5746
    -8.2144  -8.2144  -8.1957  -8.1955   4.2878   4.2879   4.2987   4.2989
     5.7560   5.7564   5.7792   5.7794   7.0323   7.0324   7.0960   7.0962

          k =-0.5020-0.5020 0.2500 (  5140 PWs)   bands (ev):

   -64.8279 -64.8278 -64.8276 -64.8267 -31.6339 -31.6338 -31.6302 -31.6301
   -31.5839 -31.5839 -31.5823 -31.5823 -31.5776 -31.5773 -31.5735 -31.5733
    -8.1768  -8.1767  -8.1583  -8.1581   3.6285   3.6287   3.6523   3.6524
     6.5211   6.5214   6.5279   6.5281   7.0335   7.0336   7.0966   7.0968

          k =-0.5020-0.5020-0.5000 (  5136 PWs)   bands (ev):

   -64.8279 -64.8278 -64.8276 -64.8267 -31.6404 -31.6402 -31.6394 -31.6393
   -31.5768 -31.5765 -31.5758 -31.5757 -31.5747 -31.5747 -31.5740 -31.5738
    -8.1386  -8.1386  -8.1203  -8.1201   3.2029   3.2031   3.2324   3.2324
     7.0342   7.0343   7.0644   7.0645   7.0663   7.0665   7.0976   7.0978

          k = 0.2500 0.0010-0.2500 (  5156 PWs)   bands (ev):

   -64.8322 -64.8266 -64.8262 -64.8251 -31.6214 -31.6212 -31.6202 -31.6074
   -31.5948 -31.5941 -31.5934 -31.5877 -31.5867 -31.5864 -31.5758 -31.5689
    -8.9658  -8.0662  -8.0609  -7.8898   4.1572   4.1662   4.3290   5.0715
     5.8470   6.0481   6.0613   6.4832   6.4898   6.5839   7.1732   7.5063

          k = 0.2510 0.2510-0.2500 (  5154 PWs)   bands (ev):

   -64.8311 -64.8266 -64.8265 -64.8258 -31.6262 -31.6234 -31.6233 -31.6073
   -31.5961 -31.5960 -31.5953 -31.5838 -31.5838 -31.5825 -31.5723 -31.5700
    -8.7919  -8.0359  -8.0352  -8.0252   3.9958   3.9970   4.0164   5.1066
     5.8446   5.8511   5.8643   6.6666   6.7098   6.7099   7.3254   7.3593

          k =-0.4990 0.2480-0.2500 (  5138 PWs)   bands (ev):

   -64.8290 -64.8286 -64.8266 -64.8259 -31.6302 -31.6268 -31.6235 -31.6191
   -31.5936 -31.5931 -31.5821 -31.5799 -31.5798 -31.5786 -31.5773 -31.5757
    -8.4050  -8.3925  -8.0035  -7.9901   3.8079   3.8353   4.1879   4.2085
     5.8240   5.8366   6.7210   6.7607   6.8547   6.8820   7.0112   7.0235

     highest occupied level (ev):     7.7013

!    total energy              =    -608.39264212 Ry
     Harris-Foulkes estimate   =    -608.39264212 Ry
     estimated scf accuracy    <          2.6E-09 Ry

     The total energy is the sum of the following terms:

     one-electron contribution =    -303.55504044 Ry
     hartree contribution      =     168.06664284 Ry
     xc contribution           =     -97.84629692 Ry
     ewald contribution        =    -375.05794760 Ry

     convergence has been achieved in   3 iterations

     Forces acting on atoms (cartesian axes, Ry/au):

     atom    1 type  1   force =     0.00084560    0.00084560   -0.00000513
     atom    2 type  1   force =    -0.00087254    0.00082285    0.00000493
     atom    3 type  1   force =     0.00082285   -0.00087254    0.00000493
     atom    4 type  1   force =    -0.00077228   -0.00077228   -0.00000539
     atom    5 type  2   force =     0.00097569   -0.00101641   -0.00000723
     atom    6 type  2   force =    -0.00101641    0.00097569   -0.00000723
     atom    7 type  2   force =     0.00099208    0.00099208    0.00000747
     atom    8 type  2   force =    -0.00097499   -0.00097499    0.00000763

     Total force =     0.003652     Total SCF correction =     0.000062


     Computing stress (Cartesian axis) and pressure

          total   stress  (Ry/bohr**3)                   (kbar)     P=  -68.11
  -0.00046316   0.00007551  -0.00000000        -68.13     11.11     -0.00
   0.00007551  -0.00046316  -0.00000000         11.11    -68.13     -0.00
  -0.00000000  -0.00000000  -0.00046278         -0.00     -0.00    -68.08


     number of scf cycles    =   2
     number of bfgs steps    =   1

     energy   old            =    -608.3926258073 Ry
     energy   new            =    -608.3926421243 Ry

     CASE: energy  _new < energy  _old


     WARNING: bfgs curvature condition failed, Theta= 0.918
     new trust radius        =       0.0018284632 bohr
     new conv_thr            =       0.0000000002 Ry


ATOMIC_POSITIONS (alat)
Mg       0.000255068   0.000255068  -0.000001798
Mg      -0.000260630   0.500241985   0.500001701
Mg       0.500241985  -0.000260630   0.500001701
Mg       0.499772891   0.499772891  -0.000001759
O        0.500298713  -0.000314706  -0.000002223
O       -0.000314706   0.500298713  -0.000002223
O        0.000305049   0.000305049   0.500002310
O        0.499701631   0.499701631   0.500002293



     Writing output data file MgO.-0.007857.70.4.save
     NEW-OLD atomic charge density approx. for the potential

     Check: negative/imaginary core charge=   -0.000007    0.000000

     total cpu time spent up to now is       15.4 secs

     per-process dynamical memory:    53.7 Mb

     Self-consistent Calculation

     iteration #  1     ecut=    70.00 Ry     beta=0.70
     Davidson diagonalization with overlap
     ethr =  1.00E-06,  avg # of iterations =  3.0

     Threshold (ethr) on eigenvalues was too large:
     Diagonalizing with lowered threshold

     Davidson diagonalization with overlap
     ethr =  2.09E-09,  avg # of iterations =  2.5

     total cpu time spent up to now is       17.8 secs

     total energy              =    -608.39265739 Ry
     Harris-Foulkes estimate   =    -608.39265816 Ry
     estimated scf accuracy    <       0.00000137 Ry

     iteration #  2     ecut=    70.00 Ry     beta=0.70
     Davidson diagonalization with overlap
     ethr =  2.14E-09,  avg # of iterations =  2.0

     total cpu time spent up to now is       18.7 secs

     total energy              =    -608.39265762 Ry
     Harris-Foulkes estimate   =    -608.39265764 Ry
     estimated scf accuracy    <       0.00000004 Ry

     iteration #  3     ecut=    70.00 Ry     beta=0.70
     Davidson diagonalization with overlap
     ethr =  6.20E-11,  avg # of iterations =  2.8

     total cpu time spent up to now is       19.8 secs

     total energy              =    -608.39265763 Ry
     Harris-Foulkes estimate   =    -608.39265763 Ry
     estimated scf accuracy    <       0.00000001 Ry

     iteration #  4     ecut=    70.00 Ry     beta=0.70
     Davidson diagonalization with overlap
     ethr =  1.59E-11,  avg # of iterations =  3.0

     total cpu time spent up to now is       20.9 secs

     total energy              =    -608.39265763 Ry
     Harris-Foulkes estimate   =    -608.39265763 Ry
     estimated scf accuracy    <          6.3E-09 Ry

     iteration #  5     ecut=    70.00 Ry     beta=0.70
     Davidson diagonalization with overlap
     ethr =  9.79E-12,  avg # of iterations =  2.5

     total cpu time spent up to now is       21.9 secs

     End of self-consistent calculation

          k = 0.0000 0.0000 0.0000 (  5141 PWs)   bands (ev):

   -64.8348 -64.8253 -64.8253 -64.8246 -31.6311 -31.6311 -31.6310 -31.5947
   -31.5937 -31.5936 -31.5931 -31.5930 -31.5918 -31.5665 -31.5641 -31.5638
    -9.3645  -7.9136  -7.9133  -7.9132   3.7583   3.7588   3.7589   6.3347
     6.3801   6.3802   6.3803   6.3806   6.4263   7.6441   7.6724   7.7012

          k = 0.0000 0.0000 0.2500 (  5153 PWs)   bands (ev):

   -64.8334 -64.8266 -64.8253 -64.8247 -31.6252 -31.6252 -31.6206 -31.5981
   -31.5980 -31.5943 -31.5943 -31.5907 -31.5871 -31.5784 -31.5731 -31.5695
    -9.1560  -8.1285  -7.8849  -7.8848   4.0484   4.0489   4.0960   5.8581
     5.8583   6.1708   6.1711   6.4995   6.5875   6.6589   7.4189   7.4831

          k = 0.0000 0.0000-0.5000 (  5122 PWs)   bands (ev):

   -64.8302 -64.8297 -64.8253 -64.8248 -31.6136 -31.6134 -31.6073 -31.6070
   -31.6021 -31.6020 -31.5913 -31.5912 -31.5826 -31.5824 -31.5788 -31.5786
    -8.6458  -8.6457  -7.8561  -7.8560   4.8423   4.8426   4.8529   4.8532
     5.1228   5.1231   5.9737   5.9740   6.9302   6.9303   7.0075   7.0076

          k = 0.0010 0.2500 0.0000 (  5164 PWs)   bands (ev):

   -64.8334 -64.8266 -64.8253 -64.8247 -31.6251 -31.6247 -31.6215 -31.5995
   -31.5986 -31.5936 -31.5933 -31.5893 -31.5890 -31.5795 -31.5718 -31.5711
    -9.1560  -8.1282  -7.8851  -7.8848   4.0485   4.0487   4.0954   5.8535
     5.8584   6.1708   6.1757   6.5430   6.5432   6.6585   7.4503   7.4512

          k = 0.0010 0.2500 0.2500 (  5156 PWs)   bands (ev):

   -64.8322 -64.8265 -64.8262 -64.8251 -31.6213 -31.6211 -31.6201 -31.6073
   -31.5947 -31.5941 -31.5933 -31.5877 -31.5867 -31.5864 -31.5758 -31.5689
    -8.9659  -8.0657  -8.0615  -7.8899   4.1581   4.1652   4.3289   5.0715
     5.8470   6.0493   6.0600   6.4837   6.4892   6.5838   7.1732   7.5062

          k = 0.0010 0.2500-0.5000 (  5148 PWs)   bands (ev):

   -64.8295 -64.8290 -64.8260 -64.8254 -31.6180 -31.6179 -31.6104 -31.6104
   -31.6067 -31.6064 -31.5854 -31.5852 -31.5839 -31.5839 -31.5754 -31.5752
    -8.5095  -8.5093  -7.9466  -7.9465   4.4186   4.4187   4.7511   4.7513
     5.0965   5.0965   6.5480   6.5483   6.5754   6.5754   7.0955   7.0956

          k =-0.0020-0.5000 0.0000 (  5124 PWs)   bands (ev):

   -64.8302 -64.8297 -64.8253 -64.8248 -31.6110 -31.6106 -31.6101 -31.6099
   -31.6022 -31.6020 -31.5918 -31.5917 -31.5807 -31.5805 -31.5802 -31.5800
    -8.6457  -8.6455  -7.8563  -7.8561   4.8472   4.8478   4.8479   4.8481
     5.1231   5.1233   5.9735   5.9744   6.9686   6.9687   6.9687   6.9689

          k =-0.0020-0.5000 0.2500 (  5156 PWs)   bands (ev):

   -64.8295 -64.8290 -64.8260 -64.8255 -31.6179 -31.6177 -31.6106 -31.6105
   -31.6072 -31.6070 -31.5853 -31.5851 -31.5842 -31.5841 -31.5755 -31.5753
    -8.5094  -8.5092  -7.9467  -7.9465   4.4182   4.4183   4.7514   4.7516
     5.0967   5.0968   6.5478   6.5484   6.5761   6.5763   7.0942   7.0944

          k =-0.0020-0.5000-0.5000 (  5184 PWs)   bands (ev):

   -64.8278 -64.8277 -64.8277 -64.8267 -31.6196 -31.6194 -31.6193 -31.6192
   -31.5974 -31.5971 -31.5968 -31.5965 -31.5763 -31.5761 -31.5758 -31.5758
    -8.2081  -8.2078  -8.2022  -8.2021   4.2881   4.2883   4.2986   4.2987
     5.7612   5.7613   5.7749   5.7749   7.0608   7.0609   7.0665   7.0670

          k = 0.2510 0.2510 0.0000 (  5159 PWs)   bands (ev):

   -64.8321 -64.8266 -64.8262 -64.8251 -31.6198 -31.6193 -31.6191 -31.6103
   -31.5948 -31.5946 -31.5945 -31.5882 -31.5880 -31.5862 -31.5761 -31.5674
    -8.9618  -8.0685  -8.0684  -7.8853   4.1637   4.1637   4.3330   5.0958
     5.8611   6.0492   6.0496   6.4935   6.4936   6.5431   7.1807   7.4776

          k = 0.2510 0.2510 0.2500 (  5154 PWs)   bands (ev):

   -64.8311 -64.8266 -64.8265 -64.8257 -31.6262 -31.6234 -31.6233 -31.6073
   -31.5960 -31.5960 -31.5954 -31.5838 -31.5838 -31.5824 -31.5722 -31.5700
    -8.7919  -8.0358  -8.0352  -8.0255   3.9962   3.9969   4.0160   5.1065
     5.8462   5.8511   5.8626   6.6665   6.7097   6.7099   7.3253   7.3593

          k = 0.2510 0.2510-0.5000 (  5148 PWs)   bands (ev):

   -64.8289 -64.8285 -64.8266 -64.8260 -31.6266 -31.6265 -31.6227 -31.6226
   -31.5963 -31.5960 -31.5802 -31.5801 -31.5791 -31.5790 -31.5764 -31.5761
    -8.3948  -8.3947  -8.0017  -8.0016   3.8135   3.8137   4.2165   4.2165
     5.8411   5.8413   6.7442   6.7445   6.8734   6.8737   6.9811   6.9812

          k = 0.2480-0.4990 0.0000 (  5153 PWs)   bands (ev):

   -64.8295 -64.8290 -64.8260 -64.8254 -31.6204 -31.6151 -31.6131 -31.6077
   -31.6072 -31.6069 -31.5859 -31.5853 -31.5851 -31.5820 -31.5772 -31.5738
    -8.5156  -8.5030  -7.9536  -7.9397   4.4098   4.4271   4.7477   4.7550
     5.0894   5.1035   6.5210   6.5661   6.5759   6.5859   7.0740   7.1153

          k = 0.2480-0.4990 0.2500 (  5138 PWs)   bands (ev):

   -64.8290 -64.8285 -64.8265 -64.8259 -31.6302 -31.6268 -31.6235 -31.6191
   -31.5936 -31.5931 -31.5821 -31.5799 -31.5797 -31.5786 -31.5772 -31.5757
    -8.4051  -8.3925  -8.0036  -7.9902   3.8079   3.8353   4.1878   4.2085
     5.8240   5.8366   6.7209   6.7607   6.8547   6.8820   7.0111   7.0235

          k = 0.2480-0.4990-0.5000 (  5144 PWs)   bands (ev):

   -64.8278 -64.8277 -64.8277 -64.8267 -31.6339 -31.6337 -31.6302 -31.6301
   -31.5845 -31.5843 -31.5825 -31.5823 -31.5756 -31.5755 -31.5750 -31.5750
    -8.1743  -8.1742  -8.1609  -8.1608   3.6254   3.6255   3.6556   3.6556
     6.5031   6.5032   6.5461   6.5462   7.0582   7.0583   7.0712   7.0715

          k = 0.2490-0.2490 0.0000 (  5155 PWs)   bands (ev):

   -64.8322 -64.8265 -64.8261 -64.8252 -31.6235 -31.6233 -31.6199 -31.6055
   -31.5944 -31.5943 -31.5905 -31.5886 -31.5853 -31.5851 -31.5758 -31.5711
    -8.9698  -8.0586  -8.0585  -7.8948   4.1596   4.1598   4.3246   5.0471
     5.8337   6.0621   6.0625   6.4766   6.4767   6.6255   7.1657   7.5339

          k = 0.2490-0.2490 0.2500 (  5146 PWs)   bands (ev):

   -64.8312 -64.8266 -64.8265 -64.8257 -31.6275 -31.6273 -31.6245 -31.6048
   -31.5923 -31.5919 -31.5917 -31.5860 -31.5841 -31.5840 -31.5736 -31.5707
    -8.8000  -8.0355  -8.0255  -8.0250   3.9851   4.0044   4.0050   5.0723
     5.8295   5.8412   5.8458   6.7016   6.7018   6.7454   7.3516   7.3860

          k = 0.2490-0.2490-0.5000 (  5124 PWs)   bands (ev):

   -64.8290 -64.8286 -64.8265 -64.8258 -31.6302 -31.6301 -31.6202 -31.6201
   -31.5904 -31.5901 -31.5817 -31.5817 -31.5797 -31.5794 -31.5765 -31.5765
    -8.4031  -8.4030  -7.9920  -7.9919   3.8295   3.8297   4.1797   4.1800
     5.8200   5.8202   6.7365   6.7368   6.8645   6.8645   7.0518   7.0518

          k =-0.5020-0.5020 0.0000 (  5188 PWs)   bands (ev):

   -64.8279 -64.8277 -64.8276 -64.8267 -31.6224 -31.6222 -31.6168 -31.6165
   -31.5973 -31.5971 -31.5971 -31.5968 -31.5774 -31.5771 -31.5748 -31.5746
    -8.2145  -8.2144  -8.1957  -8.1956   4.2879   4.2879   4.2986   4.2989
     5.7560   5.7564   5.7791   5.7795   7.0322   7.0324   7.0960   7.0960

          k =-0.5020-0.5020 0.2500 (  5140 PWs)   bands (ev):

   -64.8279 -64.8277 -64.8276 -64.8267 -31.6339 -31.6338 -31.6302 -31.6300
   -31.5839 -31.5839 -31.5823 -31.5823 -31.5775 -31.5773 -31.5735 -31.5733
    -8.1769  -8.1767  -8.1583  -8.1582   3.6285   3.6286   3.6522   3.6524
     6.5211   6.5214   6.5278   6.5281   7.0334   7.0336   7.0966   7.0967

          k =-0.5020-0.5020-0.5000 (  5136 PWs)   bands (ev):

   -64.8279 -64.8277 -64.8276 -64.8267 -31.6404 -31.6402 -31.6394 -31.6393
   -31.5767 -31.5765 -31.5758 -31.5757 -31.5747 -31.5747 -31.5740 -31.5737
    -8.1387  -8.1385  -8.1202  -8.1202   3.2029   3.2030   3.2324   3.2324
     7.0341   7.0342   7.0643   7.0645   7.0662   7.0665   7.0976   7.0976

          k = 0.2500 0.0010-0.2500 (  5156 PWs)   bands (ev):

   -64.8322 -64.8265 -64.8262 -64.8251 -31.6213 -31.6211 -31.6201 -31.6073
   -31.5947 -31.5941 -31.5933 -31.5877 -31.5867 -31.5864 -31.5758 -31.5689
    -8.9659  -8.0657  -8.0615  -7.8899   4.1581   4.1652   4.3289   5.0715
     5.8470   6.0493   6.0600   6.4837   6.4892   6.5838   7.1732   7.5062

          k = 0.2510 0.2510-0.2500 (  5154 PWs)   bands (ev):

   -64.8311 -64.8266 -64.8265 -64.8257 -31.6262 -31.6234 -31.6233 -31.6073
   -31.5960 -31.5960 -31.5954 -31.5838 -31.5838 -31.5824 -31.5722 -31.5700
    -8.7919  -8.0358  -8.0352  -8.0255   3.9962   3.9969   4.0160   5.1065
     5.8462   5.8511   5.8626   6.6665   6.7097   6.7099   7.3253   7.3593

          k =-0.4990 0.2480-0.2500 (  5138 PWs)   bands (ev):

   -64.8290 -64.8285 -64.8265 -64.8259 -31.6302 -31.6268 -31.6235 -31.6191
   -31.5936 -31.5931 -31.5821 -31.5799 -31.5797 -31.5786 -31.5772 -31.5757
    -8.4051  -8.3925  -8.0036  -7.9902   3.8079   3.8353   4.1878   4.2085
     5.8240   5.8366   6.7209   6.7607   6.8547   6.8820   7.0111   7.0235

     highest occupied level (ev):     7.7012

!    total energy              =    -608.39265763 Ry
     Harris-Foulkes estimate   =    -608.39265763 Ry
     estimated scf accuracy    <          4.6E-11 Ry

     The total energy is the sum of the following terms:

     one-electron contribution =    -303.55534794 Ry
     hartree contribution      =     168.06683822 Ry
     xc contribution           =     -97.84632541 Ry
     ewald contribution        =    -375.05782250 Ry

     convergence has been achieved in   5 iterations

     Forces acting on atoms (cartesian axes, Ry/au):

     atom    1 type  1   force =     0.00068584    0.00068584   -0.00000437
     atom    2 type  1   force =    -0.00073174    0.00071209    0.00000461
     atom    3 type  1   force =     0.00071209   -0.00073174    0.00000461
     atom    4 type  1   force =    -0.00066115   -0.00066115   -0.00000472
     atom    5 type  2   force =     0.00078614   -0.00079670   -0.00000380
     atom    6 type  2   force =    -0.00079670    0.00078614   -0.00000380
     atom    7 type  2   force =     0.00077204    0.00077204    0.00000370
     atom    8 type  2   force =    -0.00076652   -0.00076652    0.00000377

     Total force =     0.002962     Total SCF correction =     0.000013


     Computing stress (Cartesian axis) and pressure

          total   stress  (Ry/bohr**3)                   (kbar)     P=  -68.10
  -0.00046312   0.00007550  -0.00000000        -68.13     11.11     -0.00
   0.00007550  -0.00046312  -0.00000000         11.11    -68.13     -0.00
  -0.00000000  -0.00000000  -0.00046267         -0.00     -0.00    -68.06


     number of scf cycles    =   3
     number of bfgs steps    =   2

     energy   old            =    -608.3926421243 Ry
     energy   new            =    -608.3926576294 Ry

     CASE: energy  _new < energy  _old

     new trust radius        =       0.0027426948 bohr
     new conv_thr            =       0.0000000002 Ry


ATOMIC_POSITIONS (alat)
Mg       0.000462004   0.000462004  -0.000003148
Mg      -0.000479289   0.500452629   0.500003088
Mg       0.500452629  -0.000479289   0.500003088
Mg       0.499576863   0.499576863  -0.000003182
O        0.500537065  -0.000558468  -0.000003521
O       -0.000558468   0.500537065  -0.000003521
O        0.000541293   0.000541293   0.500003600
O        0.499467903   0.499467903   0.500003597



     Writing output data file MgO.-0.007857.70.4.save
     NEW-OLD atomic charge density approx. for the potential

     Check: negative/imaginary core charge=   -0.000007    0.000000

     total cpu time spent up to now is       22.6 secs

     per-process dynamical memory:    53.7 Mb

     Self-consistent Calculation

     iteration #  1     ecut=    70.00 Ry     beta=0.70
     Davidson diagonalization with overlap
     ethr =  1.00E-06,  avg # of iterations =  3.0

     Threshold (ethr) on eigenvalues was too large:
     Diagonalizing with lowered threshold

     Davidson diagonalization with overlap
     ethr =  4.69E-09,  avg # of iterations =  2.2

     total cpu time spent up to now is       24.9 secs

     total energy              =    -608.39267488 Ry
     Harris-Foulkes estimate   =    -608.39267657 Ry
     estimated scf accuracy    <       0.00000301 Ry

     iteration #  2     ecut=    70.00 Ry     beta=0.70
     Davidson diagonalization with overlap
     ethr =  4.71E-09,  avg # of iterations =  2.0

     total cpu time spent up to now is       25.9 secs

     total energy              =    -608.39267539 Ry
     Harris-Foulkes estimate   =    -608.39267541 Ry
     estimated scf accuracy    <       0.00000007 Ry

     iteration #  3     ecut=    70.00 Ry     beta=0.70
     Davidson diagonalization with overlap
     ethr =  1.14E-10,  avg # of iterations =  2.0

     total cpu time spent up to now is       26.9 secs

     total energy              =    -608.39267540 Ry
     Harris-Foulkes estimate   =    -608.39267540 Ry
     estimated scf accuracy    <          4.8E-09 Ry

     iteration #  4     ecut=    70.00 Ry     beta=0.70
     Davidson diagonalization with overlap
     ethr =  7.49E-12,  avg # of iterations =  2.2

     total cpu time spent up to now is       27.9 secs

     total energy              =    -608.39267540 Ry
     Harris-Foulkes estimate   =    -608.39267540 Ry
     estimated scf accuracy    <          5.1E-10 Ry

     iteration #  5     ecut=    70.00 Ry     beta=0.70
     Davidson diagonalization with overlap
     ethr =  7.89E-13,  avg # of iterations =  3.0

     total cpu time spent up to now is       29.0 secs

     End of self-consistent calculation

          k = 0.0000 0.0000 0.0000 (  5141 PWs)   bands (ev):

   -64.8348 -64.8253 -64.8253 -64.8245 -31.6311 -31.6310 -31.6310 -31.5947
   -31.5937 -31.5936 -31.5930 -31.5930 -31.5918 -31.5665 -31.5641 -31.5638
    -9.3645  -7.9136  -7.9133  -7.9133   3.7583   3.7588   3.7588   6.3347
     6.3802   6.3802   6.3802   6.3806   6.4263   7.6441   7.6724   7.7012

          k = 0.0000 0.0000 0.2500 (  5153 PWs)   bands (ev):

   -64.8334 -64.8265 -64.8253 -64.8247 -31.6252 -31.6251 -31.6206 -31.5980
   -31.5980 -31.5943 -31.5942 -31.5906 -31.5871 -31.5783 -31.5731 -31.5695
    -9.1561  -8.1285  -7.8849  -7.8848   4.0487   4.0489   4.0957   5.8582
     5.8583   6.1708   6.1711   6.4995   6.5874   6.6589   7.4188   7.4830

          k = 0.0000 0.0000-0.5000 (  5122 PWs)   bands (ev):

   -64.8302 -64.8297 -64.8253 -64.8247 -31.6136 -31.6134 -31.6073 -31.6070
   -31.6020 -31.6020 -31.5912 -31.5912 -31.5826 -31.5823 -31.5788 -31.5785
    -8.6458  -8.6458  -7.8561  -7.8561   4.8424   4.8426   4.8530   4.8532
     5.1227   5.1230   5.9737   5.9740   6.9302   6.9302   7.0075   7.0075

          k = 0.0010 0.2500 0.0000 (  5164 PWs)   bands (ev):

   -64.8334 -64.8265 -64.8253 -64.8247 -31.6251 -31.6246 -31.6215 -31.5995
   -31.5985 -31.5936 -31.5933 -31.5893 -31.5890 -31.5795 -31.5717 -31.5711
    -9.1560  -8.1282  -7.8851  -7.8849   4.0485   4.0487   4.0954   5.8536
     5.8583   6.1708   6.1755   6.5430   6.5432   6.6585   7.4503   7.4512

          k = 0.0010 0.2500 0.2500 (  5156 PWs)   bands (ev):

   -64.8322 -64.8265 -64.8261 -64.8251 -31.6213 -31.6211 -31.6201 -31.6073
   -31.5947 -31.5941 -31.5933 -31.5877 -31.5867 -31.5864 -31.5758 -31.5688
    -8.9659  -8.0650  -8.0623  -7.8899   4.1594   4.1639   4.3289   5.0715
     5.8469   6.0511   6.0581   6.4844   6.4884   6.5838   7.1731   7.5062

          k = 0.0010 0.2500-0.5000 (  5148 PWs)   bands (ev):

   -64.8295 -64.8290 -64.8260 -64.8254 -31.6180 -31.6179 -31.6104 -31.6103
   -31.6066 -31.6064 -31.5854 -31.5852 -31.5839 -31.5838 -31.5754 -31.5752
    -8.5094  -8.5094  -7.9466  -7.9465   4.4186   4.4187   4.7510   4.7513
     5.0965   5.0965   6.5481   6.5483   6.5753   6.5753   7.0955   7.0956

          k =-0.0020-0.5000 0.0000 (  5124 PWs)   bands (ev):

   -64.8302 -64.8297 -64.8253 -64.8247 -31.6109 -31.6106 -31.6101 -31.6099
   -31.6022 -31.6020 -31.5918 -31.5917 -31.5807 -31.5805 -31.5802 -31.5800
    -8.6458  -8.6455  -7.8563  -7.8562   4.8474   4.8476   4.8478   4.8481
     5.1230   5.1233   5.9735   5.9742   6.9686   6.9686   6.9687   6.9689

          k =-0.0020-0.5000 0.2500 (  5156 PWs)   bands (ev):

   -64.8294 -64.8290 -64.8260 -64.8254 -31.6178 -31.6176 -31.6106 -31.6105
   -31.6072 -31.6069 -31.5853 -31.5851 -31.5842 -31.5841 -31.5755 -31.5753
    -8.5094  -8.5092  -7.9468  -7.9466   4.4183   4.4183   4.7513   4.7515
     5.0967   5.0969   6.5479   6.5483   6.5760   6.5763   7.0942   7.0943

          k =-0.0020-0.5000-0.5000 (  5184 PWs)   bands (ev):

   -64.8278 -64.8277 -64.8277 -64.8267 -31.6195 -31.6193 -31.6192 -31.6192
   -31.5973 -31.5970 -31.5968 -31.5966 -31.5762 -31.5760 -31.5758 -31.5758
    -8.2070  -8.2068  -8.2033  -8.2032   4.2900   4.2901   4.2967   4.2968
     5.7636   5.7638   5.7723   5.7725   7.0618   7.0619   7.0654   7.0658

          k = 0.2510 0.2510 0.0000 (  5159 PWs)   bands (ev):

   -64.8321 -64.8266 -64.8262 -64.8250 -31.6198 -31.6192 -31.6191 -31.6102
   -31.5948 -31.5946 -31.5945 -31.5882 -31.5880 -31.5862 -31.5761 -31.5674
    -8.9618  -8.0685  -8.0684  -7.8853   4.1636   4.1637   4.3330   5.0958
     5.8610   6.0492   6.0495   6.4935   6.4935   6.5430   7.1807   7.4775

          k = 0.2510 0.2510 0.2500 (  5154 PWs)   bands (ev):

   -64.8311 -64.8266 -64.8265 -64.8257 -31.6262 -31.6234 -31.6232 -31.6073
   -31.5960 -31.5959 -31.5954 -31.5837 -31.5837 -31.5824 -31.5722 -31.5700
    -8.7920  -8.0355  -8.0352  -8.0258   3.9966   3.9969   4.0156   5.1065
     5.8485   5.8510   5.8603   6.6665   6.7097   6.7098   7.3253   7.3593

          k = 0.2510 0.2510-0.5000 (  5148 PWs)   bands (ev):

   -64.8289 -64.8285 -64.8266 -64.8259 -31.6266 -31.6264 -31.6226 -31.6225
   -31.5962 -31.5960 -31.5801 -31.5801 -31.5790 -31.5790 -31.5763 -31.5761
    -8.3947  -8.3947  -8.0017  -8.0016   3.8135   3.8137   4.2164   4.2165
     5.8411   5.8412   6.7442   6.7444   6.8734   6.8736   6.9811   6.9811

          k = 0.2480-0.4990 0.0000 (  5153 PWs)   bands (ev):

   -64.8295 -64.8290 -64.8260 -64.8254 -31.6204 -31.6151 -31.6131 -31.6077
   -31.6072 -31.6069 -31.5859 -31.5853 -31.5850 -31.5820 -31.5772 -31.5738
    -8.5156  -8.5030  -7.9536  -7.9398   4.4098   4.4271   4.7477   4.7550
     5.0893   5.1035   6.5209   6.5661   6.5759   6.5859   7.0739   7.1152

          k = 0.2480-0.4990 0.2500 (  5138 PWs)   bands (ev):

   -64.8290 -64.8285 -64.8265 -64.8259 -31.6301 -31.6268 -31.6234 -31.6190
   -31.5935 -31.5930 -31.5820 -31.5799 -31.5797 -31.5785 -31.5772 -31.5757
    -8.4051  -8.3926  -8.0036  -7.9902   3.8079   3.8353   4.1878   4.2084
     5.8240   5.8366   6.7209   6.7606   6.8546   6.8819   7.0111   7.0234

          k = 0.2480-0.4990-0.5000 (  5144 PWs)   bands (ev):

   -64.8278 -64.8277 -64.8276 -64.8267 -31.6339 -31.6337 -31.6302 -31.6301
   -31.5845 -31.5842 -31.5825 -31.5823 -31.5756 -31.5754 -31.5750 -31.5750
    -8.1741  -8.1740  -8.1611  -8.1611   3.6256   3.6258   3.6552   3.6553
     6.5034   6.5035   6.5458   6.5458   7.0584   7.0585   7.0710   7.0713

          k = 0.2490-0.2490 0.0000 (  5155 PWs)   bands (ev):

   -64.8322 -64.8265 -64.8261 -64.8251 -31.6234 -31.6232 -31.6199 -31.6054
   -31.5944 -31.5943 -31.5904 -31.5885 -31.5853 -31.5851 -31.5758 -31.5710
    -8.9699  -8.0587  -8.0585  -7.8949   4.1595   4.1598   4.3246   5.0471
     5.8337   6.0620   6.0625   6.4765   6.4766   6.6255   7.1656   7.5338

          k = 0.2490-0.2490 0.2500 (  5146 PWs)   bands (ev):

   -64.8312 -64.8265 -64.8264 -64.8257 -31.6275 -31.6273 -31.6245 -31.6048
   -31.5922 -31.5919 -31.5917 -31.5859 -31.5841 -31.5840 -31.5735 -31.5707
    -8.8000  -8.0353  -8.0256  -8.0253   3.9854   4.0043   4.0046   5.0723
     5.8317   5.8412   5.8436   6.7016   6.7018   6.7454   7.3516   7.3860

          k = 0.2490-0.2490-0.5000 (  5124 PWs)   bands (ev):

   -64.8290 -64.8286 -64.8264 -64.8258 -31.6302 -31.6300 -31.6202 -31.6201
   -31.5903 -31.5901 -31.5817 -31.5816 -31.5797 -31.5794 -31.5765 -31.5764
    -8.4031  -8.4031  -7.9920  -7.9920   3.8296   3.8296   4.1797   4.1799
     5.8201   5.8201   6.7365   6.7367   6.8644   6.8645   7.0517   7.0518

          k =-0.5020-0.5020 0.0000 (  5188 PWs)   bands (ev):

   -64.8279 -64.8277 -64.8276 -64.8267 -31.6224 -31.6221 -31.6167 -31.6165
   -31.5973 -31.5971 -31.5971 -31.5968 -31.5774 -31.5771 -31.5748 -31.5745
    -8.2145  -8.2144  -8.1958  -8.1956   4.2878   4.2879   4.2985   4.2989
     5.7560   5.7563   5.7790   5.7795   7.0321   7.0323   7.0959   7.0960

          k =-0.5020-0.5020 0.2500 (  5140 PWs)   bands (ev):

   -64.8278 -64.8277 -64.8276 -64.8267 -31.6339 -31.6337 -31.6302 -31.6300
   -31.5839 -31.5839 -31.5823 -31.5823 -31.5775 -31.5772 -31.5735 -31.5732
    -8.1769  -8.1768  -8.1584  -8.1582   3.6285   3.6286   3.6521   3.6524
     6.5211   6.5213   6.5277   6.5281   7.0334   7.0335   7.0966   7.0966

          k =-0.5020-0.5020-0.5000 (  5136 PWs)   bands (ev):

   -64.8278 -64.8277 -64.8276 -64.8267 -31.6403 -31.6402 -31.6394 -31.6393
   -31.5767 -31.5765 -31.5757 -31.5757 -31.5747 -31.5747 -31.5739 -31.5737
    -8.1387  -8.1386  -8.1203  -8.1202   3.2029   3.2030   3.2323   3.2324
     7.0341   7.0341   7.0643   7.0645   7.0662   7.0665   7.0975   7.0975

          k = 0.2500 0.0010-0.2500 (  5156 PWs)   bands (ev):

   -64.8322 -64.8265 -64.8261 -64.8251 -31.6213 -31.6211 -31.6201 -31.6073
   -31.5947 -31.5941 -31.5933 -31.5877 -31.5867 -31.5864 -31.5758 -31.5688
    -8.9659  -8.0650  -8.0623  -7.8899   4.1594   4.1639   4.3289   5.0715
     5.8469   6.0511   6.0581   6.4844   6.4884   6.5838   7.1731   7.5062

          k = 0.2510 0.2510-0.2500 (  5154 PWs)   bands (ev):

   -64.8311 -64.8266 -64.8265 -64.8257 -31.6262 -31.6234 -31.6232 -31.6073
   -31.5960 -31.5959 -31.5954 -31.5837 -31.5837 -31.5824 -31.5722 -31.5700
    -8.7920  -8.0355  -8.0352  -8.0258   3.9966   3.9969   4.0156   5.1065
     5.8485   5.8510   5.8603   6.6665   6.7097   6.7098   7.3253   7.3593

          k =-0.4990 0.2480-0.2500 (  5138 PWs)   bands (ev):

   -64.8290 -64.8285 -64.8265 -64.8259 -31.6301 -31.6268 -31.6234 -31.6190
   -31.5935 -31.5930 -31.5820 -31.5799 -31.5797 -31.5785 -31.5772 -31.5757
    -8.4051  -8.3926  -8.0036  -7.9902   3.8079   3.8353   4.1878   4.2084
     5.8240   5.8366   6.7209   6.7606   6.8546   6.8819   7.0111   7.0234

     highest occupied level (ev):     7.7012

!    total energy              =    -608.39267540 Ry
     Harris-Foulkes estimate   =    -608.39267540 Ry
     estimated scf accuracy    <          5.9E-11 Ry

     The total energy is the sum of the following terms:

     one-electron contribution =    -303.55567285 Ry
     hartree contribution      =     168.06702188 Ry
     xc contribution           =     -97.84634322 Ry
     ewald contribution        =    -375.05768121 Ry

     convergence has been achieved in   5 iterations

     Forces acting on atoms (cartesian axes, Ry/au):

     atom    1 type  1   force =     0.00046314    0.00046314   -0.00000090
     atom    2 type  1   force =    -0.00051982    0.00054090    0.00000123
     atom    3 type  1   force =     0.00054090   -0.00051982    0.00000123
     atom    4 type  1   force =    -0.00050187   -0.00050187   -0.00000135
     atom    5 type  2   force =     0.00050713   -0.00048333   -0.00000067
     atom    6 type  2   force =    -0.00048333    0.00050713   -0.00000067
     atom    7 type  2   force =     0.00047544    0.00047544    0.00000056
     atom    8 type  2   force =    -0.00048159   -0.00048159    0.00000057

     Total force =     0.001989     Total SCF correction =     0.000020


     Computing stress (Cartesian axis) and pressure

          total   stress  (Ry/bohr**3)                   (kbar)     P=  -68.10
  -0.00046312   0.00007550  -0.00000000        -68.13     11.11     -0.00
   0.00007550  -0.00046312  -0.00000000         11.11    -68.13     -0.00
  -0.00000000  -0.00000000  -0.00046259         -0.00     -0.00    -68.05


     number of scf cycles    =   4
     number of bfgs steps    =   3

     energy   old            =    -608.3926576294 Ry
     energy   new            =    -608.3926753991 Ry

     CASE: energy  _new < energy  _old

     new trust radius        =       0.0041140422 bohr
     new conv_thr            =       0.0000000002 Ry


ATOMIC_POSITIONS (alat)
Mg       0.000781922   0.000781922  -0.000004653
Mg      -0.000824577   0.500795229   0.500004700
Mg       0.500795229  -0.000824577   0.500004700
Mg       0.499258158   0.499258158  -0.000004861
O        0.500898857  -0.000919894  -0.000004992
O       -0.000919894   0.500898857  -0.000004992
O        0.000893567   0.000893567   0.500005046
O        0.499116739   0.499116739   0.500005053



     Writing output data file MgO.-0.007857.70.4.save
     NEW-OLD atomic charge density approx. for the potential

     Check: negative/imaginary core charge=   -0.000007    0.000000

     total cpu time spent up to now is       29.6 secs

     per-process dynamical memory:    53.7 Mb

     Self-consistent Calculation

     iteration #  1     ecut=    70.00 Ry     beta=0.70
     Davidson diagonalization with overlap
     ethr =  1.00E-06,  avg # of iterations =  3.0

     Threshold (ethr) on eigenvalues was too large:
     Diagonalizing with lowered threshold

     Davidson diagonalization with overlap
     ethr =  1.03E-08,  avg # of iterations =  1.9

     total cpu time spent up to now is       32.0 secs

     total energy              =    -608.39268799 Ry
     Harris-Foulkes estimate   =    -608.39269166 Ry
     estimated scf accuracy    <       0.00000662 Ry

     iteration #  2     ecut=    70.00 Ry     beta=0.70
     Davidson diagonalization with overlap
     ethr =  1.03E-08,  avg # of iterations =  2.0

     total cpu time spent up to now is       33.0 secs

     total energy              =    -608.39268910 Ry
     Harris-Foulkes estimate   =    -608.39268914 Ry
     estimated scf accuracy    <       0.00000016 Ry

     iteration #  3     ecut=    70.00 Ry     beta=0.70
     Davidson diagonalization with overlap
     ethr =  2.58E-10,  avg # of iterations =  2.0

     total cpu time spent up to now is       34.0 secs

     total energy              =    -608.39268912 Ry
     Harris-Foulkes estimate   =    -608.39268912 Ry
     estimated scf accuracy    <       0.00000001 Ry

     iteration #  4     ecut=    70.00 Ry     beta=0.70
     Davidson diagonalization with overlap
     ethr =  1.74E-11,  avg # of iterations =  2.2

     total cpu time spent up to now is       35.0 secs

     total energy              =    -608.39268912 Ry
     Harris-Foulkes estimate   =    -608.39268912 Ry
     estimated scf accuracy    <          1.5E-09 Ry

     iteration #  5     ecut=    70.00 Ry     beta=0.70
     Davidson diagonalization with overlap
     ethr =  2.42E-12,  avg # of iterations =  3.0

     total cpu time spent up to now is       36.0 secs

     End of self-consistent calculation

          k = 0.0000 0.0000 0.0000 (  5141 PWs)   bands (ev):

   -64.8348 -64.8253 -64.8253 -64.8245 -31.6311 -31.6310 -31.6310 -31.5947
   -31.5937 -31.5936 -31.5930 -31.5930 -31.5918 -31.5664 -31.5641 -31.5637
    -9.3645  -7.9137  -7.9134  -7.9133   3.7583   3.7588   3.7588   6.3347
     6.3802   6.3802   6.3802   6.3806   6.4263   7.6440   7.6724   7.7012

          k = 0.0000 0.0000 0.2500 (  5153 PWs)   bands (ev):

   -64.8334 -64.8265 -64.8253 -64.8247 -31.6252 -31.6251 -31.6206 -31.5980
   -31.5980 -31.5943 -31.5942 -31.5906 -31.5871 -31.5783 -31.5731 -31.5695
    -9.1561  -8.1285  -7.8850  -7.8848   4.0488   4.0488   4.0955   5.8582
     5.8582   6.1707   6.1711   6.4995   6.5874   6.6589   7.4188   7.4830

          k = 0.0000 0.0000-0.5000 (  5122 PWs)   bands (ev):

   -64.8302 -64.8297 -64.8253 -64.8247 -31.6136 -31.6133 -31.6072 -31.6070
   -31.6020 -31.6020 -31.5912 -31.5912 -31.5826 -31.5823 -31.5787 -31.5785
    -8.6459  -8.6457  -7.8562  -7.8560   4.8425   4.8426   4.8531   4.8532
     5.1226   5.1230   5.9736   5.9740   6.9301   6.9302   7.0074   7.0075

          k = 0.0010 0.2500 0.0000 (  5164 PWs)   bands (ev):

   -64.8334 -64.8265 -64.8253 -64.8247 -31.6251 -31.6246 -31.6215 -31.5994
   -31.5985 -31.5935 -31.5933 -31.5893 -31.5890 -31.5794 -31.5717 -31.5711
    -9.1560  -8.1283  -7.8852  -7.8849   4.0485   4.0487   4.0954   5.8537
     5.8583   6.1708   6.1754   6.5430   6.5431   6.6584   7.4503   7.4511

          k = 0.0010 0.2500 0.2500 (  5156 PWs)   bands (ev):

   -64.8321 -64.8265 -64.8261 -64.8251 -31.6213 -31.6211 -31.6201 -31.6073
   -31.5946 -31.5941 -31.5933 -31.5877 -31.5866 -31.5863 -31.5758 -31.5688
    -8.9659  -8.0639  -8.0634  -7.8899   4.1612   4.1620   4.3289   5.0715
     5.8469   6.0535   6.0558   6.4851   6.4877   6.5838   7.1731   7.5062

          k = 0.0010 0.2500-0.5000 (  5148 PWs)   bands (ev):

   -64.8294 -64.8290 -64.8260 -64.8254 -31.6180 -31.6178 -31.6103 -31.6103
   -31.6066 -31.6064 -31.5854 -31.5851 -31.5839 -31.5838 -31.5753 -31.5752
    -8.5095  -8.5094  -7.9467  -7.9465   4.4187   4.4187   4.7510   4.7512
     5.0965   5.0965   6.5481   6.5483   6.5752   6.5753   7.0955   7.0955

          k =-0.0020-0.5000 0.0000 (  5124 PWs)   bands (ev):

   -64.8301 -64.8297 -64.8253 -64.8247 -31.6109 -31.6106 -31.6101 -31.6098
   -31.6021 -31.6020 -31.5918 -31.5917 -31.5807 -31.5804 -31.5802 -31.5800
    -8.6458  -8.6455  -7.8563  -7.8562   4.8473   4.8477   4.8477   4.8482
     5.1230   5.1233   5.9736   5.9740   6.9685   6.9686   6.9687   6.9689

          k =-0.0020-0.5000 0.2500 (  5156 PWs)   bands (ev):

   -64.8294 -64.8290 -64.8260 -64.8254 -31.6178 -31.6176 -31.6105 -31.6105
   -31.6071 -31.6069 -31.5853 -31.5851 -31.5842 -31.5841 -31.5754 -31.5753
    -8.5095  -8.5092  -7.9468  -7.9467   4.4182   4.4184   4.7512   4.7515
     5.0965   5.0970   6.5479   6.5482   6.5760   6.5763   7.0942   7.0943

          k =-0.0020-0.5000-0.5000 (  5184 PWs)   bands (ev):

   -64.8277 -64.8277 -64.8277 -64.8267 -31.6195 -31.6193 -31.6192 -31.6192
   -31.5971 -31.5969 -31.5969 -31.5966 -31.5761 -31.5760 -31.5758 -31.5758
    -8.2056  -8.2052  -8.2048  -8.2048   4.2929   4.2929   4.2938   4.2940
     5.7671   5.7676   5.7686   5.7689   7.0634   7.0634   7.0639   7.0642

          k = 0.2510 0.2510 0.0000 (  5159 PWs)   bands (ev):

   -64.8321 -64.8266 -64.8262 -64.8250 -31.6197 -31.6192 -31.6191 -31.6102
   -31.5948 -31.5945 -31.5945 -31.5881 -31.5880 -31.5862 -31.5761 -31.5674
    -8.9618  -8.0686  -8.0684  -7.8854   4.1636   4.1637   4.3330   5.0958
     5.8610   6.0491   6.0495   6.4935   6.4935   6.5430   7.1807   7.4775

          k = 0.2510 0.2510 0.2500 (  5154 PWs)   bands (ev):

   -64.8311 -64.8266 -64.8265 -64.8257 -31.6262 -31.6233 -31.6232 -31.6072
   -31.5959 -31.5958 -31.5955 -31.5837 -31.5837 -31.5824 -31.5722 -31.5700
    -8.7920  -8.0354  -8.0352  -8.0260   3.9969   3.9969   4.0154   5.1065
     5.8507   5.8510   5.8580   6.6664   6.7096   6.7098   7.3252   7.3593

          k = 0.2510 0.2510-0.5000 (  5148 PWs)   bands (ev):

   -64.8289 -64.8284 -64.8266 -64.8259 -31.6266 -31.6264 -31.6226 -31.6225
   -31.5962 -31.5960 -31.5801 -31.5801 -31.5790 -31.5789 -31.5763 -31.5761
    -8.3948  -8.3947  -8.0017  -8.0016   3.8136   3.8136   4.2163   4.2165
     5.8411   5.8412   6.7442   6.7444   6.8734   6.8736   6.9811   6.9811

          k = 0.2480-0.4990 0.0000 (  5153 PWs)   bands (ev):

   -64.8294 -64.8290 -64.8260 -64.8254 -31.6204 -31.6150 -31.6130 -31.6077
   -31.6072 -31.6069 -31.5858 -31.5853 -31.5850 -31.5820 -31.5772 -31.5738
    -8.5156  -8.5030  -7.9536  -7.9398   4.4098   4.4271   4.7477   4.7550
     5.0893   5.1035   6.5209   6.5661   6.5758   6.5859   7.0739   7.1152

          k = 0.2480-0.4990 0.2500 (  5138 PWs)   bands (ev):

   -64.8289 -64.8285 -64.8265 -64.8259 -31.6301 -31.6267 -31.6234 -31.6190
   -31.5935 -31.5930 -31.5820 -31.5799 -31.5797 -31.5785 -31.5772 -31.5757
    -8.4051  -8.3926  -8.0036  -7.9902   3.8079   3.8353   4.1878   4.2084
     5.8240   5.8366   6.7208   6.7606   6.8546   6.8819   7.0111   7.0234

          k = 0.2480-0.4990-0.5000 (  5144 PWs)   bands (ev):

   -64.8278 -64.8277 -64.8276 -64.8267 -31.6338 -31.6337 -31.6302 -31.6301
   -31.5844 -31.5842 -31.5825 -31.5823 -31.5756 -31.5754 -31.5750 -31.5749
    -8.1740  -8.1739  -8.1613  -8.1611   3.6259   3.6259   3.6550   3.6551
     6.5037   6.5037   6.5455   6.5455   7.0584   7.0586   7.0709   7.0711

          k = 0.2490-0.2490 0.0000 (  5155 PWs)   bands (ev):

   -64.8322 -64.8264 -64.8261 -64.8251 -31.6234 -31.6232 -31.6199 -31.6054
   -31.5943 -31.5943 -31.5904 -31.5885 -31.5853 -31.5851 -31.5758 -31.5710
    -8.9699  -8.0587  -8.0585  -7.8949   4.1595   4.1598   4.3245   5.0471
     5.8337   6.0620   6.0625   6.4765   6.4766   6.6254   7.1656   7.5338

          k = 0.2490-0.2490 0.2500 (  5146 PWs)   bands (ev):

   -64.8312 -64.8265 -64.8264 -64.8257 -31.6274 -31.6273 -31.6244 -31.6048
   -31.5921 -31.5919 -31.5917 -31.5859 -31.5840 -31.5840 -31.5735 -31.5707
    -8.8001  -8.0351  -8.0256  -8.0255   3.9857   4.0043   4.0045   5.0723
     5.8339   5.8411   5.8415   6.7016   6.7018   6.7454   7.3516   7.3859

          k = 0.2490-0.2490-0.5000 (  5124 PWs)   bands (ev):

   -64.8290 -64.8286 -64.8264 -64.8258 -31.6302 -31.6300 -31.6202 -31.6201
   -31.5903 -31.5901 -31.5816 -31.5816 -31.5796 -31.5794 -31.5765 -31.5764
    -8.4032  -8.4030  -7.9921  -7.9920   3.8296   3.8297   4.1797   4.1798
     5.8201   5.8201   6.7365   6.7368   6.8644   6.8645   7.0517   7.0517

          k =-0.5020-0.5020 0.0000 (  5188 PWs)   bands (ev):

   -64.8278 -64.8277 -64.8276 -64.8267 -31.6224 -31.6221 -31.6167 -31.6165
   -31.5973 -31.5971 -31.5970 -31.5968 -31.5774 -31.5771 -31.5748 -31.5745
    -8.2146  -8.2144  -8.1958  -8.1956   4.2878   4.2879   4.2985   4.2989
     5.7559   5.7563   5.7789   5.7795   7.0321   7.0323   7.0959   7.0959

          k =-0.5020-0.5020 0.2500 (  5140 PWs)   bands (ev):

   -64.8278 -64.8277 -64.8276 -64.8267 -31.6339 -31.6337 -31.6301 -31.6300
   -31.5839 -31.5838 -31.5823 -31.5822 -31.5775 -31.5772 -31.5734 -31.5732
    -8.1769  -8.1768  -8.1584  -8.1582   3.6285   3.6285   3.6521   3.6524
     6.5211   6.5213   6.5277   6.5282   7.0333   7.0335   7.0965   7.0966

          k =-0.5020-0.5020-0.5000 (  5136 PWs)   bands (ev):

   -64.8278 -64.8277 -64.8276 -64.8267 -31.6403 -31.6401 -31.6394 -31.6392
   -31.5767 -31.5764 -31.5757 -31.5756 -31.5747 -31.5746 -31.5739 -31.5737
    -8.1387  -8.1386  -8.1203  -8.1202   3.2029   3.2030   3.2323   3.2324
     7.0340   7.0341   7.0643   7.0645   7.0662   7.0665   7.0975   7.0975

          k = 0.2500 0.0010-0.2500 (  5156 PWs)   bands (ev):

   -64.8321 -64.8265 -64.8261 -64.8251 -31.6213 -31.6211 -31.6201 -31.6073
   -31.5946 -31.5941 -31.5933 -31.5877 -31.5866 -31.5863 -31.5758 -31.5688
    -8.9659  -8.0639  -8.0634  -7.8899   4.1612   4.1620   4.3289   5.0715
     5.8469   6.0535   6.0558   6.4851   6.4877   6.5838   7.1731   7.5062

          k = 0.2510 0.2510-0.2500 (  5154 PWs)   bands (ev):

   -64.8311 -64.8266 -64.8265 -64.8257 -31.6262 -31.6233 -31.6232 -31.6072
   -31.5959 -31.5958 -31.5955 -31.5837 -31.5837 -31.5824 -31.5722 -31.5700
    -8.7920  -8.0354  -8.0352  -8.0260   3.9969   3.9969   4.0154   5.1065
     5.8507   5.8510   5.8580   6.6664   6.7096   6.7098   7.3252   7.3593

          k =-0.4990 0.2480-0.2500 (  5138 PWs)   bands (ev):

   -64.8289 -64.8285 -64.8265 -64.8259 -31.6301 -31.6267 -31.6234 -31.6190
   -31.5935 -31.5930 -31.5820 -31.5799 -31.5797 -31.5785 -31.5772 -31.5757
    -8.4051  -8.3926  -8.0036  -7.9902   3.8079   3.8353   4.1878   4.2084
     5.8240   5.8366   6.7208   6.7606   6.8546   6.8819   7.0111   7.0234

     highest occupied level (ev):     7.7012

!    total energy              =    -608.39268912 Ry
     Harris-Foulkes estimate   =    -608.39268912 Ry
     estimated scf accuracy    <          1.4E-10 Ry

     The total energy is the sum of the following terms:

     one-electron contribution =    -303.55590649 Ry
     hartree contribution      =     168.06714326 Ry
     xc contribution           =     -97.84634916 Ry
     ewald contribution        =    -375.05757672 Ry

     convergence has been achieved in   5 iterations

     Forces acting on atoms (cartesian axes, Ry/au):

     atom    1 type  1   force =     0.00011977    0.00011977    0.00000274
     atom    2 type  1   force =    -0.00017910    0.00024970   -0.00000236
     atom    3 type  1   force =     0.00024970   -0.00017910   -0.00000236
     atom    4 type  1   force =    -0.00023248   -0.00023248    0.00000230
     atom    5 type  2   force =     0.00008713   -0.00003006    0.00000297
     atom    6 type  2   force =    -0.00003006    0.00008713    0.00000297
     atom    7 type  2   force =     0.00004437    0.00004437   -0.00000308
     atom    8 type  2   force =    -0.00005934   -0.00005934   -0.00000317

     Total force =     0.000595     Total SCF correction =     0.000031


     Computing stress (Cartesian axis) and pressure

          total   stress  (Ry/bohr**3)                   (kbar)     P=  -68.10
  -0.00046316   0.00007551   0.00000000        -68.13     11.11      0.00
   0.00007551  -0.00046316   0.00000000         11.11    -68.13      0.00
   0.00000000   0.00000000  -0.00046257          0.00      0.00    -68.05


     number of scf cycles    =   5
     number of bfgs steps    =   4

     energy   old            =    -608.3926753991 Ry
     energy   new            =    -608.3926891206 Ry

     CASE: energy  _new < energy  _old

     new trust radius        =       0.0014625039 bohr
     new conv_thr            =       0.0000000001 Ry


ATOMIC_POSITIONS (alat)
Mg       0.000889640   0.000889640  -0.000004671
Mg      -0.000948145   0.500928574   0.500004801
Mg       0.500928574  -0.000948145   0.500004801
Mg       0.499134017   0.499134017  -0.000004990
O        0.501013473  -0.001026062  -0.000004972
O       -0.001026062   0.501013473  -0.000004972
O        0.000999329   0.000999329   0.500005004
O        0.499009175   0.499009175   0.500004999



     Writing output data file MgO.-0.007857.70.4.save
     NEW-OLD atomic charge density approx. for the potential

     Check: negative/imaginary core charge=   -0.000007    0.000000

     total cpu time spent up to now is       36.7 secs

     per-process dynamical memory:    53.7 Mb

     Self-consistent Calculation

     iteration #  1     ecut=    70.00 Ry     beta=0.70
     Davidson diagonalization with overlap
     ethr =  1.00E-06,  avg # of iterations =  2.6

     Threshold (ethr) on eigenvalues was too large:
     Diagonalizing with lowered threshold

     Davidson diagonalization with overlap
     ethr =  6.56E-10,  avg # of iterations =  3.2

     total cpu time spent up to now is       39.1 secs

     total energy              =    -608.39269006 Ry
     Harris-Foulkes estimate   =    -608.39269037 Ry
     estimated scf accuracy    <       0.00000058 Ry

     iteration #  2     ecut=    70.00 Ry     beta=0.70
     Davidson diagonalization with overlap
     ethr =  9.07E-10,  avg # of iterations =  2.0

     total cpu time spent up to now is       40.1 secs

     total energy              =    -608.39269016 Ry
     Harris-Foulkes estimate   =    -608.39269016 Ry
     estimated scf accuracy    <       0.00000002 Ry

     iteration #  3     ecut=    70.00 Ry     beta=0.70
     Davidson diagonalization with overlap
     ethr =  2.63E-11,  avg # of iterations =  2.0

     total cpu time spent up to now is       41.1 secs

     total energy              =    -608.39269016 Ry
     Harris-Foulkes estimate   =    -608.39269016 Ry
     estimated scf accuracy    <          2.2E-09 Ry

     iteration #  4     ecut=    70.00 Ry     beta=0.70
     Davidson diagonalization with overlap
     ethr =  3.44E-12,  avg # of iterations =  3.0

     total cpu time spent up to now is       42.2 secs

     total energy              =    -608.39269016 Ry
     Harris-Foulkes estimate   =    -608.39269016 Ry
     estimated scf accuracy    <          2.2E-09 Ry

     iteration #  5     ecut=    70.00 Ry     beta=0.70
     Davidson diagonalization with overlap
     ethr =  3.41E-12,  avg # of iterations =  2.6

     total cpu time spent up to now is       43.3 secs

     End of self-consistent calculation

          k = 0.0000 0.0000 0.0000 (  5141 PWs)   bands (ev):

   -64.8348 -64.8253 -64.8253 -64.8245 -31.6311 -31.6310 -31.6310 -31.5947
   -31.5937 -31.5936 -31.5930 -31.5930 -31.5918 -31.5664 -31.5641 -31.5637
    -9.3645  -7.9137  -7.9134  -7.9133   3.7583   3.7588   3.7588   6.3347
     6.3802   6.3802   6.3802   6.3805   6.4263   7.6440   7.6724   7.7012

          k = 0.0000 0.0000 0.2500 (  5153 PWs)   bands (ev):

   -64.8334 -64.8265 -64.8253 -64.8247 -31.6252 -31.6251 -31.6206 -31.5980
   -31.5980 -31.5943 -31.5942 -31.5906 -31.5871 -31.5783 -31.5731 -31.5695
    -9.1561  -8.1285  -7.8849  -7.8849   4.0488   4.0488   4.0955   5.8582
     5.8582   6.1708   6.1711   6.4995   6.5874   6.6589   7.4188   7.4830

          k = 0.0000 0.0000-0.5000 (  5122 PWs)   bands (ev):

   -64.8301 -64.8297 -64.8253 -64.8247 -31.6136 -31.6133 -31.6072 -31.6070
   -31.6020 -31.6020 -31.5912 -31.5912 -31.5826 -31.5823 -31.5787 -31.5785
    -8.6458  -8.6458  -7.8561  -7.8561   4.8425   4.8425   4.8531   4.8531
     5.1227   5.1229   5.9737   5.9740   6.9302   6.9302   7.0074   7.0075

          k = 0.0010 0.2500 0.0000 (  5164 PWs)   bands (ev):

   -64.8334 -64.8265 -64.8253 -64.8247 -31.6251 -31.6246 -31.6214 -31.5994
   -31.5985 -31.5935 -31.5933 -31.5893 -31.5890 -31.5794 -31.5717 -31.5711
    -9.1560  -8.1283  -7.8852  -7.8849   4.0485   4.0487   4.0954   5.8537
     5.8583   6.1708   6.1754   6.5430   6.5431   6.6584   7.4503   7.4511

          k = 0.0010 0.2500 0.2500 (  5156 PWs)   bands (ev):

   -64.8321 -64.8265 -64.8261 -64.8251 -31.6213 -31.6211 -31.6201 -31.6073
   -31.5946 -31.5941 -31.5933 -31.5877 -31.5866 -31.5863 -31.5758 -31.5688
    -8.9659  -8.0638  -8.0635  -7.8899   4.1612   4.1620   4.3289   5.0715
     5.8469   6.0535   6.0557   6.4851   6.4876   6.5838   7.1731   7.5062

          k = 0.0010 0.2500-0.5000 (  5148 PWs)   bands (ev):

   -64.8294 -64.8290 -64.8260 -64.8254 -31.6180 -31.6178 -31.6103 -31.6103
   -31.6066 -31.6064 -31.5854 -31.5851 -31.5839 -31.5838 -31.5753 -31.5752
    -8.5095  -8.5094  -7.9466  -7.9466   4.4187   4.4187   4.7510   4.7512
     5.0965   5.0965   6.5481   6.5483   6.5753   6.5753   7.0955   7.0955

          k =-0.0020-0.5000 0.0000 (  5124 PWs)   bands (ev):

   -64.8301 -64.8297 -64.8253 -64.8247 -31.6109 -31.6106 -31.6101 -31.6098
   -31.6021 -31.6020 -31.5918 -31.5917 -31.5807 -31.5804 -31.5802 -31.5800
    -8.6459  -8.6455  -7.8563  -7.8562   4.8472   4.8477   4.8478   4.8483
     5.1230   5.1233   5.9736   5.9740   6.9684   6.9686   6.9688   6.9689

          k =-0.0020-0.5000 0.2500 (  5156 PWs)   bands (ev):

   -64.8294 -64.8290 -64.8260 -64.8254 -31.6178 -31.6176 -31.6105 -31.6105
   -31.6071 -31.6069 -31.5853 -31.5851 -31.5842 -31.5841 -31.5754 -31.5753
    -8.5095  -8.5092  -7.9468  -7.9467   4.4182   4.4184   4.7512   4.7515
     5.0965   5.0971   6.5479   6.5482   6.5759   6.5763   7.0942   7.0943

          k =-0.0020-0.5000-0.5000 (  5184 PWs)   bands (ev):

   -64.8277 -64.8277 -64.8277 -64.8267 -31.6195 -31.6193 -31.6192 -31.6192
   -31.5971 -31.5969 -31.5969 -31.5966 -31.5761 -31.5759 -31.5758 -31.5758
    -8.2053  -8.2052  -8.2050  -8.2048   4.2929   4.2931   4.2937   4.2938
     5.7674   5.7678   5.7683   5.7687   7.0634   7.0637   7.0638   7.0639

          k = 0.2510 0.2510 0.0000 (  5159 PWs)   bands (ev):

   -64.8321 -64.8266 -64.8262 -64.8250 -31.6197 -31.6192 -31.6191 -31.6102
   -31.5948 -31.5945 -31.5945 -31.5881 -31.5880 -31.5862 -31.5761 -31.5673
    -8.9618  -8.0685  -8.0685  -7.8854   4.1636   4.1636   4.3330   5.0958
     5.8610   6.0492   6.0495   6.4935   6.4935   6.5430   7.1807   7.4775

          k = 0.2510 0.2510 0.2500 (  5154 PWs)   bands (ev):

   -64.8311 -64.8266 -64.8265 -64.8257 -31.6262 -31.6233 -31.6232 -31.6072
[...]
   -31.5903 -31.5901 -31.5816 -31.5816 -31.5796 -31.5794 -31.5765 -31.5764
    -8.4031  -8.4031  -7.9921  -7.9920   3.8296   3.8297   4.1797   4.1798
     5.8201   5.8201   6.7365   6.7367   6.8644   6.8645   7.0517   7.0517

          k =-0.5020-0.5020 0.0000 (  5188 PWs)   bands (ev):

   -64.8278 -64.8277 -64.8276 -64.8267 -31.6224 -31.6221 -31.6167 -31.6165
   -31.5973 -31.5971 -31.5970 -31.5968 -31.5774 -31.5771 -31.5748 -31.5745
    -8.2145  -8.2145  -8.1958  -8.1956   4.2878   4.2879   4.2986   4.2989
     5.7560   5.7563   5.7790   5.7795   7.0321   7.0322   7.0959   7.0959

          k =-0.5020-0.5020 0.2500 (  5140 PWs)   bands (ev):

   -64.8278 -64.8277 -64.8276 -64.8267 -31.6339 -31.6337 -31.6301 -31.6300
   -31.5839 -31.5838 -31.5823 -31.5822 -31.5775 -31.5772 -31.5734 -31.5732
    -8.1769  -8.1768  -8.1584  -8.1583   3.6285   3.6285   3.6522   3.6524
     6.5211   6.5213   6.5277   6.5281   7.0333   7.0334   7.0965   7.0965

          k =-0.5020-0.5020-0.5000 (  5136 PWs)   bands (ev):

   -64.8278 -64.8277 -64.8276 -64.8267 -31.6403 -31.6401 -31.6393 -31.6392
   -31.5767 -31.5764 -31.5757 -31.5756 -31.5747 -31.5746 -31.5739 -31.5737
    -8.1387  -8.1386  -8.1203  -8.1202   3.2029   3.2030   3.2323   3.2324
     7.0341   7.0341   7.0643   7.0645   7.0662   7.0665   7.0975   7.0975

          k = 0.2500 0.0010-0.2500 (  5156 PWs)   bands (ev):

   -64.8321 -64.8265 -64.8261 -64.8251 -31.6213 -31.6211 -31.6201 -31.6073
   -31.5946 -31.5941 -31.5933 -31.5877 -31.5866 -31.5863 -31.5758 -31.5688
    -8.9659  -8.0638  -8.0635  -7.8899   4.1612   4.1620   4.3289   5.0715
     5.8469   6.0535   6.0557   6.4851   6.4876   6.5838   7.1731   7.5062

          k = 0.2510 0.2510-0.2500 (  5154 PWs)   bands (ev):

   -64.8311 -64.8266 -64.8265 -64.8257 -31.6262 -31.6233 -31.6232 -31.6072
   -31.5959 -31.5958 -31.5955 -31.5837 -31.5837 -31.5824 -31.5722 -31.5700
    -8.7920  -8.0353  -8.0353  -8.0260   3.9968   3.9969   4.0154   5.1065
     5.8508   5.8510   5.8579   6.6664   6.7097   6.7098   7.3252   7.3592

          k =-0.4990 0.2480-0.2500 (  5138 PWs)   bands (ev):

   -64.8289 -64.8285 -64.8265 -64.8259 -31.6301 -31.6267 -31.6234 -31.6190
   -31.5935 -31.5930 -31.5820 -31.5798 -31.5797 -31.5785 -31.5772 -31.5757
    -8.4051  -8.3926  -8.0036  -7.9902   3.8079   3.8353   4.1878   4.2084
     5.8240   5.8366   6.7208   6.7606   6.8546   6.8819   7.0111   7.0234

     highest occupied level (ev):     7.7012

!    total energy              =    -608.39269016 Ry
     Harris-Foulkes estimate   =    -608.39269016 Ry
     estimated scf accuracy    <          1.8E-11 Ry

     The total energy is the sum of the following terms:

     one-electron contribution =    -303.55591309 Ry
     hartree contribution      =     168.06715169 Ry
     xc contribution           =     -97.84635135 Ry
     ewald contribution        =    -375.05757741 Ry

     convergence has been achieved in   5 iterations

     Forces acting on atoms (cartesian axes, Ry/au):

     atom    1 type  1   force =     0.00000226    0.00000226    0.00000271
     atom    2 type  1   force =    -0.00005024    0.00012303   -0.00000238
     atom    3 type  1   force =     0.00012303   -0.00005024   -0.00000238
     atom    4 type  1   force =    -0.00011531   -0.00011531    0.00000242
     atom    5 type  2   force =    -0.00004284    0.00009176    0.00000291
     atom    6 type  2   force =     0.00009176   -0.00004284    0.00000291
     atom    7 type  2   force =    -0.00007278   -0.00007278   -0.00000304
     atom    8 type  2   force =     0.00006412    0.00006412   -0.00000315

     Total force =     0.000318     Total SCF correction =     0.000014


     Computing stress (Cartesian axis) and pressure

          total   stress  (Ry/bohr**3)                   (kbar)     P=  -68.10
  -0.00046315   0.00007550   0.00000000        -68.13     11.11      0.00
   0.00007550  -0.00046315   0.00000000         11.11    -68.13      0.00
   0.00000000   0.00000000  -0.00046256          0.00      0.00    -68.04


     number of scf cycles    =   6
     number of bfgs steps    =   5

     energy   old            =    -608.3926891206 Ry
     energy   new            =    -608.3926901591 Ry

     CASE: energy  _new < energy  _old

     new trust radius        =       0.0002640322 bohr
     new conv_thr            =            1.0E-10 Ry


ATOMIC_POSITIONS (alat)
Mg       0.000897111   0.000897111  -0.000004322
Mg      -0.000962867   0.500953381   0.500004500
Mg       0.500953381  -0.000962867   0.500004500
Mg       0.499110811   0.499110811  -0.000004685
O        0.501015582  -0.001021318  -0.000004596
O       -0.001021318   0.501015582  -0.000004596
O        0.000997018   0.000997018   0.500004609
O        0.499010282   0.499010282   0.500004589



     Writing output data file MgO.-0.007857.70.4.save
     NEW-OLD atomic charge density approx. for the potential

     Check: negative/imaginary core charge=   -0.000007    0.000000

     total cpu time spent up to now is       43.9 secs

     per-process dynamical memory:    53.7 Mb

     Self-consistent Calculation

     iteration #  1     ecut=    70.00 Ry     beta=0.70
     Davidson diagonalization with overlap
     ethr =  1.00E-06,  avg # of iterations =  2.0

     Threshold (ethr) on eigenvalues was too large:
     Diagonalizing with lowered threshold

     Davidson diagonalization with overlap
     ethr =  5.42E-12,  avg # of iterations =  3.5

     total cpu time spent up to now is       46.5 secs

     total energy              =    -608.39269026 Ry
     Harris-Foulkes estimate   =    -608.39269026 Ry
     estimated scf accuracy    <          3.1E-09 Ry

     iteration #  2     ecut=    70.00 Ry     beta=0.70
     Davidson diagonalization with overlap
     ethr =  4.91E-12,  avg # of iterations =  2.0

     total cpu time spent up to now is       47.4 secs

     total energy              =    -608.39269026 Ry
     Harris-Foulkes estimate   =    -608.39269026 Ry
     estimated scf accuracy    <          2.4E-10 Ry

     iteration #  3     ecut=    70.00 Ry     beta=0.70
     Davidson diagonalization with overlap
     ethr =  3.67E-13,  avg # of iterations =  3.0

     total cpu time spent up to now is       48.6 secs

     total energy              =    -608.39269026 Ry
     Harris-Foulkes estimate   =    -608.39269026 Ry
     estimated scf accuracy    <          1.5E-10 Ry

     iteration #  4     ecut=    70.00 Ry     beta=0.70
     Davidson diagonalization with overlap
     ethr =  2.35E-13,  avg # of iterations =  2.8

     total cpu time spent up to now is       49.6 secs

     End of self-consistent calculation

          k = 0.0000 0.0000 0.0000 (  5141 PWs)   bands (ev):

   -64.8348 -64.8253 -64.8253 -64.8245 -31.6311 -31.6310 -31.6310 -31.5947
   -31.5936 -31.5936 -31.5930 -31.5930 -31.5918 -31.5664 -31.5641 -31.5637
    -9.3645  -7.9137  -7.9134  -7.9133   3.7583   3.7588   3.7588   6.3347
     6.3802   6.3802   6.3802   6.3805   6.4263   7.6440   7.6724   7.7012

          k = 0.0000 0.0000 0.2500 (  5153 PWs)   bands (ev):

   -64.8334 -64.8265 -64.8253 -64.8247 -31.6252 -31.6251 -31.6206 -31.5980
   -31.5980 -31.5943 -31.5942 -31.5906 -31.5871 -31.5783 -31.5731 -31.5695
    -9.1561  -8.1285  -7.8849  -7.8849   4.0488   4.0488   4.0955   5.8582
     5.8582   6.1708   6.1711   6.4995   6.5874   6.6589   7.4188   7.4830

          k = 0.0000 0.0000-0.5000 (  5122 PWs)   bands (ev):

   -64.8301 -64.8297 -64.8253 -64.8247 -31.6136 -31.6133 -31.6072 -31.6070
   -31.6020 -31.6020 -31.5912 -31.5912 -31.5826 -31.5823 -31.5787 -31.5785
    -8.6458  -8.6458  -7.8561  -7.8561   4.8425   4.8425   4.8531   4.8531
     5.1227   5.1229   5.9737   5.9740   6.9302   6.9302   7.0074   7.0075

          k = 0.0010 0.2500 0.0000 (  5164 PWs)   bands (ev):

   -64.8334 -64.8265 -64.8253 -64.8247 -31.6251 -31.6246 -31.6214 -31.5994
   -31.5985 -31.5935 -31.5933 -31.5893 -31.5890 -31.5794 -31.5717 -31.5711
    -9.1560  -8.1283  -7.8852  -7.8849   4.0485   4.0487   4.0954   5.8537
     5.8583   6.1708   6.1754   6.5430   6.5431   6.6584   7.4503   7.4511

          k = 0.0010 0.2500 0.2500 (  5156 PWs)   bands (ev):

   -64.8321 -64.8265 -64.8261 -64.8251 -31.6213 -31.6211 -31.6201 -31.6073
   -31.5946 -31.5941 -31.5933 -31.5877 -31.5866 -31.5863 -31.5758 -31.5688
    -8.9659  -8.0638  -8.0635  -7.8899   4.1613   4.1620   4.3289   5.0715
     5.8469   6.0535   6.0557   6.4851   6.4876   6.5838   7.1731   7.5062

          k = 0.0010 0.2500-0.5000 (  5148 PWs)   bands (ev):

   -64.8294 -64.8290 -64.8260 -64.8254 -31.6180 -31.6178 -31.6103 -31.6103
   -31.6066 -31.6064 -31.5854 -31.5851 -31.5839 -31.5838 -31.5753 -31.5752
    -8.5095  -8.5094  -7.9466  -7.9465   4.4187   4.4187   4.7510   4.7512
     5.0965   5.0965   6.5481   6.5483   6.5753   6.5753   7.0955   7.0955

          k =-0.0020-0.5000 0.0000 (  5124 PWs)   bands (ev):

   -64.8301 -64.8297 -64.8253 -64.8247 -31.6109 -31.6106 -31.6101 -31.6098
   -31.6021 -31.6020 -31.5918 -31.5917 -31.5807 -31.5804 -31.5802 -31.5800
    -8.6459  -8.6455  -7.8563  -7.8562   4.8472   4.8477   4.8479   4.8483
     5.1230   5.1233   5.9736   5.9740   6.9684   6.9686   6.9688   6.9689

          k =-0.0020-0.5000 0.2500 (  5156 PWs)   bands (ev):

   -64.8294 -64.8290 -64.8260 -64.8254 -31.6178 -31.6176 -31.6105 -31.6105
   -31.6071 -31.6069 -31.5853 -31.5851 -31.5842 -31.5841 -31.5754 -31.5753
    -8.5095  -8.5092  -7.9468  -7.9467   4.4182   4.4184   4.7512   4.7515
     5.0965   5.0971   6.5479   6.5482   6.5759   6.5763   7.0942   7.0943

          k =-0.0020-0.5000-0.5000 (  5184 PWs)   bands (ev):

   -64.8277 -64.8277 -64.8277 -64.8267 -31.6195 -31.6193 -31.6192 -31.6192
   -31.5971 -31.5969 -31.5969 -31.5966 -31.5761 -31.5759 -31.5758 -31.5758
    -8.2053  -8.2052  -8.2050  -8.2048   4.2930   4.2931   4.2937   4.2938
     5.7674   5.7678   5.7682   5.7687   7.0634   7.0637   7.0638   7.0639

          k = 0.2510 0.2510 0.0000 (  5159 PWs)   bands (ev):

   -64.8321 -64.8266 -64.8262 -64.8250 -31.6197 -31.6192 -31.6191 -31.6102
   -31.5948 -31.5945 -31.5945 -31.5881 -31.5880 -31.5862 -31.5761 -31.5673
    -8.9618  -8.0685  -8.0685  -7.8854   4.1636   4.1636   4.3330   5.0958
     5.8610   6.0492   6.0495   6.4935   6.4935   6.5430   7.1807   7.4775

          k = 0.2510 0.2510 0.2500 (  5154 PWs)   bands (ev):

   -64.8311 -64.8266 -64.8265 -64.8257 -31.6262 -31.6233 -31.6232 -31.6072
   -31.5959 -31.5958 -31.5955 -31.5837 -31.5837 -31.5824 -31.5722 -31.5700
    -8.7920  -8.0353  -8.0353  -8.0260   3.9968   3.9969   4.0154   5.1065
     5.8508   5.8510   5.8579   6.6664   6.7097   6.7098   7.3252   7.3592

          k = 0.2510 0.2510-0.5000 (  5148 PWs)   bands (ev):

   -64.8289 -64.8285 -64.8265 -64.8259 -31.6266 -31.6264 -31.6226 -31.6225
   -31.5962 -31.5960 -31.5801 -31.5801 -31.5790 -31.5789 -31.5763 -31.5761
    -8.3948  -8.3947  -8.0017  -8.0016   3.8136   3.8136   4.2163   4.2165
     5.8412   5.8412   6.7442   6.7444   6.8734   6.8736   6.9811   6.9811

          k = 0.2480-0.4990 0.0000 (  5153 PWs)   bands (ev):

   -64.8294 -64.8290 -64.8260 -64.8254 -31.6204 -31.6150 -31.6130 -31.6077
   -31.6072 -31.6069 -31.5858 -31.5853 -31.5850 -31.5820 -31.5772 -31.5738
    -8.5156  -8.5030  -7.9536  -7.9398   4.4098   4.4271   4.7477   4.7550
     5.0893   5.1035   6.5209   6.5661   6.5758   6.5859   7.0739   7.1152

          k = 0.2480-0.4990 0.2500 (  5138 PWs)   bands (ev):

   -64.8289 -64.8285 -64.8265 -64.8259 -31.6301 -31.6267 -31.6234 -31.6190
   -31.5935 -31.5930 -31.5820 -31.5798 -31.5797 -31.5785 -31.5772 -31.5757
    -8.4051  -8.3926  -8.0036  -7.9902   3.8079   3.8353   4.1878   4.2084
     5.8240   5.8366   6.7208   6.7606   6.8546   6.8819   7.0111   7.0234

          k = 0.2480-0.4990-0.5000 (  5144 PWs)   bands (ev):

   -64.8278 -64.8277 -64.8276 -64.8267 -31.6338 -31.6337 -31.6302 -31.6301
   -31.5844 -31.5842 -31.5825 -31.5823 -31.5756 -31.5754 -31.5750 -31.5749
    -8.1740  -8.1739  -8.1612  -8.1612   3.6259   3.6259   3.6550   3.6551
     6.5037   6.5037   6.5455   6.5455   7.0584   7.0586   7.0709   7.0711

          k = 0.2490-0.2490 0.0000 (  5155 PWs)   bands (ev):

   -64.8322 -64.8264 -64.8261 -64.8251 -31.6234 -31.6232 -31.6199 -31.6054
   -31.5943 -31.5943 -31.5904 -31.5885 -31.5852 -31.5851 -31.5758 -31.5710
    -8.9699  -8.0587  -8.0586  -7.8949   4.1596   4.1597   4.3245   5.0471
     5.8337   6.0620   6.0624   6.4765   6.4766   6.6254   7.1656   7.5338

          k = 0.2490-0.2490 0.2500 (  5146 PWs)   bands (ev):

   -64.8312 -64.8265 -64.8264 -64.8257 -31.6274 -31.6273 -31.6244 -31.6048
   -31.5921 -31.5919 -31.5917 -31.5859 -31.5840 -31.5840 -31.5735 -31.5707
    -8.8001  -8.0351  -8.0256  -8.0255   3.9857   4.0043   4.0044   5.0723
     5.8339   5.8411   5.8413   6.7016   6.7017   6.7454   7.3516   7.3859

          k = 0.2490-0.2490-0.5000 (  5124 PWs)   bands (ev):

   -64.8290 -64.8286 -64.8264 -64.8258 -31.6302 -31.6300 -31.6202 -31.6201
   -31.5903 -31.5901 -31.5816 -31.5816 -31.5796 -31.5794 -31.5765 -31.5764
    -8.4031  -8.4031  -7.9921  -7.9920   3.8296   3.8297   4.1797   4.1798
     5.8201   5.8201   6.7365   6.7367   6.8644   6.8645   7.0517   7.0517

          k =-0.5020-0.5020 0.0000 (  5188 PWs)   bands (ev):

   -64.8278 -64.8277 -64.8276 -64.8267 -31.6224 -31.6221 -31.6167 -31.6165
   -31.5973 -31.5971 -31.5970 -31.5968 -31.5774 -31.5771 -31.5748 -31.5745
    -8.2145  -8.2145  -8.1958  -8.1956   4.2878   4.2879   4.2986   4.2988
     5.7560   5.7563   5.7791   5.7794   7.0322   7.0322   7.0959   7.0959

          k =-0.5020-0.5020 0.2500 (  5140 PWs)   bands (ev):

   -64.8278 -64.8277 -64.8276 -64.8267 -31.6339 -31.6337 -31.6301 -31.6300
   -31.5839 -31.5838 -31.5823 -31.5822 -31.5775 -31.5772 -31.5734 -31.5732
    -8.1769  -8.1768  -8.1584  -8.1583   3.6285   3.6285   3.6522   3.6523
     6.5211   6.5213   6.5278   6.5281   7.0334   7.0334   7.0965   7.0965

          k =-0.5020-0.5020-0.5000 (  5136 PWs)   bands (ev):

   -64.8278 -64.8277 -64.8276 -64.8267 -31.6403 -31.6401 -31.6393 -31.6392
   -31.5767 -31.5764 -31.5757 -31.5756 -31.5747 -31.5746 -31.5739 -31.5737
    -8.1387  -8.1386  -8.1203  -8.1202   3.2029   3.2030   3.2323   3.2324
     7.0341   7.0341   7.0643   7.0645   7.0662   7.0665   7.0975   7.0975

          k = 0.2500 0.0010-0.2500 (  5156 PWs)   bands (ev):

   -64.8321 -64.8265 -64.8261 -64.8251 -31.6213 -31.6211 -31.6201 -31.6073
   -31.5946 -31.5941 -31.5933 -31.5877 -31.5866 -31.5863 -31.5758 -31.5688
    -8.9659  -8.0638  -8.0635  -7.8899   4.1613   4.1620   4.3289   5.0715
     5.8469   6.0535   6.0557   6.4851   6.4876   6.5838   7.1731   7.5062

          k = 0.2510 0.2510-0.2500 (  5154 PWs)   bands (ev):

   -64.8311 -64.8266 -64.8265 -64.8257 -31.6262 -31.6233 -31.6232 -31.6072
   -31.5959 -31.5958 -31.5955 -31.5837 -31.5837 -31.5824 -31.5722 -31.5700
    -8.7920  -8.0353  -8.0353  -8.0260   3.9968   3.9969   4.0154   5.1065
     5.8508   5.8510   5.8579   6.6664   6.7097   6.7098   7.3252   7.3592

          k =-0.4990 0.2480-0.2500 (  5138 PWs)   bands (ev):

   -64.8289 -64.8285 -64.8265 -64.8259 -31.6301 -31.6267 -31.6234 -31.6190
   -31.5935 -31.5930 -31.5820 -31.5798 -31.5797 -31.5785 -31.5772 -31.5757
    -8.4051  -8.3926  -8.0036  -7.9902   3.8079   3.8353   4.1878   4.2084
     5.8240   5.8366   6.7208   6.7606   6.8546   6.8819   7.0111   7.0234

     highest occupied level (ev):     7.7012

!    total energy              =    -608.39269026 Ry
     Harris-Foulkes estimate   =    -608.39269026 Ry
     estimated scf accuracy    <          9.6E-12 Ry

     The total energy is the sum of the following terms:

     one-electron contribution =    -303.55590315 Ry
     hartree contribution      =     168.06714757 Ry
     xc contribution           =     -97.84635162 Ry
     ewald contribution        =    -375.05758305 Ry

     convergence has been achieved in   4 iterations

     Forces acting on atoms (cartesian axes, Ry/au):

     atom    1 type  1   force =    -0.00000738   -0.00000738    0.00000191
     atom    2 type  1   force =    -0.00002753    0.00008798   -0.00000170
     atom    3 type  1   force =     0.00008798   -0.00002753   -0.00000170
     atom    4 type  1   force =    -0.00008509   -0.00008509    0.00000173
     atom    5 type  2   force =    -0.00004139    0.00007471    0.00000194
     atom    6 type  2   force =     0.00007471   -0.00004139    0.00000194
     atom    7 type  2   force =    -0.00005952   -0.00005952   -0.00000201
     atom    8 type  2   force =     0.00005821    0.00005821   -0.00000211

     Total force =     0.000245     Total SCF correction =     0.000004


     Computing stress (Cartesian axis) and pressure

          total   stress  (Ry/bohr**3)                   (kbar)     P=  -68.10
  -0.00046315   0.00007550   0.00000000        -68.13     11.11      0.00
   0.00007550  -0.00046315   0.00000000         11.11    -68.13      0.00
   0.00000000   0.00000000  -0.00046255          0.00      0.00    -68.04


     bfgs converged in   7 scf cycles and   6 bfgs steps
     (criteria: energy <  1.0E-05 Ry, force <  1.0E-04 Ry/Bohr)

     End of BFGS Geometry Optimization

     Final energy   =    -608.3926902560 Ry
Begin final coordinates

ATOMIC_POSITIONS (alat)
Mg       0.000897111   0.000897111  -0.000004322
Mg      -0.000962867   0.500953381   0.500004500
Mg       0.500953381  -0.000962867   0.500004500
Mg       0.499110811   0.499110811  -0.000004685
O        0.501015582  -0.001021318  -0.000004596
O       -0.001021318   0.501015582  -0.000004596
O        0.000997018   0.000997018   0.500004609
O        0.499010282   0.499010282   0.500004589
End final coordinates



     Writing output data file MgO.-0.007857.70.4.save
 
     init_run     :      0.45s CPU      0.47s WALL (       1 calls)
     electrons    :     44.44s CPU     45.15s WALL (       7 calls)
     update_pot   :      0.66s CPU      0.67s WALL (       6 calls)
     forces       :      0.99s CPU      0.99s WALL (       7 calls)
     stress       :      2.27s CPU      2.27s WALL (       7 calls)

     Called by init_run:
     wfcinit      :      0.33s CPU      0.35s WALL (       1 calls)
     potinit      :      0.05s CPU      0.05s WALL (       1 calls)

     Called by electrons:
     c_bands      :     38.84s CPU     39.42s WALL (      42 calls)
     sum_band     :      5.33s CPU      5.45s WALL (      42 calls)
     v_of_rho     :      0.22s CPU      0.23s WALL (      43 calls)
     mix_rho      :      0.03s CPU      0.03s WALL (      42 calls)

     Called by c_bands:
     init_us_2    :      0.58s CPU      0.59s WALL (    2376 calls)
     cegterg      :     36.18s CPU     36.73s WALL (    1008 calls)

     Called by sum_band:

     Called by *egterg:
     h_psi        :     26.42s CPU     26.95s WALL (    3460 calls)
     g_psi        :      0.20s CPU      0.20s WALL (    2428 calls)
     cdiaghg      :      5.22s CPU      5.23s WALL (    3148 calls)

     Called by h_psi:
     h_psi:pot    :     26.32s CPU     26.82s WALL (    3460 calls)
     h_psi:calbec :      1.50s CPU      1.50s WALL (    3460 calls)
     vloc_psi     :     23.58s CPU     24.06s WALL (    3460 calls)
     add_vuspsi   :      1.23s CPU      1.24s WALL (    3460 calls)

     General routines
     calbec       :      1.97s CPU      1.97s WALL (    4300 calls)
     fft          :      0.19s CPU      0.19s WALL (     659 calls)
     fftw         :     26.25s CPU     26.30s WALL (  203458 calls)
     davcio       :      0.00s CPU      0.01s WALL (      24 calls)
 
     Parallel routines
     fft_scatter  :      7.33s CPU      7.12s WALL (  204117 calls)
 
     PWSCF        :    49.27s CPU        50.18s WALL

 
   This run was terminated on:  19: 7:22  22Apr2018            

=------------------------------------------------------------------------------=
   JOB DONE.
=------------------------------------------------------------------------------=
