
     Program PWSCF v.6.1 (svn rev. 13369) starts on 22Apr2018 at 19: 7:23 

     This program is part of the open-source Quantum ESPRESSO suite
     for quantum simulation of materials; please cite
         "P. Giannozzi et al., J. Phys.:Condens. Matter 21 395502 (2009);
          URL http://www.quantum-espresso.org", 
     in publications or presentations arising from this work. More details at
     http://www.quantum-espresso.org/quote

     Parallel version (MPI), running on     8 processors
     R & G space division:  proc/nbgrp/npool/nimage =       8
     Waiting for input...
     Reading input from standard input
Warning: card       &CELL ignored
Warning: card          CELL_DYNAMICS = 'BFGS' ignored
Warning: card          PRESS = 0.0D0 ignored
Warning: card          PRESS_CONV_THR = 0.01D0 ignored
Warning: card       / ignored

     Current dimensions of program PWSCF are:
     Max number of different atomic species (ntypx) = 10
     Max number of k-points (npk) =  40000
     Max angular momentum in pseudopotentials (lmaxx) =  3

     Subspace diagonalization in iterative solution of the eigenvalue problem:
     a serial algorithm will be used

 
     Parallelization info
     --------------------
     sticks:   dense  smooth     PW     G-vecs:    dense   smooth      PW
     Min         181     181     52                 5151     5151     816
     Max         182     182     53                 5153     5153     819
     Sum        1449    1449    421                41219    41219    6543
 


     bravais-lattice index     =            0
     lattice parameter (alat)  =       8.0448  a.u.
     unit-cell volume          =     520.6402 (a.u.)^3
     number of atoms/cell      =            8
     number of atomic types    =            2
     number of electrons       =        64.00
     number of Kohn-Sham states=           32
     kinetic-energy cutoff     =      70.0000  Ry
     charge density cutoff     =     280.0000  Ry
     convergence threshold     =      1.0E-08
     mixing beta               =       0.7000
     number of iterations used =            8  plain     mixing
     Exchange-correlation      = PBE ( 1  4  3  4 0 0)
     nstep                     =           50


     celldm(1)=   8.044750  celldm(2)=   0.000000  celldm(3)=   0.000000
     celldm(4)=   0.000000  celldm(5)=   0.000000  celldm(6)=   0.000000

     crystal axes: (cart. coord. in units of alat)
               a(1) = (   1.000000  -0.004643   0.000000 )  
               a(2) = (  -0.004643   1.000000   0.000000 )  
               a(3) = (   0.000000   0.000000   1.000022 )  

     reciprocal axes: (cart. coord. in units 2 pi/alat)
               b(1) = (  1.000022  0.004643  0.000000 )  
               b(2) = (  0.004643  1.000022  0.000000 )  
               b(3) = (  0.000000  0.000000  0.999978 )  


     PseudoPot. # 1 for Mg read from file:
     ../pseudo/Mg.pbe.UPF
     MD5 check sum: 4c04d8c6e0476e83eaecaf72fa8acc4d
     Pseudo is Norm-conserving, Zval = 10.0
     Generated using ONCVPSP code by D. R. Hamann
     Using radial grid of 1510 points,  4 beta functions with: 
                l(1) =   0
                l(2) =   0
                l(3) =   1
                l(4) =   1

     PseudoPot. # 2 for O  read from file:
     ../pseudo/O.pbe.UPF
     MD5 check sum: 3e3f909f7470e8921608ab6b1f57bbae
     Pseudo is Norm-conserving + core correction, Zval =  6.0
     Generated using ONCVPSP code by D. R. Hamann
     Using radial grid of  936 points,  5 beta functions with: 
                l(1) =   0
                l(2) =   0
                l(3) =   1
                l(4) =   1
                l(5) =   2

     atomic species   valence    mass     pseudopotential
        Mg            10.00    24.30500     Mg( 1.00)
        O              6.00    15.99940     O ( 1.00)

      2 Sym. Ops. (no inversion) found



   Cartesian axes

     site n.     atom                  positions (alat units)
         1           Mg  tau(   1) = (   0.0000000   0.0000000   0.0000000  )
         2           Mg  tau(   2) = (   0.0000000   0.5000000   0.5000000  )
         3           Mg  tau(   3) = (   0.5000000   0.0000000   0.5000000  )
         4           Mg  tau(   4) = (   0.5000000   0.5000000   0.0000000  )
         5           O   tau(   5) = (   0.5000000   0.0000000   0.0000000  )
         6           O   tau(   6) = (   0.0000000   0.5000000   0.0000000  )
         7           O   tau(   7) = (   0.0000000   0.0000000   0.5000000  )
         8           O   tau(   8) = (   0.5000000   0.5000000   0.5000000  )

     number of k points=    24
                       cart. coord. in units 2pi/alat
        k(    1) = (   0.0000000   0.0000000   0.0000000), wk =   0.0312500
        k(    2) = (   0.0000000   0.0000000   0.2499946), wk =   0.0625000
        k(    3) = (   0.0000000   0.0000000  -0.4999892), wk =   0.0312500
        k(    4) = (   0.0011608   0.2500054   0.0000000), wk =   0.1250000
        k(    5) = (   0.0011608   0.2500054   0.2499946), wk =   0.1250000
        k(    6) = (   0.0011608   0.2500054  -0.4999892), wk =   0.1250000
        k(    7) = (  -0.0023216  -0.5000108   0.0000000), wk =   0.0625000
        k(    8) = (  -0.0023216  -0.5000108   0.2499946), wk =   0.1250000
        k(    9) = (  -0.0023216  -0.5000108  -0.4999892), wk =   0.0625000
        k(   10) = (   0.2511662   0.2511662   0.0000000), wk =   0.0625000
        k(   11) = (   0.2511662   0.2511662   0.2499946), wk =   0.0625000
        k(   12) = (   0.2511662   0.2511662  -0.4999892), wk =   0.0625000
        k(   13) = (   0.2476838  -0.4988500   0.0000000), wk =   0.1250000
        k(   14) = (   0.2476838  -0.4988500   0.2499946), wk =   0.1250000
        k(   15) = (   0.2476838  -0.4988500  -0.4999892), wk =   0.1250000
        k(   16) = (   0.2488446  -0.2488446   0.0000000), wk =   0.0625000
        k(   17) = (   0.2488446  -0.2488446   0.2499946), wk =   0.1250000
        k(   18) = (   0.2488446  -0.2488446  -0.4999892), wk =   0.0625000
        k(   19) = (  -0.5023323  -0.5023323   0.0000000), wk =   0.0312500
        k(   20) = (  -0.5023323  -0.5023323   0.2499946), wk =   0.0625000
        k(   21) = (  -0.5023323  -0.5023323  -0.4999892), wk =   0.0312500
        k(   22) = (   0.2500054   0.0011608  -0.2499946), wk =   0.1250000
        k(   23) = (   0.2511662   0.2511662  -0.2499946), wk =   0.0625000
        k(   24) = (  -0.4988500   0.2476838  -0.2499946), wk =   0.1250000

     Dense  grid:    41219 G-vectors     FFT dimensions: (  45,  45,  45)

     Estimated max dynamical RAM per process >      13.45MB

     Estimated total allocated dynamical RAM >     107.58MB

     Check: negative/imaginary core charge=   -0.000007    0.000000

     Initial potential from superposition of free atoms

     starting charge   63.99678, renormalised to   64.00000
     Starting wfc are   36 randomized atomic wfcs

     total cpu time spent up to now is        0.6 secs

     per-process dynamical memory:    49.0 Mb

     Self-consistent Calculation

     iteration #  1     ecut=    70.00 Ry     beta=0.70
     Davidson diagonalization with overlap
     ethr =  1.00E-02,  avg # of iterations =  2.0

     total cpu time spent up to now is        1.6 secs

     total energy              =    -607.72109044 Ry
     Harris-Foulkes estimate   =    -608.84372230 Ry
     estimated scf accuracy    <       1.56003696 Ry

     iteration #  2     ecut=    70.00 Ry     beta=0.70
     Davidson diagonalization with overlap
     ethr =  2.44E-03,  avg # of iterations =  2.9

     total cpu time spent up to now is        2.7 secs

     total energy              =    -608.10603116 Ry
     Harris-Foulkes estimate   =    -608.80236995 Ry
     estimated scf accuracy    <       1.44533525 Ry

     iteration #  3     ecut=    70.00 Ry     beta=0.70
     Davidson diagonalization with overlap
     ethr =  2.26E-03,  avg # of iterations =  2.0

     total cpu time spent up to now is        3.7 secs

     total energy              =    -608.39104744 Ry
     Harris-Foulkes estimate   =    -608.39171660 Ry
     estimated scf accuracy    <       0.00676515 Ry

     iteration #  4     ecut=    70.00 Ry     beta=0.70
     Davidson diagonalization with overlap
     ethr =  1.06E-05,  avg # of iterations =  2.0

     total cpu time spent up to now is        4.7 secs

     total energy              =    -608.39252908 Ry
     Harris-Foulkes estimate   =    -608.39257274 Ry
     estimated scf accuracy    <       0.00010941 Ry

     iteration #  5     ecut=    70.00 Ry     beta=0.70
     Davidson diagonalization with overlap
     ethr =  1.71E-07,  avg # of iterations =  1.5

     total cpu time spent up to now is        5.5 secs

     total energy              =    -608.39253649 Ry
     Harris-Foulkes estimate   =    -608.39253495 Ry
     estimated scf accuracy    <       0.00001023 Ry

     iteration #  6     ecut=    70.00 Ry     beta=0.70
     Davidson diagonalization with overlap
     ethr =  1.60E-08,  avg # of iterations =  2.0

     total cpu time spent up to now is        6.7 secs

     total energy              =    -608.39253804 Ry
     Harris-Foulkes estimate   =    -608.39253843 Ry
     estimated scf accuracy    <       0.00000091 Ry

     iteration #  7     ecut=    70.00 Ry     beta=0.70
     Davidson diagonalization with overlap
     ethr =  1.43E-09,  avg # of iterations =  2.0

     total cpu time spent up to now is        7.6 secs

     total energy              =    -608.39253805 Ry
     Harris-Foulkes estimate   =    -608.39253812 Ry
     estimated scf accuracy    <       0.00000018 Ry

     iteration #  8     ecut=    70.00 Ry     beta=0.70
     Davidson diagonalization with overlap
     ethr =  2.81E-10,  avg # of iterations =  2.0

     total cpu time spent up to now is        8.6 secs

     total energy              =    -608.39253806 Ry
     Harris-Foulkes estimate   =    -608.39253807 Ry
     estimated scf accuracy    <       0.00000003 Ry

     iteration #  9     ecut=    70.00 Ry     beta=0.70
     Davidson diagonalization with overlap
     ethr =  4.66E-11,  avg # of iterations =  2.0

     total cpu time spent up to now is        9.8 secs

     End of self-consistent calculation

          k = 0.0000 0.0000 0.0000 (  5149 PWs)   bands (ev):

   -64.8348 -64.8253 -64.8253 -64.8245 -31.6312 -31.6312 -31.6311 -31.5950
   -31.5937 -31.5936 -31.5930 -31.5929 -31.5915 -31.5670 -31.5654 -31.5639
    -9.3644  -7.9136  -7.9131  -7.9130   3.7583   3.7589   3.7591   6.3266
     6.3801   6.3804   6.3804   6.3808   6.4348   7.6390   7.6721   7.7066

          k = 0.0000 0.0000 0.2500 (  5153 PWs)   bands (ev):

   -64.8334 -64.8265 -64.8253 -64.8247 -31.6254 -31.6254 -31.6206 -31.5979
   -31.5978 -31.5943 -31.5942 -31.5910 -31.5868 -31.5783 -31.5735 -31.5691
    -9.1560  -8.1284  -7.8846  -7.8846   4.0475   4.0491   4.0969   5.8580
     5.8585   6.1709   6.1712   6.4918   6.5957   6.6589   7.4133   7.4890

          k = 0.0000 0.0000-0.5000 (  5130 PWs)   bands (ev):

   -64.8302 -64.8297 -64.8253 -64.8247 -31.6145 -31.6143 -31.6073 -31.6070
   -31.6021 -31.6020 -31.5913 -31.5912 -31.5830 -31.5827 -31.5784 -31.5782
    -8.6458  -8.6457  -7.8558  -7.8558   4.8407   4.8415   4.8532   4.8540
     5.1232   5.1235   5.9738   5.9741   6.9233   6.9236   7.0146   7.0149

          k = 0.0012 0.2500 0.0000 (  5167 PWs)   bands (ev):

   -64.8334 -64.8265 -64.8253 -64.8247 -31.6253 -31.6249 -31.6217 -31.5997
   -31.5985 -31.5935 -31.5931 -31.5893 -31.5889 -31.5799 -31.5718 -31.5708
    -9.1559  -8.1281  -7.8851  -7.8846   4.0486   4.0489   4.0956   5.8514
     5.8585   6.1708   6.1780   6.5432   6.5433   6.6583   7.4502   7.4518

          k = 0.0012 0.2500 0.2500 (  5153 PWs)   bands (ev):

   -64.8321 -64.8265 -64.8261 -64.8251 -31.6215 -31.6213 -31.6202 -31.6072
   -31.5948 -31.5940 -31.5930 -31.5876 -31.5867 -31.5863 -31.5756 -31.5687
    -8.9658  -8.0672  -8.0598  -7.8897   4.1554   4.1680   4.3292   5.0715
     5.8471   6.0451   6.0636   6.4826   6.4916   6.5840   7.1734   7.5066

          k = 0.0012 0.2500-0.5000 (  5148 PWs)   bands (ev):

   -64.8294 -64.8290 -64.8260 -64.8254 -31.6183 -31.6182 -31.6103 -31.6103
   -31.6066 -31.6063 -31.5854 -31.5852 -31.5839 -31.5839 -31.5752 -31.5751
    -8.5094  -8.5093  -7.9463  -7.9463   4.4185   4.4187   4.7512   4.7514
     5.0965   5.0967   6.5480   6.5483   6.5753   6.5754   7.0962   7.0963

          k =-0.0023-0.5000 0.0000 (  5128 PWs)   bands (ev):

   -64.8301 -64.8297 -64.8253 -64.8247 -31.6112 -31.6107 -31.6101 -31.6099
   -31.6024 -31.6021 -31.5921 -31.5919 -31.5807 -31.5805 -31.5801 -31.5799
    -8.6457  -8.6454  -7.8563  -7.8559   4.8467   4.8479   4.8481   4.8481
     5.1231   5.1235   5.9733   5.9751   6.9685   6.9689   6.9689   6.9691

          k =-0.0023-0.5000 0.2500 (  5154 PWs)   bands (ev):

   -64.8294 -64.8290 -64.8260 -64.8254 -31.6179 -31.6176 -31.6107 -31.6105
   -31.6071 -31.6069 -31.5855 -31.5853 -31.5840 -31.5838 -31.5754 -31.5752
    -8.5093  -8.5091  -7.9467  -7.9463   4.4180   4.4183   4.7515   4.7518
     5.0969   5.0971   6.5480   6.5489   6.5762   6.5763   7.0942   7.0947

          k =-0.0023-0.5000-0.5000 (  5180 PWs)   bands (ev):

   -64.8278 -64.8277 -64.8276 -64.8267 -31.6196 -31.6193 -31.6192 -31.6191
   -31.5974 -31.5971 -31.5964 -31.5962 -31.5763 -31.5761 -31.5757 -31.5757
    -8.2101  -8.2097  -8.2001  -8.1998   4.2841   4.2844   4.3026   4.3026
     5.7565   5.7566   5.7803   5.7804   7.0586   7.0590   7.0686   7.0693

          k = 0.2512 0.2512 0.0000 (  5159 PWs)   bands (ev):

   -64.8321 -64.8266 -64.8262 -64.8250 -31.6198 -31.6191 -31.6189 -31.6108
   -31.5951 -31.5946 -31.5945 -31.5885 -31.5883 -31.5859 -31.5759 -31.5670
    -8.9610  -8.0693  -8.0691  -7.8843   4.1641   4.1642   4.3339   5.1002
     5.8638   6.0481   6.0485   6.4950   6.4953   6.5360   7.1822   7.4728

          k = 0.2512 0.2512 0.2500 (  5158 PWs)   bands (ev):

   -64.8311 -64.8266 -64.8265 -64.8257 -31.6264 -31.6234 -31.6232 -31.6076
   -31.5965 -31.5964 -31.5955 -31.5837 -31.5837 -31.5821 -31.5724 -31.5696
    -8.7911  -8.0372  -8.0359  -8.0239   3.9946   3.9964   4.0197   5.1097
     5.8426   5.8521   5.8694   6.6596   6.7105   6.7107   7.3201   7.3600

          k = 0.2512 0.2512-0.5000 (  5152 PWs)   bands (ev):

   -64.8289 -64.8284 -64.8266 -64.8259 -31.6262 -31.6260 -31.6230 -31.6229
   -31.5968 -31.5966 -31.5800 -31.5799 -31.5793 -31.5793 -31.5762 -31.5760
    -8.3940  -8.3938  -8.0023  -8.0022   3.8118   3.8124   4.2199   4.2202
     5.8430   5.8434   6.7449   6.7453   6.8742   6.8749   6.9749   6.9752

          k = 0.2477-0.4989 0.0000 (  5153 PWs)   bands (ev):

   -64.8294 -64.8290 -64.8260 -64.8254 -31.6210 -31.6146 -31.6137 -31.6072
   -31.6072 -31.6069 -31.5863 -31.5853 -31.5850 -31.5816 -31.5776 -31.5734
    -8.5166  -8.5017  -7.9547  -7.9383   4.4082   4.4287   4.7472   4.7558
     5.0881   5.1049   6.5163   6.5644   6.5812   6.5878   7.0705   7.1193

          k = 0.2477-0.4989 0.2500 (  5137 PWs)   bands (ev):

   -64.8289 -64.8285 -64.8265 -64.8259 -31.6305 -31.6264 -31.6240 -31.6187
   -31.5936 -31.5931 -31.5822 -31.5802 -31.5794 -31.5788 -31.5770 -31.5753
    -8.4061  -8.3913  -8.0047  -7.9888   3.8054   3.8378   4.1861   4.2104
     5.8228   5.8377   6.7177   6.7646   6.8521   6.8842   7.0105   7.0252

          k = 0.2477-0.4989-0.5000 (  5144 PWs)   bands (ev):

   -64.8278 -64.8277 -64.8276 -64.8267 -31.6341 -31.6340 -31.6299 -31.6297
   -31.5848 -31.5846 -31.5823 -31.5821 -31.5757 -31.5755 -31.5748 -31.5748
    -8.1759  -8.1756  -8.1591  -8.1590   3.6220   3.6223   3.6591   3.6591
     6.4984   6.4987   6.5508   6.5510   7.0567   7.0569   7.0730   7.0735

          k = 0.2488-0.2488 0.0000 (  5151 PWs)   bands (ev):

   -64.8322 -64.8264 -64.8261 -64.8251 -31.6236 -31.6235 -31.6199 -31.6050
   -31.5943 -31.5942 -31.5900 -31.5889 -31.5848 -31.5847 -31.5758 -31.5715
    -8.9705  -8.0576  -8.0575  -7.8956   4.1596   4.1597   4.3239   5.0426
     5.8313   6.0634   6.0637   6.4752   6.4754   6.6332   7.1643   7.5392

          k = 0.2488-0.2488 0.2500 (  5146 PWs)   bands (ev):

   -64.8312 -64.8265 -64.8264 -64.8257 -31.6280 -31.6278 -31.6245 -31.6047
   -31.5921 -31.5916 -31.5913 -31.5860 -31.5840 -31.5839 -31.5740 -31.5705
    -8.8007  -8.0369  -8.0244  -8.0234   3.9815   4.0052   4.0066   5.0693
     5.8229   5.8405   5.8495   6.7010   6.7012   6.7529   7.3510   7.3918

          k = 0.2488-0.2488-0.5000 (  5128 PWs)   bands (ev):

   -64.8290 -64.8286 -64.8264 -64.8258 -31.6307 -31.6306 -31.6201 -31.6200
   -31.5899 -31.5895 -31.5818 -31.5818 -31.5801 -31.5798 -31.5765 -31.5765
    -8.4039  -8.4037  -7.9909  -7.9909   3.8307   3.8312   4.1764   4.1770
     5.8180   5.8185   6.7359   6.7361   6.8635   6.8639   7.0582   7.0585

          k =-0.5023-0.5023 0.0000 (  5188 PWs)   bands (ev):

   -64.8279 -64.8277 -64.8276 -64.8267 -31.6231 -31.6228 -31.6162 -31.6158
   -31.5973 -31.5971 -31.5971 -31.5968 -31.5778 -31.5775 -31.5744 -31.5742
    -8.2162  -8.2159  -8.1939  -8.1938   4.2869   4.2870   4.2997   4.2998
     5.7539   5.7544   5.7814   5.7816   7.0268   7.0270   7.1020   7.1022

          k =-0.5023-0.5023 0.2500 (  5140 PWs)   bands (ev):

   -64.8279 -64.8277 -64.8276 -64.8266 -31.6342 -31.6340 -31.6298 -31.6296
   -31.5841 -31.5841 -31.5821 -31.5821 -31.5779 -31.5776 -31.5733 -31.5730
    -8.1785  -8.1782  -8.1565  -8.1564   3.6264   3.6266   3.6545   3.6546
     6.5204   6.5208   6.5285   6.5287   7.0279   7.0281   7.1026   7.1028

          k =-0.5023-0.5023-0.5000 (  5136 PWs)   bands (ev):

   -64.8278 -64.8277 -64.8276 -64.8266 -31.6408 -31.6407 -31.6390 -31.6389
   -31.5772 -31.5769 -31.5759 -31.5759 -31.5745 -31.5745 -31.5736 -31.5733
    -8.1403  -8.1400  -8.1185  -8.1184   3.2003   3.2005   3.2351   3.2351
     7.0287   7.0288   7.0642   7.0643   7.0664   7.0668   7.1035   7.1037

          k = 0.2500 0.0012-0.2500 (  5153 PWs)   bands (ev):

   -64.8321 -64.8265 -64.8261 -64.8251 -31.6215 -31.6213 -31.6202 -31.6072
   -31.5948 -31.5940 -31.5930 -31.5876 -31.5867 -31.5863 -31.5756 -31.5687
    -8.9658  -8.0672  -8.0598  -7.8897   4.1554   4.1680   4.3292   5.0715
     5.8471   6.0451   6.0636   6.4826   6.4916   6.5840   7.1734   7.5066

          k = 0.2512 0.2512-0.2500 (  5158 PWs)   bands (ev):

   -64.8311 -64.8266 -64.8265 -64.8257 -31.6264 -31.6234 -31.6232 -31.6076
   -31.5965 -31.5964 -31.5955 -31.5837 -31.5837 -31.5821 -31.5724 -31.5696
    -8.7911  -8.0372  -8.0359  -8.0239   3.9946   3.9964   4.0197   5.1097
     5.8426   5.8521   5.8694   6.6596   6.7105   6.7107   7.3201   7.3600

          k =-0.4989 0.2477-0.2500 (  5137 PWs)   bands (ev):

   -64.8289 -64.8285 -64.8265 -64.8259 -31.6305 -31.6264 -31.6240 -31.6187
   -31.5936 -31.5931 -31.5822 -31.5802 -31.5794 -31.5788 -31.5770 -31.5753
    -8.4061  -8.3913  -8.0047  -7.9888   3.8054   3.8378   4.1861   4.2104
     5.8228   5.8377   6.7177   6.7646   6.8521   6.8842   7.0105   7.0252

     highest occupied level (ev):     7.7066

!    total energy              =    -608.39253806 Ry
     Harris-Foulkes estimate   =    -608.39253806 Ry
     estimated scf accuracy    <          1.3E-09 Ry

     The total energy is the sum of the following terms:

     one-electron contribution =    -303.55335466 Ry
     hartree contribution      =     168.06572553 Ry
     xc contribution           =     -97.84624989 Ry
     ewald contribution        =    -375.05865904 Ry

     convergence has been achieved in   9 iterations

     Forces acting on atoms (cartesian axes, Ry/au):

     atom    1 type  1   force =     0.00114163    0.00114163   -0.00001190
     atom    2 type  1   force =    -0.00113980    0.00104265    0.00001147
     atom    3 type  1   force =     0.00104265   -0.00113980    0.00001147
     atom    4 type  1   force =    -0.00099203   -0.00099203   -0.00001117
     atom    5 type  2   force =     0.00134113   -0.00142717   -0.00001343
     atom    6 type  2   force =    -0.00142717    0.00134113   -0.00001343
     atom    7 type  2   force =     0.00138192    0.00138192    0.00001353
     atom    8 type  2   force =    -0.00134833   -0.00134833    0.00001347

     Total force =     0.004947     Total SCF correction =     0.000006


     Computing stress (Cartesian axis) and pressure

          total   stress  (Ry/bohr**3)                   (kbar)     P=  -68.15
  -0.00046313   0.00008935  -0.00000000        -68.13     13.14     -0.00
   0.00008935  -0.00046313  -0.00000000         13.14    -68.13     -0.00
  -0.00000000  -0.00000000  -0.00046358         -0.00     -0.00    -68.20


     BFGS Geometry Optimization

     number of scf cycles    =   1
     number of bfgs steps    =   0

     energy   new            =    -608.3925380610 Ry

     new trust radius        =       0.0019584713 bohr
     new conv_thr            =       0.0000000100 Ry


ATOMIC_POSITIONS (alat)
Mg       0.000141911   0.000141911  -0.000001479
Mg      -0.000141682   0.500129606   0.500001426
Mg       0.500129606  -0.000141682   0.500001426
Mg       0.499876686   0.499876686  -0.000001388
O        0.500166708  -0.000177404  -0.000001670
O       -0.000177404   0.500166708  -0.000001670
O        0.000171779   0.000171779   0.500001682
O        0.499832396   0.499832396   0.500001674



     Writing output data file MgO.-0.009286.70.4.save
     NEW-OLD atomic charge density approx. for the potential

     Check: negative/imaginary core charge=   -0.000007    0.000000

     total cpu time spent up to now is       10.4 secs

     per-process dynamical memory:    49.5 Mb

     Self-consistent Calculation

     iteration #  1     ecut=    70.00 Ry     beta=0.70
     Davidson diagonalization with overlap
     ethr =  1.00E-06,  avg # of iterations =  3.0

     Threshold (ethr) on eigenvalues was too large:
     Diagonalizing with lowered threshold

     Davidson diagonalization with overlap
     ethr =  2.48E-09,  avg # of iterations =  2.5

     total cpu time spent up to now is       12.8 secs

     total energy              =    -608.39256055 Ry
     Harris-Foulkes estimate   =    -608.39256147 Ry
     estimated scf accuracy    <       0.00000161 Ry

     iteration #  2     ecut=    70.00 Ry     beta=0.70
     Davidson diagonalization with overlap
     ethr =  2.51E-09,  avg # of iterations =  2.0

     total cpu time spent up to now is       13.8 secs

     total energy              =    -608.39256083 Ry
     Harris-Foulkes estimate   =    -608.39256084 Ry
     estimated scf accuracy    <       0.00000004 Ry

     iteration #  3     ecut=    70.00 Ry     beta=0.70
     Davidson diagonalization with overlap
     ethr =  6.02E-11,  avg # of iterations =  2.0

     total cpu time spent up to now is       14.8 secs

     End of self-consistent calculation

          k = 0.0000 0.0000 0.0000 (  5149 PWs)   bands (ev):

   -64.8350 -64.8255 -64.8255 -64.8247 -31.6313 -31.6313 -31.6312 -31.5952
   -31.5938 -31.5938 -31.5931 -31.5930 -31.5917 -31.5671 -31.5655 -31.5640
    -9.3643  -7.9136  -7.9131  -7.9130   3.7584   3.7589   3.7591   6.3266
     6.3802   6.3804   6.3804   6.3808   6.4348   7.6391   7.6722   7.7066

          k = 0.0000 0.0000 0.2500 (  5153 PWs)   bands (ev):

   -64.8335 -64.8267 -64.8255 -64.8249 -31.6256 -31.6255 -31.6208 -31.5981
   -31.5980 -31.5945 -31.5944 -31.5911 -31.5869 -31.5785 -31.5737 -31.5693
    -9.1559  -8.1284  -7.8846  -7.8845   4.0480   4.0491   4.0966   5.8581
     5.8585   6.1710   6.1713   6.4918   6.5957   6.6590   7.4133   7.4891

          k = 0.0000 0.0000-0.5000 (  5130 PWs)   bands (ev):

   -64.8304 -64.8299 -64.8255 -64.8249 -31.6147 -31.6145 -31.6074 -31.6071
   -31.6022 -31.6021 -31.5915 -31.5914 -31.5832 -31.5829 -31.5786 -31.5783
    -8.6457  -8.6456  -7.8558  -7.8558   4.8409   4.8415   4.8534   4.8540
     5.1231   5.1233   5.9738   5.9742   6.9234   6.9236   7.0146   7.0149

          k = 0.0012 0.2500 0.0000 (  5167 PWs)   bands (ev):

   -64.8335 -64.8267 -64.8255 -64.8249 -31.6254 -31.6251 -31.6218 -31.5999
   -31.5987 -31.5937 -31.5933 -31.5895 -31.5891 -31.5801 -31.5720 -31.5710
    -9.1559  -8.1280  -7.8850  -7.8846   4.0486   4.0489   4.0956   5.8517
     5.8585   6.1709   6.1779   6.5432   6.5433   6.6583   7.4503   7.4518

          k = 0.0012 0.2500 0.2500 (  5153 PWs)   bands (ev):

   -64.8323 -64.8267 -64.8263 -64.8253 -31.6217 -31.6214 -31.6204 -31.6073
   -31.5949 -31.5942 -31.5932 -31.5877 -31.5868 -31.5864 -31.5757 -31.5688
    -8.9657  -8.0666  -8.0603  -7.8896   4.1564   4.1670   4.3292   5.0716
     5.8471   6.0465   6.0622   6.4832   6.4911   6.5840   7.1735   7.5067

          k = 0.0012 0.2500-0.5000 (  5148 PWs)   bands (ev):

   -64.8296 -64.8292 -64.8262 -64.8256 -31.6185 -31.6183 -31.6104 -31.6104
   -31.6068 -31.6065 -31.5856 -31.5853 -31.5841 -31.5840 -31.5754 -31.5752
    -8.5094  -8.5092  -7.9463  -7.9462   4.4187   4.4188   4.7512   4.7514
     5.0966   5.0967   6.5481   6.5484   6.5753   6.5754   7.0962   7.0963

          k =-0.0023-0.5000 0.0000 (  5128 PWs)   bands (ev):

   -64.8303 -64.8299 -64.8255 -64.8249 -31.6113 -31.6109 -31.6103 -31.6101
   -31.6026 -31.6023 -31.5923 -31.5921 -31.5808 -31.5806 -31.5802 -31.5800
    -8.6456  -8.6453  -7.8562  -7.8559   4.8469   4.8480   4.8480   4.8482
     5.1232   5.1235   5.9734   5.9749   6.9686   6.9689   6.9689   6.9691

          k =-0.0023-0.5000 0.2500 (  5154 PWs)   bands (ev):

   -64.8296 -64.8292 -64.8262 -64.8256 -31.6180 -31.6178 -31.6109 -31.6107
   -31.6072 -31.6070 -31.5857 -31.5855 -31.5841 -31.5840 -31.5755 -31.5754
    -8.5093  -8.5090  -7.9466  -7.9463   4.4181   4.4183   4.7515   4.7518
     5.0970   5.0971   6.5480   6.5489   6.5762   6.5763   7.0943   7.0947

          k =-0.0023-0.5000-0.5000 (  5180 PWs)   bands (ev):

   -64.8280 -64.8279 -64.8278 -64.8269 -31.6197 -31.6195 -31.6194 -31.6193
   -31.5975 -31.5972 -31.5966 -31.5964 -31.5764 -31.5762 -31.5759 -31.5759
    -8.2093  -8.2089  -8.2008  -8.2006   4.2856   4.2859   4.3012   4.3013
     5.7584   5.7584   5.7786   5.7786   7.0594   7.0597   7.0679   7.0686

          k = 0.2512 0.2512 0.0000 (  5159 PWs)   bands (ev):

   -64.8323 -64.8268 -64.8264 -64.8252 -31.6199 -31.6193 -31.6191 -31.6109
   -31.5952 -31.5947 -31.5947 -31.5886 -31.5885 -31.5860 -31.5761 -31.5671
    -8.9609  -8.0693  -8.0691  -7.8843   4.1641   4.1642   4.3339   5.1003
     5.8638   6.0481   6.0486   6.4951   6.4953   6.5360   7.1823   7.4728

          k = 0.2512 0.2512 0.2500 (  5158 PWs)   bands (ev):

   -64.8313 -64.8268 -64.8267 -64.8259 -31.6265 -31.6235 -31.6233 -31.6078
   -31.5966 -31.5966 -31.5957 -31.5839 -31.5839 -31.5822 -31.5725 -31.5698
    -8.7911  -8.0369  -8.0359  -8.0242   3.9951   3.9964   4.0193   5.1097
     5.8444   5.8521   5.8677   6.6596   6.7106   6.7107   7.3201   7.3601

          k = 0.2512 0.2512-0.5000 (  5152 PWs)   bands (ev):

   -64.8290 -64.8286 -64.8268 -64.8261 -31.6264 -31.6262 -31.6232 -31.6231
   -31.5970 -31.5967 -31.5801 -31.5800 -31.5795 -31.5794 -31.5764 -31.5761
    -8.3939  -8.3938  -8.0023  -8.0022   3.8120   3.8124   4.2199   4.2201
     5.8431   5.8434   6.7450   6.7453   6.8743   6.8748   6.9750   6.9751

          k = 0.2477-0.4989 0.0000 (  5153 PWs)   bands (ev):

   -64.8296 -64.8292 -64.8262 -64.8256 -31.6212 -31.6147 -31.6138 -31.6074
   -31.6073 -31.6070 -31.5864 -31.5855 -31.5852 -31.5817 -31.5778 -31.5735
    -8.5166  -8.5017  -7.9546  -7.9383   4.4083   4.4287   4.7472   4.7558
     5.0882   5.1050   6.5163   6.5644   6.5812   6.5879   7.0705   7.1193

          k = 0.2477-0.4989 0.2500 (  5137 PWs)   bands (ev):

   -64.8291 -64.8287 -64.8267 -64.8261 -31.6306 -31.6266 -31.6241 -31.6188
   -31.5937 -31.5932 -31.5824 -31.5803 -31.5796 -31.5789 -31.5771 -31.5755
    -8.4061  -8.3912  -8.0046  -7.9888   3.8055   3.8379   4.1861   4.2104
     5.8229   5.8378   6.7177   6.7646   6.8521   6.8843   7.0105   7.0252

          k = 0.2477-0.4989-0.5000 (  5144 PWs)   bands (ev):

   -64.8280 -64.8279 -64.8278 -64.8269 -31.6343 -31.6342 -31.6300 -31.6299
   -31.5850 -31.5848 -31.5825 -31.5823 -31.5759 -31.5757 -31.5750 -31.5750
    -8.1756  -8.1754  -8.1593  -8.1592   3.6224   3.6226   3.6587   3.6588
     6.4989   6.4991   6.5505   6.5506   7.0570   7.0571   7.0728   7.0733

          k = 0.2488-0.2488 0.0000 (  5151 PWs)   bands (ev):

   -64.8324 -64.8266 -64.8262 -64.8253 -31.6238 -31.6236 -31.6201 -31.6051
   -31.5945 -31.5944 -31.5901 -31.5891 -31.5850 -31.5848 -31.5760 -31.5716
    -8.9704  -8.0575  -8.0574  -7.8955   4.1596   4.1598   4.3239   5.0427
     5.8314   6.0634   6.0637   6.4753   6.4754   6.6332   7.1643   7.5392

          k = 0.2488-0.2488 0.2500 (  5146 PWs)   bands (ev):

   -64.8314 -64.8267 -64.8266 -64.8258 -31.6281 -31.6280 -31.6246 -31.6049
   -31.5922 -31.5917 -31.5915 -31.5862 -31.5841 -31.5840 -31.5741 -31.5707
    -8.8006  -8.0365  -8.0244  -8.0236   3.9820   4.0052   4.0062   5.0694
     5.8247   5.8405   5.8478   6.7011   6.7012   6.7529   7.3511   7.3918

          k = 0.2488-0.2488-0.5000 (  5128 PWs)   bands (ev):

   -64.8292 -64.8288 -64.8266 -64.8260 -31.6309 -31.6307 -31.6202 -31.6202
   -31.5900 -31.5897 -31.5820 -31.5820 -31.5803 -31.5800 -31.5767 -31.5766
    -8.4038  -8.4037  -7.9909  -7.9909   3.8309   3.8312   4.1764   4.1769
     5.8181   5.8185   6.7360   6.7362   6.8636   6.8638   7.0583   7.0585

          k =-0.5023-0.5023 0.0000 (  5188 PWs)   bands (ev):

   -64.8281 -64.8279 -64.8278 -64.8269 -31.6232 -31.6230 -31.6163 -31.6160
   -31.5974 -31.5973 -31.5973 -31.5970 -31.5780 -31.5777 -31.5746 -31.5743
    -8.2161  -8.2159  -8.1938  -8.1937   4.2870   4.2870   4.2997   4.2999
     5.7539   5.7544   5.7814   5.7817   7.0268   7.0270   7.1020   7.1022

          k =-0.5023-0.5023 0.2500 (  5140 PWs)   bands (ev):

   -64.8280 -64.8279 -64.8277 -64.8268 -31.6343 -31.6342 -31.6299 -31.6298
   -31.5843 -31.5843 -31.5823 -31.5823 -31.5781 -31.5778 -31.5734 -31.5732
    -8.1784  -8.1782  -8.1565  -8.1564   3.6264   3.6266   3.6545   3.6546
     6.5205   6.5208   6.5285   6.5288   7.0279   7.0281   7.1026   7.1028

          k =-0.5023-0.5023-0.5000 (  5136 PWs)   bands (ev):

   -64.8280 -64.8279 -64.8277 -64.8268 -31.6410 -31.6408 -31.6392 -31.6390
   -31.5773 -31.5770 -31.5761 -31.5761 -31.5746 -31.5746 -31.5737 -31.5735
    -8.1402  -8.1400  -8.1184  -8.1184   3.2004   3.2006   3.2351   3.2351
     7.0287   7.0288   7.0642   7.0643   7.0665   7.0669   7.1036   7.1037

          k = 0.2500 0.0012-0.2500 (  5153 PWs)   bands (ev):

   -64.8323 -64.8267 -64.8263 -64.8253 -31.6217 -31.6214 -31.6204 -31.6073
   -31.5949 -31.5942 -31.5932 -31.5877 -31.5868 -31.5864 -31.5757 -31.5688
    -8.9657  -8.0666  -8.0603  -7.8896   4.1564   4.1670   4.3292   5.0716
     5.8471   6.0465   6.0622   6.4832   6.4911   6.5840   7.1735   7.5067

          k = 0.2512 0.2512-0.2500 (  5158 PWs)   bands (ev):

   -64.8313 -64.8268 -64.8267 -64.8259 -31.6265 -31.6235 -31.6233 -31.6078
   -31.5966 -31.5966 -31.5957 -31.5839 -31.5839 -31.5822 -31.5725 -31.5698
    -8.7911  -8.0369  -8.0359  -8.0242   3.9951   3.9964   4.0193   5.1097
     5.8444   5.8521   5.8677   6.6596   6.7106   6.7107   7.3201   7.3601

          k =-0.4989 0.2477-0.2500 (  5137 PWs)   bands (ev):

   -64.8291 -64.8287 -64.8267 -64.8261 -31.6306 -31.6266 -31.6241 -31.6188
   -31.5937 -31.5932 -31.5824 -31.5803 -31.5796 -31.5789 -31.5771 -31.5755
    -8.4061  -8.3912  -8.0046  -7.9888   3.8055   3.8379   4.1861   4.2104
     5.8229   5.8378   6.7177   6.7646   6.8521   6.8843   7.0105   7.0252

     highest occupied level (ev):     7.7066

!    total energy              =    -608.39256083 Ry
     Harris-Foulkes estimate   =    -608.39256083 Ry
     estimated scf accuracy    <          2.8E-09 Ry

     The total energy is the sum of the following terms:

     one-electron contribution =    -303.55384565 Ry
     hartree contribution      =     168.06601576 Ry
     xc contribution           =     -97.84625733 Ry
     ewald contribution        =    -375.05847361 Ry

     convergence has been achieved in   3 iterations

     Forces acting on atoms (cartesian axes, Ry/au):

     atom    1 type  1   force =     0.00100386    0.00100386   -0.00000679
     atom    2 type  1   force =    -0.00102542    0.00096874    0.00000670
     atom    3 type  1   force =     0.00096874   -0.00102542    0.00000670
     atom    4 type  1   force =    -0.00091373   -0.00091373   -0.00000714
     atom    5 type  2   force =     0.00115360   -0.00119893   -0.00000950
     atom    6 type  2   force =    -0.00119893    0.00115360   -0.00000950
     atom    7 type  2   force =     0.00116346    0.00116346    0.00000943
     atom    8 type  2   force =    -0.00115159   -0.00115159    0.00001007

     Total force =     0.004308     Total SCF correction =     0.000072


     Computing stress (Cartesian axis) and pressure

          total   stress  (Ry/bohr**3)                   (kbar)     P=  -68.11
  -0.00046286   0.00008935  -0.00000000        -68.09     13.14     -0.00
   0.00008935  -0.00046286  -0.00000000         13.14    -68.09     -0.00
  -0.00000000  -0.00000000  -0.00046322         -0.00     -0.00    -68.14


     number of scf cycles    =   2
     number of bfgs steps    =   1

     energy   old            =    -608.3925380610 Ry
     energy   new            =    -608.3925608314 Ry

     CASE: energy  _new < energy  _old


     WARNING: bfgs curvature condition failed, Theta= 0.919
     new trust radius        =       0.0021543184 bohr
     new conv_thr            =       0.0000000002 Ry


ATOMIC_POSITIONS (alat)
Mg       0.000302865   0.000302865  -0.000002633
Mg      -0.000305685   0.500284017   0.500002560
Mg       0.500284017  -0.000305685   0.500002560
Mg       0.499730911   0.499730911  -0.000002580
O        0.500352122  -0.000370618  -0.000003233
O       -0.000370618   0.500352122  -0.000003233
O        0.000359230   0.000359230   0.500003238
O        0.499647158   0.499647158   0.500003321



     Writing output data file MgO.-0.009286.70.4.save
     NEW-OLD atomic charge density approx. for the potential

     Check: negative/imaginary core charge=   -0.000007    0.000000

     total cpu time spent up to now is       15.4 secs

     per-process dynamical memory:    49.5 Mb

     Self-consistent Calculation

     iteration #  1     ecut=    70.00 Ry     beta=0.70
     Davidson diagonalization with overlap
     ethr =  1.00E-06,  avg # of iterations =  3.0

     Threshold (ethr) on eigenvalues was too large:
     Diagonalizing with lowered threshold

     Davidson diagonalization with overlap
     ethr =  2.93E-09,  avg # of iterations =  2.5

     total cpu time spent up to now is       17.8 secs

     total energy              =    -608.39258208 Ry
     Harris-Foulkes estimate   =    -608.39258314 Ry
     estimated scf accuracy    <       0.00000189 Ry

     iteration #  2     ecut=    70.00 Ry     beta=0.70
     Davidson diagonalization with overlap
     ethr =  2.95E-09,  avg # of iterations =  2.0

     total cpu time spent up to now is       18.8 secs

     total energy              =    -608.39258240 Ry
     Harris-Foulkes estimate   =    -608.39258241 Ry
     estimated scf accuracy    <       0.00000005 Ry

     iteration #  3     ecut=    70.00 Ry     beta=0.70
     Davidson diagonalization with overlap
     ethr =  7.45E-11,  avg # of iterations =  2.1

     total cpu time spent up to now is       19.8 secs

     total energy              =    -608.39258240 Ry
     Harris-Foulkes estimate   =    -608.39258241 Ry
     estimated scf accuracy    <          5.5E-09 Ry

     iteration #  4     ecut=    70.00 Ry     beta=0.70
     Davidson diagonalization with overlap
     ethr =  8.59E-12,  avg # of iterations =  3.0

     total cpu time spent up to now is       20.9 secs

     total energy              =    -608.39258241 Ry
     Harris-Foulkes estimate   =    -608.39258241 Ry
     estimated scf accuracy    <          5.6E-09 Ry

     iteration #  5     ecut=    70.00 Ry     beta=0.70
     Davidson diagonalization with overlap
     ethr =  8.59E-12,  avg # of iterations =  2.7

     total cpu time spent up to now is       21.9 secs

     End of self-consistent calculation

          k = 0.0000 0.0000 0.0000 (  5149 PWs)   bands (ev):

   -64.8349 -64.8255 -64.8254 -64.8247 -31.6313 -31.6313 -31.6312 -31.5952
   -31.5938 -31.5937 -31.5931 -31.5930 -31.5916 -31.5671 -31.5655 -31.5640
    -9.3644  -7.9136  -7.9131  -7.9131   3.7583   3.7589   3.7590   6.3266
     6.3802   6.3803   6.3804   6.3807   6.4348   7.6390   7.6722   7.7065

          k = 0.0000 0.0000 0.2500 (  5153 PWs)   bands (ev):

   -64.8335 -64.8267 -64.8254 -64.8248 -31.6255 -31.6255 -31.6207 -31.5980
   -31.5979 -31.5944 -31.5943 -31.5911 -31.5869 -31.5785 -31.5737 -31.5692
    -9.1560  -8.1284  -7.8847  -7.8846   4.0483   4.0491   4.0962   5.8582
     5.8584   6.1709   6.1713   6.4917   6.5956   6.6589   7.4132   7.4890

          k = 0.0000 0.0000-0.5000 (  5130 PWs)   bands (ev):

   -64.8303 -64.8298 -64.8254 -64.8249 -31.6147 -31.6144 -31.6074 -31.6071
   -31.6022 -31.6021 -31.5914 -31.5913 -31.5831 -31.5828 -31.5785 -31.5783
    -8.6458  -8.6457  -7.8559  -7.8558   4.8410   4.8414   4.8536   4.8539
     5.1229   5.1232   5.9738   5.9742   6.9233   6.9235   7.0146   7.0148

          k = 0.0012 0.2500 0.0000 (  5167 PWs)   bands (ev):

   -64.8335 -64.8267 -64.8254 -64.8248 -31.6254 -31.6251 -31.6218 -31.5999
   -31.5987 -31.5936 -31.5933 -31.5894 -31.5890 -31.5801 -31.5719 -31.5709
    -9.1559  -8.1281  -7.8851  -7.8847   4.0486   4.0489   4.0956   5.8518
     5.8585   6.1708   6.1776   6.5432   6.5433   6.6583   7.4503   7.4517

          k = 0.0012 0.2500 0.2500 (  5153 PWs)   bands (ev):

   -64.8323 -64.8267 -64.8263 -64.8252 -31.6216 -31.6214 -31.6203 -31.6073
   -31.5949 -31.5942 -31.5932 -31.5877 -31.5868 -31.5864 -31.5757 -31.5688
    -8.9658  -8.0660  -8.0610  -7.8897   4.1574   4.1659   4.3291   5.0716
     5.8470   6.0480   6.0607   6.4837   6.4905   6.5839   7.1734   7.5066

          k = 0.0012 0.2500-0.5000 (  5148 PWs)   bands (ev):

   -64.8296 -64.8291 -64.8261 -64.8255 -31.6184 -31.6183 -31.6104 -31.6104
   -31.6067 -31.6065 -31.5856 -31.5853 -31.5840 -31.5840 -31.5754 -31.5752
    -8.5094  -8.5093  -7.9464  -7.9463   4.4187   4.4188   4.7511   4.7513
     5.0966   5.0966   6.5481   6.5484   6.5752   6.5752   7.0961   7.0962

          k =-0.0023-0.5000 0.0000 (  5128 PWs)   bands (ev):

   -64.8303 -64.8298 -64.8254 -64.8249 -31.6113 -31.6109 -31.6103 -31.6100
   -31.6025 -31.6023 -31.5922 -31.5921 -31.5808 -31.5806 -31.5802 -31.5800
    -8.6457  -8.6454  -7.8562  -7.8560   4.8470   4.8479   4.8479   4.8481
     5.1231   5.1235   5.9734   5.9747   6.9686   6.9688   6.9688   6.9690

          k =-0.0023-0.5000 0.2500 (  5154 PWs)   bands (ev):

   -64.8296 -64.8291 -64.8261 -64.8256 -31.6180 -31.6177 -31.6108 -31.6107
   -31.6072 -31.6070 -31.5856 -31.5854 -31.5841 -31.5840 -31.5755 -31.5753
    -8.5093  -8.5091  -7.9467  -7.9464   4.4182   4.4183   4.7514   4.7517
     5.0971   5.0971   6.5480   6.5487   6.5761   6.5763   7.0943   7.0946

          k =-0.0023-0.5000-0.5000 (  5180 PWs)   bands (ev):

   -64.8279 -64.8278 -64.8278 -64.8268 -31.6197 -31.6194 -31.6193 -31.6193
   -31.5974 -31.5971 -31.5967 -31.5964 -31.5764 -31.5762 -31.5759 -31.5759
    -8.2085  -8.2082  -8.2016  -8.2015   4.2871   4.2873   4.2997   4.2997
     5.7603   5.7604   5.7766   5.7766   7.0602   7.0605   7.0670   7.0676

          k = 0.2512 0.2512 0.0000 (  5159 PWs)   bands (ev):

   -64.8322 -64.8267 -64.8263 -64.8252 -31.6199 -31.6192 -31.6190 -31.6109
   -31.5952 -31.5947 -31.5946 -31.5886 -31.5884 -31.5860 -31.5761 -31.5671
    -8.9610  -8.0693  -8.0691  -7.8844   4.1641   4.1642   4.3339   5.1003
     5.8637   6.0481   6.0485   6.4951   6.4952   6.5359   7.1823   7.4727

          k = 0.2512 0.2512 0.2500 (  5158 PWs)   bands (ev):

   -64.8312 -64.8267 -64.8266 -64.8259 -31.6265 -31.6235 -31.6233 -31.6077
   -31.5966 -31.5965 -31.5958 -31.5838 -31.5838 -31.5822 -31.5725 -31.5697
    -8.7911  -8.0367  -8.0359  -8.0245   3.9955   3.9964   4.0189   5.1097
     5.8463   5.8521   5.8657   6.6596   6.7105   6.7107   7.3200   7.3600

          k = 0.2512 0.2512-0.5000 (  5152 PWs)   bands (ev):

   -64.8290 -64.8286 -64.8267 -64.8261 -31.6263 -31.6261 -31.6231 -31.6230
   -31.5969 -31.5967 -31.5801 -31.5800 -31.5794 -31.5794 -31.5763 -31.5761
    -8.3939  -8.3938  -8.0024  -8.0023   3.8120   3.8124   4.2199   4.2199
     5.8431   5.8434   6.7450   6.7453   6.8743   6.8746   6.9749   6.9750

          k = 0.2477-0.4989 0.0000 (  5153 PWs)   bands (ev):

   -64.8296 -64.8291 -64.8262 -64.8255 -31.6211 -31.6147 -31.6138 -31.6074
   -31.6073 -31.6070 -31.5864 -31.5854 -31.5851 -31.5817 -31.5777 -31.5735
    -8.5166  -8.5017  -7.9547  -7.9384   4.4083   4.4287   4.7472   4.7557
     5.0881   5.1049   6.5162   6.5644   6.5811   6.5878   7.0704   7.1192

          k = 0.2477-0.4989 0.2500 (  5137 PWs)   bands (ev):

   -64.8291 -64.8286 -64.8267 -64.8260 -31.6306 -31.6265 -31.6241 -31.6188
   -31.5937 -31.5932 -31.5823 -31.5803 -31.5795 -31.5789 -31.5771 -31.5755
    -8.4061  -8.3913  -8.0047  -7.9889   3.8054   3.8379   4.1861   4.2104
     5.8229   5.8378   6.7176   6.7645   6.8520   6.8842   7.0104   7.0251

          k = 0.2477-0.4989-0.5000 (  5144 PWs)   bands (ev):

   -64.8280 -64.8278 -64.8277 -64.8268 -31.6343 -31.6341 -31.6300 -31.6299
   -31.5850 -31.5847 -31.5824 -31.5823 -31.5758 -31.5757 -31.5750 -31.5749
    -8.1755  -8.1753  -8.1595  -8.1595   3.6227   3.6229   3.6584   3.6584
     6.4993   6.4994   6.5501   6.5502   7.0572   7.0572   7.0726   7.0729

          k = 0.2488-0.2488 0.0000 (  5151 PWs)   bands (ev):

   -64.8324 -64.8266 -64.8262 -64.8253 -31.6237 -31.6236 -31.6200 -31.6051
   -31.5945 -31.5944 -31.5901 -31.5890 -31.5850 -31.5848 -31.5759 -31.5716
    -8.9705  -8.0576  -8.0575  -7.8956   4.1595   4.1598   4.3239   5.0427
     5.8313   6.0633   6.0637   6.4752   6.4753   6.6332   7.1643   7.5392

          k = 0.2488-0.2488 0.2500 (  5146 PWs)   bands (ev):

   -64.8314 -64.8267 -64.8266 -64.8258 -31.6281 -31.6279 -31.6246 -31.6048
   -31.5921 -31.5917 -31.5915 -31.5862 -31.5841 -31.5840 -31.5741 -31.5706
    -8.8007  -8.0363  -8.0245  -8.0239   3.9823   4.0051   4.0058   5.0693
     5.8266   5.8405   5.8459   6.7010   6.7012   6.7528   7.3510   7.3917

          k = 0.2488-0.2488-0.5000 (  5128 PWs)   bands (ev):

   -64.8292 -64.8287 -64.8266 -64.8259 -31.6308 -31.6307 -31.6202 -31.6201
   -31.5899 -31.5897 -31.5820 -31.5820 -31.5803 -31.5800 -31.5767 -31.5766
    -8.4038  -8.4037  -7.9910  -7.9909   3.8310   3.8312   4.1764   4.1768
     5.8182   5.8184   6.7359   6.7361   6.8636   6.8636   7.0583   7.0584

          k =-0.5023-0.5023 0.0000 (  5188 PWs)   bands (ev):

   -64.8280 -64.8279 -64.8277 -64.8268 -31.6232 -31.6229 -31.6162 -31.6160
   -31.5974 -31.5972 -31.5972 -31.5969 -31.5779 -31.5777 -31.5745 -31.5743
    -8.2161  -8.2160  -8.1939  -8.1938   4.2869   4.2869   4.2996   4.2999
     5.7539   5.7543   5.7813   5.7817   7.0267   7.0269   7.1019   7.1020

          k =-0.5023-0.5023 0.2500 (  5140 PWs)   bands (ev):

   -64.8280 -64.8278 -64.8277 -64.8268 -31.6343 -31.6341 -31.6299 -31.6297
   -31.5842 -31.5842 -31.5822 -31.5822 -31.5780 -31.5778 -31.5734 -31.5731
    -8.1785  -8.1783  -8.1565  -8.1564   3.6264   3.6265   3.6544   3.6546
     6.5205   6.5208   6.5284   6.5288   7.0279   7.0280   7.1026   7.1026

          k =-0.5023-0.5023-0.5000 (  5136 PWs)   bands (ev):

   -64.8280 -64.8278 -64.8277 -64.8268 -31.6409 -31.6408 -31.6392 -31.6390
   -31.5773 -31.5770 -31.5761 -31.5760 -31.5746 -31.5746 -31.5737 -31.5734
    -8.1403  -8.1401  -8.1185  -8.1185   3.2004   3.2005   3.2350   3.2351
     7.0286   7.0287   7.0642   7.0643   7.0665   7.0668   7.1035   7.1036

          k = 0.2500 0.0012-0.2500 (  5153 PWs)   bands (ev):

   -64.8323 -64.8267 -64.8263 -64.8252 -31.6216 -31.6214 -31.6203 -31.6073
   -31.5949 -31.5942 -31.5932 -31.5877 -31.5868 -31.5864 -31.5757 -31.5688
    -8.9658  -8.0660  -8.0610  -7.8897   4.1574   4.1659   4.3291   5.0716
     5.8470   6.0480   6.0607   6.4837   6.4905   6.5839   7.1734   7.5066

          k = 0.2512 0.2512-0.2500 (  5158 PWs)   bands (ev):

   -64.8312 -64.8267 -64.8266 -64.8259 -31.6265 -31.6235 -31.6233 -31.6077
   -31.5966 -31.5965 -31.5958 -31.5838 -31.5838 -31.5822 -31.5725 -31.5697
    -8.7911  -8.0367  -8.0359  -8.0245   3.9955   3.9964   4.0189   5.1097
     5.8463   5.8521   5.8657   6.6596   6.7105   6.7107   7.3200   7.3600

          k =-0.4989 0.2477-0.2500 (  5137 PWs)   bands (ev):

   -64.8291 -64.8286 -64.8267 -64.8260 -31.6306 -31.6265 -31.6241 -31.6188
   -31.5937 -31.5932 -31.5823 -31.5803 -31.5795 -31.5789 -31.5771 -31.5755
    -8.4061  -8.3913  -8.0047  -7.9889   3.8054   3.8379   4.1861   4.2104
     5.8229   5.8378   6.7176   6.7645   6.8520   6.8842   7.0104   7.0251

     highest occupied level (ev):     7.7065

!    total energy              =    -608.39258241 Ry
     Harris-Foulkes estimate   =    -608.39258241 Ry
     estimated scf accuracy    <          5.5E-11 Ry

     The total energy is the sum of the following terms:

     one-electron contribution =    -303.55426367 Ry
     hartree contribution      =     168.06627244 Ry
     xc contribution           =     -97.84629138 Ry
     ewald contribution        =    -375.05829980 Ry

     convergence has been achieved in   5 iterations

     Forces acting on atoms (cartesian axes, Ry/au):

     atom    1 type  1   force =     0.00081140    0.00081140   -0.00000568
     atom    2 type  1   force =    -0.00086301    0.00083832    0.00000589
     atom    3 type  1   force =     0.00083832   -0.00086301    0.00000589
     atom    4 type  1   force =    -0.00078155   -0.00078155   -0.00000613
     atom    5 type  2   force =     0.00092774   -0.00094071   -0.00000508
     atom    6 type  2   force =    -0.00094071    0.00092774   -0.00000508
     atom    7 type  2   force =     0.00091556    0.00091556    0.00000512
     atom    8 type  2   force =    -0.00090775   -0.00090775    0.00000507

     Total force =     0.003500     Total SCF correction =     0.000016


     Computing stress (Cartesian axis) and pressure

          total   stress  (Ry/bohr**3)                   (kbar)     P=  -68.10
  -0.00046282   0.00008935  -0.00000000        -68.08     13.14     -0.00
   0.00008935  -0.00046282  -0.00000000         13.14    -68.08     -0.00
  -0.00000000  -0.00000000  -0.00046308         -0.00     -0.00    -68.12


     number of scf cycles    =   3
     number of bfgs steps    =   2

     energy   old            =    -608.3925608314 Ry
     energy   new            =    -608.3925824062 Ry

     CASE: energy  _new < energy  _old

     new trust radius        =       0.0032314776 bohr
     new conv_thr            =       0.0000000002 Ry


ATOMIC_POSITIONS (alat)
Mg       0.000547553   0.000547553  -0.000004435
Mg      -0.000562931   0.500531554   0.500004399
Mg       0.500531554  -0.000562931   0.500004399
Mg       0.499499351   0.499499351  -0.000004478
O        0.500632941  -0.000657830  -0.000005010
O       -0.000657830   0.500632941  -0.000005010
O        0.000638493   0.000638493   0.500005024
O        0.499370869   0.499370869   0.500005111



     Writing output data file MgO.-0.009286.70.4.save
     NEW-OLD atomic charge density approx. for the potential

     Check: negative/imaginary core charge=   -0.000007    0.000000

     total cpu time spent up to now is       22.6 secs

     per-process dynamical memory:    49.5 Mb

     Self-consistent Calculation

     iteration #  1     ecut=    70.00 Ry     beta=0.70
     Davidson diagonalization with overlap
     ethr =  1.00E-06,  avg # of iterations =  3.0

     Threshold (ethr) on eigenvalues was too large:
     Diagonalizing with lowered threshold

     Davidson diagonalization with overlap
     ethr =  6.54E-09,  avg # of iterations =  2.2

     total cpu time spent up to now is       24.9 secs

     total energy              =    -608.39260648 Ry
     Harris-Foulkes estimate   =    -608.39260882 Ry
     estimated scf accuracy    <       0.00000420 Ry

     iteration #  2     ecut=    70.00 Ry     beta=0.70
     Davidson diagonalization with overlap
     ethr =  6.55E-09,  avg # of iterations =  2.0

     total cpu time spent up to now is       25.9 secs

     total energy              =    -608.39260718 Ry
     Harris-Foulkes estimate   =    -608.39260721 Ry
     estimated scf accuracy    <       0.00000010 Ry

     iteration #  3     ecut=    70.00 Ry     beta=0.70
     Davidson diagonalization with overlap
     ethr =  1.59E-10,  avg # of iterations =  2.0

     total cpu time spent up to now is       26.9 secs

     total energy              =    -608.39260720 Ry
     Harris-Foulkes estimate   =    -608.39260720 Ry
     estimated scf accuracy    <          6.7E-09 Ry

     iteration #  4     ecut=    70.00 Ry     beta=0.70
     Davidson diagonalization with overlap
     ethr =  1.05E-11,  avg # of iterations =  2.4

     total cpu time spent up to now is       27.9 secs

     total energy              =    -608.39260720 Ry
     Harris-Foulkes estimate   =    -608.39260720 Ry
     estimated scf accuracy    <          9.1E-10 Ry

     iteration #  5     ecut=    70.00 Ry     beta=0.70
     Davidson diagonalization with overlap
     ethr =  1.43E-12,  avg # of iterations =  3.0

     total cpu time spent up to now is       29.0 secs

     End of self-consistent calculation

          k = 0.0000 0.0000 0.0000 (  5149 PWs)   bands (ev):

   -64.8349 -64.8254 -64.8254 -64.8246 -31.6313 -31.6312 -31.6312 -31.5951
   -31.5938 -31.5937 -31.5930 -31.5930 -31.5916 -31.5670 -31.5655 -31.5639
    -9.3644  -7.9136  -7.9132  -7.9131   3.7583   3.7589   3.7589   6.3265
     6.3802   6.3803   6.3803   6.3807   6.4348   7.6390   7.6722   7.7065

          k = 0.0000 0.0000 0.2500 (  5153 PWs)   bands (ev):

   -64.8335 -64.8266 -64.8254 -64.8248 -31.6255 -31.6254 -31.6207 -31.5980
   -31.5979 -31.5944 -31.5943 -31.5911 -31.5869 -31.5784 -31.5736 -31.5692
    -9.1560  -8.1284  -7.8848  -7.8847   4.0487   4.0490   4.0958   5.8582
     5.8583   6.1709   6.1712   6.4917   6.5956   6.6589   7.4132   7.4889

          k = 0.0000 0.0000-0.5000 (  5130 PWs)   bands (ev):

   -64.8303 -64.8298 -64.8254 -64.8248 -31.6146 -31.6144 -31.6073 -31.6071
   -31.6021 -31.6021 -31.5914 -31.5913 -31.5831 -31.5828 -31.5785 -31.5782
    -8.6458  -8.6457  -7.8560  -7.8559   4.8412   4.8414   4.8537   4.8539
     5.1227   5.1230   5.9738   5.9741   6.9233   6.9234   7.0146   7.0147

          k = 0.0012 0.2500 0.0000 (  5167 PWs)   bands (ev):

   -64.8335 -64.8266 -64.8254 -64.8248 -31.6253 -31.6250 -31.6217 -31.5998
   -31.5986 -31.5935 -31.5933 -31.5894 -31.5890 -31.5800 -31.5719 -31.5709
    -9.1559  -8.1281  -7.8851  -7.8848   4.0485   4.0488   4.0955   5.8519
     5.8584   6.1708   6.1774   6.5431   6.5432   6.6582   7.4503   7.4517

          k = 0.0012 0.2500 0.2500 (  5153 PWs)   bands (ev):

   -64.8323 -64.8266 -64.8262 -64.8252 -31.6216 -31.6213 -31.6203 -31.6072
   -31.5948 -31.5941 -31.5931 -31.5876 -31.5867 -31.5864 -31.5757 -31.5688
    -8.9658  -8.0651  -8.0619  -7.8898   4.1590   4.1644   4.3291   5.0716
     5.8470   6.0501   6.0585   6.4845   6.4896   6.5839   7.1733   7.5066

          k = 0.0012 0.2500-0.5000 (  5148 PWs)   bands (ev):

   -64.8296 -64.8291 -64.8261 -64.8255 -31.6184 -31.6182 -31.6104 -31.6103
   -31.6067 -31.6064 -31.5855 -31.5853 -31.5840 -31.5840 -31.5753 -31.5752
    -8.5094  -8.5093  -7.9465  -7.9464   4.4187   4.4188   4.7510   4.7512
     5.0966   5.0966   6.5481   6.5484   6.5751   6.5751   7.0960   7.0961

          k =-0.0023-0.5000 0.0000 (  5128 PWs)   bands (ev):

   -64.8303 -64.8298 -64.8254 -64.8248 -31.6112 -31.6109 -31.6102 -31.6100
   -31.6024 -31.6022 -31.5922 -31.5921 -31.5808 -31.5805 -31.5802 -31.5799
    -8.6457  -8.6454  -7.8562  -7.8561   4.8473   4.8477   4.8478   4.8482
     5.1231   5.1234   5.9736   5.9744   6.9687   6.9687   6.9687   6.9690

          k =-0.0023-0.5000 0.2500 (  5154 PWs)   bands (ev):

   -64.8295 -64.8291 -64.8261 -64.8255 -31.6179 -31.6177 -31.6108 -31.6107
   -31.6071 -31.6069 -31.5856 -31.5854 -31.5840 -31.5839 -31.5755 -31.5753
    -8.5094  -8.5091  -7.9467  -7.9465   4.4182   4.4183   4.7514   4.7516
     5.0970   5.0972   6.5480   6.5486   6.5760   6.5763   7.0943   7.0944

          k =-0.0023-0.5000-0.5000 (  5180 PWs)   bands (ev):

   -64.8279 -64.8278 -64.8278 -64.8268 -31.6196 -31.6194 -31.6193 -31.6193
   -31.5972 -31.5970 -31.5967 -31.5965 -31.5763 -31.5761 -31.5759 -31.5759
    -8.2073  -8.2070  -8.2029  -8.2027   4.2894   4.2896   4.2973   4.2974
     5.7631   5.7633   5.7736   5.7737   7.0615   7.0616   7.0658   7.0663

          k = 0.2512 0.2512 0.0000 (  5159 PWs)   bands (ev):

   -64.8322 -64.8267 -64.8263 -64.8251 -31.6199 -31.6191 -31.6190 -31.6108
   -31.5951 -31.5947 -31.5946 -31.5886 -31.5884 -31.5860 -31.5760 -31.5670
    -8.9610  -8.0693  -8.0692  -7.8844   4.1641   4.1641   4.3338   5.1003
     5.8637   6.0481   6.0484   6.4951   6.4951   6.5358   7.1822   7.4726

          k = 0.2512 0.2512 0.2500 (  5158 PWs)   bands (ev):

   -64.8312 -64.8267 -64.8266 -64.8258 -31.6265 -31.6234 -31.6233 -31.6077
   -31.5965 -31.5964 -31.5958 -31.5838 -31.5838 -31.5821 -31.5725 -31.5697
    -8.7912  -8.0363  -8.0360  -8.0249   3.9959   3.9963   4.0184   5.1096
     5.8490   5.8520   5.8630   6.6595   6.7105   6.7106   7.3200   7.3600

          k = 0.2512 0.2512-0.5000 (  5152 PWs)   bands (ev):

   -64.8290 -64.8285 -64.8267 -64.8261 -31.6263 -31.6261 -31.6231 -31.6230
   -31.5969 -31.5966 -31.5800 -31.5799 -31.5794 -31.5794 -31.5763 -31.5761
    -8.3939  -8.3939  -8.0024  -8.0024   3.8121   3.8123   4.2198   4.2198
     5.8432   5.8433   6.7450   6.7452   6.8743   6.8745   6.9749   6.9749

          k = 0.2477-0.4989 0.0000 (  5153 PWs)   bands (ev):

   -64.8296 -64.8291 -64.8261 -64.8255 -31.6211 -31.6146 -31.6138 -31.6073
   -31.6073 -31.6070 -31.5863 -31.5854 -31.5851 -31.5817 -31.5777 -31.5735
    -8.5166  -8.5018  -7.9547  -7.9384   4.4083   4.4287   4.7471   4.7557
     5.0881   5.1049   6.5161   6.5644   6.5810   6.5878   7.0703   7.1191

          k = 0.2477-0.4989 0.2500 (  5137 PWs)   bands (ev):

   -64.8291 -64.8286 -64.8266 -64.8260 -31.6306 -31.6265 -31.6240 -31.6187
   -31.5936 -31.5932 -31.5823 -31.5803 -31.5795 -31.5789 -31.5770 -31.5754
    -8.4061  -8.3913  -8.0047  -7.9889   3.8054   3.8379   4.1860   4.2103
     5.8229   5.8378   6.7175   6.7644   6.8519   6.8842   7.0104   7.0251

          k = 0.2477-0.4989-0.5000 (  5144 PWs)   bands (ev):

   -64.8279 -64.8278 -64.8277 -64.8268 -31.6342 -31.6341 -31.6300 -31.6298
   -31.5849 -31.5847 -31.5824 -31.5822 -31.5758 -31.5756 -31.5750 -31.5749
    -8.1752  -8.1751  -8.1598  -8.1598   3.6230   3.6231   3.6580   3.6581
     6.4997   6.4997   6.5497   6.5497   7.0573   7.0574   7.0723   7.0726

          k = 0.2488-0.2488 0.0000 (  5151 PWs)   bands (ev):

   -64.8323 -64.8265 -64.8262 -64.8252 -31.6237 -31.6235 -31.6200 -31.6050
   -31.5944 -31.5943 -31.5900 -31.5890 -31.5849 -31.5848 -31.5759 -31.5716
    -8.9705  -8.0577  -8.0575  -7.8957   4.1594   4.1598   4.3238   5.0428
     5.8313   6.0632   6.0638   6.4751   6.4752   6.6331   7.1643   7.5391

          k = 0.2488-0.2488 0.2500 (  5146 PWs)   bands (ev):

   -64.8313 -64.8266 -64.8265 -64.8258 -31.6281 -31.6279 -31.6246 -31.6048
   -31.5920 -31.5917 -31.5915 -31.5861 -31.5841 -31.5840 -31.5740 -31.5706
    -8.8007  -8.0361  -8.0246  -8.0243   3.9827   4.0051   4.0054   5.0693
     5.8292   5.8404   5.8432   6.7010   6.7011   6.7527   7.3510   7.3916

          k = 0.2488-0.2488-0.5000 (  5128 PWs)   bands (ev):

   -64.8291 -64.8287 -64.8265 -64.8259 -31.6308 -31.6306 -31.6202 -31.6201
   -31.5899 -31.5896 -31.5819 -31.5819 -31.5802 -31.5799 -31.5766 -31.5765
    -8.4038  -8.4038  -7.9911  -7.9910   3.8311   3.8311   4.1764   4.1766
     5.8183   5.8183   6.7359   6.7361   6.8635   6.8636   7.0582   7.0583

          k =-0.5023-0.5023 0.0000 (  5188 PWs)   bands (ev):

   -64.8280 -64.8278 -64.8277 -64.8268 -31.6232 -31.6229 -31.6162 -31.6159
   -31.5974 -31.5972 -31.5972 -31.5969 -31.5779 -31.5776 -31.5745 -31.5743
    -8.2161  -8.2160  -8.1940  -8.1938   4.2869   4.2869   4.2995   4.2999
     5.7539   5.7543   5.7812   5.7817   7.0266   7.0268   7.1019   7.1019

          k =-0.5023-0.5023 0.2500 (  5140 PWs)   bands (ev):

   -64.8280 -64.8278 -64.8277 -64.8268 -31.6342 -31.6341 -31.6298 -31.6297
   -31.5842 -31.5842 -31.5822 -31.5822 -31.5780 -31.5777 -31.5733 -31.5731
    -8.1785  -8.1784  -8.1566  -8.1564   3.6264   3.6265   3.6544   3.6546
     6.5205   6.5208   6.5284   6.5288   7.0278   7.0279   7.1025   7.1025

          k =-0.5023-0.5023-0.5000 (  5136 PWs)   bands (ev):

   -64.8280 -64.8278 -64.8277 -64.8268 -31.6409 -31.6407 -31.6391 -31.6390
   -31.5772 -31.5770 -31.5760 -31.5760 -31.5746 -31.5745 -31.5736 -31.5734
    -8.1403  -8.1402  -8.1185  -8.1185   3.2003   3.2005   3.2350   3.2350
     7.0286   7.0286   7.0641   7.0643   7.0665   7.0668   7.1034   7.1035

          k = 0.2500 0.0012-0.2500 (  5153 PWs)   bands (ev):

   -64.8323 -64.8266 -64.8262 -64.8252 -31.6216 -31.6213 -31.6203 -31.6072
   -31.5948 -31.5941 -31.5931 -31.5876 -31.5867 -31.5864 -31.5757 -31.5688
    -8.9658  -8.0651  -8.0619  -7.8898   4.1590   4.1644   4.3291   5.0716
     5.8470   6.0501   6.0585   6.4845   6.4896   6.5839   7.1733   7.5066

          k = 0.2512 0.2512-0.2500 (  5158 PWs)   bands (ev):

   -64.8312 -64.8267 -64.8266 -64.8258 -31.6265 -31.6234 -31.6233 -31.6077
   -31.5965 -31.5964 -31.5958 -31.5838 -31.5838 -31.5821 -31.5725 -31.5697
    -8.7912  -8.0363  -8.0360  -8.0249   3.9959   3.9963   4.0184   5.1096
     5.8490   5.8520   5.8630   6.6595   6.7105   6.7106   7.3200   7.3600

          k =-0.4989 0.2477-0.2500 (  5137 PWs)   bands (ev):

   -64.8291 -64.8286 -64.8266 -64.8260 -31.6306 -31.6265 -31.6240 -31.6187
   -31.5936 -31.5932 -31.5823 -31.5803 -31.5795 -31.5789 -31.5770 -31.5754
    -8.4061  -8.3913  -8.0047  -7.9889   3.8054   3.8379   4.1860   4.2103
     5.8229   5.8378   6.7175   6.7644   6.8519   6.8842   7.0104   7.0251

     highest occupied level (ev):     7.7065

!    total energy              =    -608.39260720 Ry
     Harris-Foulkes estimate   =    -608.39260720 Ry
     estimated scf accuracy    <          8.3E-11 Ry

     The total energy is the sum of the following terms:

     one-electron contribution =    -303.55470894 Ry
     hartree contribution      =     168.06651633 Ry
     xc contribution           =     -97.84631183 Ry
     ewald contribution        =    -375.05810277 Ry

     convergence has been achieved in   5 iterations

     Forces acting on atoms (cartesian axes, Ry/au):

     atom    1 type  1   force =     0.00054651    0.00054651   -0.00000120
     atom    2 type  1   force =    -0.00061730    0.00064084    0.00000154
     atom    3 type  1   force =     0.00064084   -0.00061730    0.00000154
     atom    4 type  1   force =    -0.00059188   -0.00059188   -0.00000179
     atom    5 type  2   force =     0.00060014   -0.00057260   -0.00000064
     atom    6 type  2   force =    -0.00057260    0.00060014   -0.00000064
     atom    7 type  2   force =     0.00056372    0.00056372    0.00000066
     atom    8 type  2   force =    -0.00056943   -0.00056943    0.00000052

     Total force =     0.002354     Total SCF correction =     0.000025


     Computing stress (Cartesian axis) and pressure

          total   stress  (Ry/bohr**3)                   (kbar)     P=  -68.09
  -0.00046284   0.00008935  -0.00000000        -68.09     13.14     -0.00
   0.00008935  -0.00046284  -0.00000000         13.14    -68.09     -0.00
  -0.00000000  -0.00000000  -0.00046300         -0.00     -0.00    -68.11


     number of scf cycles    =   4
     number of bfgs steps    =   3

     energy   old            =    -608.3925824062 Ry
     energy   new            =    -608.3926071973 Ry

     CASE: energy  _new < energy  _old

     new trust radius        =       0.0048472164 bohr
     new conv_thr            =       0.0000000002 Ry


ATOMIC_POSITIONS (alat)
Mg       0.000925000   0.000925000  -0.000006478
Mg      -0.000969876   0.500934839   0.500006553
Mg       0.500934839  -0.000969876   0.500006553
Mg       0.499123716   0.499123716  -0.000006749
O        0.501059160  -0.001083715  -0.000006968
O       -0.001083715   0.501059160  -0.000006968
O        0.001054388   0.001054388   0.500006997
O        0.498956488   0.498956488   0.500007059



     Writing output data file MgO.-0.009286.70.4.save
     NEW-OLD atomic charge density approx. for the potential

     Check: negative/imaginary core charge=   -0.000007    0.000000

     total cpu time spent up to now is       29.7 secs

     per-process dynamical memory:    49.5 Mb

     Self-consistent Calculation

     iteration #  1     ecut=    70.00 Ry     beta=0.70
     Davidson diagonalization with overlap
     ethr =  1.00E-06,  avg # of iterations =  3.0

     Threshold (ethr) on eigenvalues was too large:
     Diagonalizing with lowered threshold

     Davidson diagonalization with overlap
     ethr =  1.44E-08,  avg # of iterations =  1.8

     total cpu time spent up to now is       32.0 secs

     total energy              =    -608.39262483 Ry
     Harris-Foulkes estimate   =    -608.39262993 Ry
     estimated scf accuracy    <       0.00000921 Ry

     iteration #  2     ecut=    70.00 Ry     beta=0.70
     Davidson diagonalization with overlap
     ethr =  1.44E-08,  avg # of iterations =  2.0

     total cpu time spent up to now is       33.0 secs

     total energy              =    -608.39262637 Ry
     Harris-Foulkes estimate   =    -608.39262642 Ry
     estimated scf accuracy    <       0.00000023 Ry

     iteration #  3     ecut=    70.00 Ry     beta=0.70
     Davidson diagonalization with overlap
     ethr =  3.58E-10,  avg # of iterations =  2.0

     total cpu time spent up to now is       34.0 secs

     total energy              =    -608.39262640 Ry
     Harris-Foulkes estimate   =    -608.39262640 Ry
     estimated scf accuracy    <       0.00000002 Ry

     iteration #  4     ecut=    70.00 Ry     beta=0.70
     Davidson diagonalization with overlap
     ethr =  2.41E-11,  avg # of iterations =  2.2

     total cpu time spent up to now is       35.0 secs

     total energy              =    -608.39262640 Ry
     Harris-Foulkes estimate   =    -608.39262640 Ry
     estimated scf accuracy    <          2.1E-09 Ry

     iteration #  5     ecut=    70.00 Ry     beta=0.70
     Davidson diagonalization with overlap
     ethr =  3.22E-12,  avg # of iterations =  3.0

     total cpu time spent up to now is       36.1 secs

     End of self-consistent calculation

          k = 0.0000 0.0000 0.0000 (  5149 PWs)   bands (ev):

   -64.8349 -64.8254 -64.8254 -64.8246 -31.6313 -31.6312 -31.6311 -31.5951
   -31.5937 -31.5937 -31.5930 -31.5929 -31.5915 -31.5670 -31.5654 -31.5639
    -9.3644  -7.9136  -7.9132  -7.9132   3.7583   3.7589   3.7589   6.3265
     6.3802   6.3802   6.3803   6.3807   6.4347   7.6389   7.6722   7.7064

          k = 0.0000 0.0000 0.2500 (  5153 PWs)   bands (ev):

   -64.8335 -64.8266 -64.8254 -64.8248 -31.6255 -31.6254 -31.6207 -31.5979
   -31.5979 -31.5943 -31.5943 -31.5911 -31.5868 -31.5784 -31.5736 -31.5692
    -9.1560  -8.1285  -7.8848  -7.8847   4.0489   4.0489   4.0955   5.8583
     5.8583   6.1709   6.1712   6.4916   6.5955   6.6589   7.4131   7.4889

          k = 0.0000 0.0000-0.5000 (  5130 PWs)   bands (ev):

   -64.8302 -64.8298 -64.8254 -64.8248 -31.6146 -31.6143 -31.6073 -31.6071
   -31.6021 -31.6021 -31.5913 -31.5913 -31.5831 -31.5828 -31.5785 -31.5782
    -8.6458  -8.6457  -7.8560  -7.8559   4.8413   4.8413   4.8538   4.8538
     5.1226   5.1229   5.9738   5.9741   6.9233   6.9233   7.0146   7.0146

          k = 0.0012 0.2500 0.0000 (  5167 PWs)   bands (ev):

   -64.8335 -64.8266 -64.8254 -64.8248 -31.6253 -31.6250 -31.6217 -31.5998
   -31.5986 -31.5935 -31.5933 -31.5894 -31.5889 -31.5800 -31.5719 -31.5709
    -9.1560  -8.1281  -7.8851  -7.8848   4.0485   4.0488   4.0955   5.8520
     5.8584   6.1708   6.1772   6.5431   6.5432   6.6582   7.4503   7.4516

          k = 0.0012 0.2500 0.2500 (  5153 PWs)   bands (ev):

   -64.8322 -64.8266 -64.8262 -64.8252 -31.6215 -31.6213 -31.6203 -31.6072
   -31.5948 -31.5941 -31.5931 -31.5876 -31.5867 -31.5864 -31.5756 -31.5687
    -8.9658  -8.0639  -8.0632  -7.8898   4.1612   4.1621   4.3291   5.0716
     5.8469   6.0526   6.0559   6.4852   6.4888   6.5838   7.1733   7.5066

          k = 0.0012 0.2500-0.5000 (  5148 PWs)   bands (ev):

   -64.8295 -64.8291 -64.8261 -64.8255 -31.6184 -31.6182 -31.6103 -31.6103
   -31.6066 -31.6064 -31.5855 -31.5852 -31.5840 -31.5839 -31.5753 -31.5751
    -8.5094  -8.5093  -7.9465  -7.9464   4.4188   4.4188   4.7510   4.7512
     5.0965   5.0966   6.5481   6.5484   6.5750   6.5751   7.0960   7.0961

          k =-0.0023-0.5000 0.0000 (  5128 PWs)   bands (ev):

   -64.8302 -64.8298 -64.8254 -64.8248 -31.6111 -31.6109 -31.6102 -31.6100
   -31.6024 -31.6023 -31.5921 -31.5920 -31.5807 -31.5805 -31.5801 -31.5799
    -8.6457  -8.6454  -7.8562  -7.8561   4.8473   4.8477   4.8477   4.8482
     5.1231   5.1234   5.9737   5.9741   6.9685   6.9687   6.9688   6.9690

          k =-0.0023-0.5000 0.2500 (  5154 PWs)   bands (ev):

   -64.8295 -64.8291 -64.8261 -64.8255 -31.6179 -31.6177 -31.6107 -31.6106
   -31.6071 -31.6069 -31.5856 -31.5854 -31.5840 -31.5839 -31.5754 -31.5753
    -8.5094  -8.5091  -7.9467  -7.9465   4.4182   4.4184   4.7513   4.7516
     5.0968   5.0973   6.5481   6.5484   6.5759   6.5763   7.0943   7.0944

          k =-0.0023-0.5000-0.5000 (  5180 PWs)   bands (ev):

   -64.8278 -64.8278 -64.8278 -64.8268 -31.6196 -31.6194 -31.6192 -31.6192
   -31.5971 -31.5969 -31.5968 -31.5965 -31.5762 -31.5760 -31.5759 -31.5759
    -8.2055  -8.2052  -8.2047  -8.2046   4.2928   4.2929   4.2939   4.2941
     5.7673   5.7678   5.7691   5.7695   7.0633   7.0633   7.0640   7.0643

          k = 0.2512 0.2512 0.0000 (  5159 PWs)   bands (ev):

   -64.8322 -64.8267 -64.8263 -64.8251 -31.6198 -31.6191 -31.6190 -31.6108
   -31.5951 -31.5946 -31.5946 -31.5885 -31.5884 -31.5859 -31.5760 -31.5670
    -8.9610  -8.0693  -8.0692  -7.8844   4.1641   4.1641   4.3338   5.1003
     5.8637   6.0481   6.0484   6.4950   6.4951   6.5357   7.1822   7.4726

          k = 0.2512 0.2512 0.2500 (  5158 PWs)   bands (ev):

   -64.8312 -64.8267 -64.8266 -64.8258 -31.6264 -31.6234 -31.6232 -31.6077
   -31.5965 -31.5963 -31.5959 -31.5838 -31.5838 -31.5821 -31.5724 -31.5696
    -8.7912  -8.0361  -8.0360  -8.0251   3.9962   3.9963   4.0181   5.1096
     5.8517   5.8520   5.8603   6.6594   6.7104   6.7106   7.3199   7.3600

          k = 0.2512 0.2512-0.5000 (  5152 PWs)   bands (ev):

   -64.8289 -64.8285 -64.8267 -64.8260 -31.6262 -31.6261 -31.6231 -31.6230
   -31.5969 -31.5966 -31.5800 -31.5799 -31.5794 -31.5793 -31.5763 -31.5761
    -8.3940  -8.3939  -8.0025  -8.0024   3.8122   3.8123   4.2197   4.2198
     5.8432   5.8433   6.7450   6.7452   6.8743   6.8744   6.9748   6.9749

          k = 0.2477-0.4989 0.0000 (  5153 PWs)   bands (ev):

   -64.8295 -64.8291 -64.8261 -64.8255 -31.6211 -31.6146 -31.6137 -31.6073
   -31.6072 -31.6069 -31.5863 -31.5854 -31.5851 -31.5816 -31.5777 -31.5734
    -8.5167  -8.5018  -7.9548  -7.9384   4.4083   4.4287   4.7471   4.7557
     5.0881   5.1049   6.5161   6.5643   6.5810   6.5878   7.0703   7.1191

          k = 0.2477-0.4989 0.2500 (  5137 PWs)   bands (ev):

   -64.8290 -64.8286 -64.8266 -64.8260 -31.6305 -31.6265 -31.6240 -31.6187
   -31.5936 -31.5931 -31.5823 -31.5802 -31.5795 -31.5788 -31.5770 -31.5754
    -8.4062  -8.3913  -8.0048  -7.9889   3.8054   3.8379   4.1860   4.2103
     5.8229   5.8378   6.7175   6.7644   6.8519   6.8841   7.0103   7.0250

          k = 0.2477-0.4989-0.5000 (  5144 PWs)   bands (ev):

   -64.8279 -64.8278 -64.8277 -64.8268 -31.6342 -31.6340 -31.6299 -31.6298
   -31.5849 -31.5846 -31.5824 -31.5822 -31.5757 -31.5756 -31.5749 -31.5749
    -8.1751  -8.1750  -8.1600  -8.1599   3.6233   3.6234   3.6577   3.6578
     6.4999   6.5000   6.5494   6.5494   7.0574   7.0576   7.0722   7.0723

          k = 0.2488-0.2488 0.0000 (  5151 PWs)   bands (ev):

   -64.8323 -64.8265 -64.8262 -64.8252 -31.6237 -31.6235 -31.6200 -31.6050
   -31.5944 -31.5943 -31.5900 -31.5890 -31.5849 -31.5847 -31.5759 -31.5715
    -8.9705  -8.0577  -8.0575  -7.8957   4.1594   4.1598   4.3238   5.0428
     5.8312   6.0632   6.0638   6.4751   6.4752   6.6330   7.1643   7.5390

          k = 0.2488-0.2488 0.2500 (  5146 PWs)   bands (ev):

   -64.8313 -64.8266 -64.8265 -64.8258 -31.6280 -31.6278 -31.6245 -31.6048
   -31.5918 -31.5917 -31.5915 -31.5861 -31.5840 -31.5840 -31.5740 -31.5706
    -8.8007  -8.0359  -8.0246  -8.0245   3.9830   4.0050   4.0052   5.0692
     5.8318   5.8403   5.8407   6.7009   6.7011   6.7527   7.3509   7.3916

          k = 0.2488-0.2488-0.5000 (  5128 PWs)   bands (ev):

   -64.8291 -64.8287 -64.8265 -64.8259 -31.6308 -31.6306 -31.6201 -31.6201
   -31.5898 -31.5896 -31.5819 -31.5819 -31.5802 -31.5799 -31.5766 -31.5765
    -8.4039  -8.4038  -7.9911  -7.9910   3.8311   3.8312   4.1764   4.1765
     5.8183   5.8183   6.7359   6.7361   6.8634   6.8636   7.0582   7.0582

          k =-0.5023-0.5023 0.0000 (  5188 PWs)   bands (ev):

   -64.8279 -64.8278 -64.8276 -64.8268 -31.6231 -31.6229 -31.6161 -31.6159
   -31.5973 -31.5972 -31.5971 -31.5969 -31.5779 -31.5776 -31.5745 -31.5742
    -8.2162  -8.2161  -8.1940  -8.1938   4.2869   4.2869   4.2995   4.2999
     5.7539   5.7542   5.7811   5.7818   7.0265   7.0267   7.1018   7.1019

          k =-0.5023-0.5023 0.2500 (  5140 PWs)   bands (ev):

   -64.8279 -64.8278 -64.8276 -64.8268 -31.6342 -31.6340 -31.6298 -31.6297
   -31.5842 -31.5842 -31.5822 -31.5821 -31.5780 -31.5777 -31.5733 -31.5731
    -8.1785  -8.1784  -8.1566  -8.1564   3.6264   3.6265   3.6543   3.6546
     6.5205   6.5207   6.5283   6.5289   7.0277   7.0278   7.1024   7.1025

          k =-0.5023-0.5023-0.5000 (  5136 PWs)   bands (ev):

   -64.8279 -64.8278 -64.8276 -64.8268 -31.6409 -31.6407 -31.6391 -31.6389
   -31.5772 -31.5769 -31.5760 -31.5759 -31.5745 -31.5745 -31.5736 -31.5734
    -8.1403  -8.1402  -8.1186  -8.1185   3.2003   3.2004   3.2350   3.2350
     7.0285   7.0286   7.0641   7.0643   7.0665   7.0667   7.1034   7.1034

          k = 0.2500 0.0012-0.2500 (  5153 PWs)   bands (ev):

   -64.8322 -64.8266 -64.8262 -64.8252 -31.6215 -31.6213 -31.6203 -31.6072
   -31.5948 -31.5941 -31.5931 -31.5876 -31.5867 -31.5864 -31.5756 -31.5687
    -8.9658  -8.0639  -8.0632  -7.8898   4.1612   4.1621   4.3291   5.0716
     5.8469   6.0526   6.0559   6.4852   6.4888   6.5838   7.1733   7.5066

          k = 0.2512 0.2512-0.2500 (  5158 PWs)   bands (ev):

   -64.8312 -64.8267 -64.8266 -64.8258 -31.6264 -31.6234 -31.6232 -31.6077
   -31.5965 -31.5963 -31.5959 -31.5838 -31.5838 -31.5821 -31.5724 -31.5696
    -8.7912  -8.0361  -8.0360  -8.0251   3.9962   3.9963   4.0181   5.1096
     5.8517   5.8520   5.8603   6.6594   6.7104   6.7106   7.3199   7.3600

          k =-0.4989 0.2477-0.2500 (  5137 PWs)   bands (ev):

   -64.8290 -64.8286 -64.8266 -64.8260 -31.6305 -31.6265 -31.6240 -31.6187
   -31.5936 -31.5931 -31.5823 -31.5802 -31.5795 -31.5788 -31.5770 -31.5754
    -8.4062  -8.3913  -8.0048  -7.9889   3.8054   3.8379   4.1860   4.2103
     5.8229   5.8378   6.7175   6.7644   6.8519   6.8841   7.0103   7.0250

     highest occupied level (ev):     7.7064

!    total energy              =    -608.39262640 Ry
     Harris-Foulkes estimate   =    -608.39262640 Ry
     estimated scf accuracy    <          2.1E-10 Ry

     The total energy is the sum of the following terms:

     one-electron contribution =    -303.55503892 Ry
     hartree contribution      =     168.06669200 Ry
     xc contribution           =     -97.84632249 Ry
     ewald contribution        =    -375.05795699 Ry

     convergence has been achieved in   5 iterations

     Forces acting on atoms (cartesian axes, Ry/au):

     atom    1 type  1   force =     0.00013960    0.00013960    0.00000377
     atom    2 type  1   force =    -0.00021878    0.00030098   -0.00000329
     atom    3 type  1   force =     0.00030098   -0.00021878   -0.00000329
     atom    4 type  1   force =    -0.00027231   -0.00027231    0.00000317
     atom    5 type  2   force =     0.00010735   -0.00004073    0.00000411
     atom    6 type  2   force =    -0.00004073    0.00010735    0.00000411
     atom    7 type  2   force =     0.00005336    0.00005336   -0.00000419
     atom    8 type  2   force =    -0.00006947   -0.00006947   -0.00000439

     Total force =     0.000711     Total SCF correction =     0.000036


     Computing stress (Cartesian axis) and pressure

          total   stress  (Ry/bohr**3)                   (kbar)     P=  -68.10
  -0.00046288   0.00008935   0.00000000        -68.09     13.14      0.00
   0.00008935  -0.00046288   0.00000000         13.14    -68.09      0.00
   0.00000000   0.00000000  -0.00046295          0.00      0.00    -68.10


     number of scf cycles    =   5
     number of bfgs steps    =   4

     energy   old            =    -608.3926071973 Ry
     energy   new            =    -608.3926264020 Ry

     CASE: energy  _new < energy  _old

     new trust radius        =       0.0017608500 bohr
     new conv_thr            =       0.0000000002 Ry


ATOMIC_POSITIONS (alat)
Mg       0.001053954   0.001053954  -0.000006509
Mg      -0.001118915   0.501095141   0.500006688
Mg       0.501095141  -0.001118915   0.500006688
Mg       0.498975490   0.498975490  -0.000006930
O        0.501197238  -0.001211924  -0.000006940
O       -0.001211924   0.501197238  -0.000006940
O        0.001181637   0.001181637   0.500006958
O        0.498827379   0.498827379   0.500006985



     Writing output data file MgO.-0.009286.70.4.save
     NEW-OLD atomic charge density approx. for the potential

     Check: negative/imaginary core charge=   -0.000007    0.000000

     total cpu time spent up to now is       36.8 secs

     per-process dynamical memory:    49.5 Mb

     Self-consistent Calculation

     iteration #  1     ecut=    70.00 Ry     beta=0.70
     Davidson diagonalization with overlap
     ethr =  1.00E-06,  avg # of iterations =  3.0

     Threshold (ethr) on eigenvalues was too large:
     Diagonalizing with lowered threshold

     Davidson diagonalization with overlap
     ethr =  1.16E-09,  avg # of iterations =  3.0

     total cpu time spent up to now is       39.2 secs

     total energy              =    -608.39262776 Ry
     Harris-Foulkes estimate   =    -608.39262820 Ry
     estimated scf accuracy    <       0.00000084 Ry

     iteration #  2     ecut=    70.00 Ry     beta=0.70
     Davidson diagonalization with overlap
     ethr =  1.31E-09,  avg # of iterations =  2.0

     total cpu time spent up to now is       40.2 secs

     total energy              =    -608.39262789 Ry
     Harris-Foulkes estimate   =    -608.39262790 Ry
     estimated scf accuracy    <       0.00000002 Ry

     iteration #  3     ecut=    70.00 Ry     beta=0.70
     Davidson diagonalization with overlap
     ethr =  3.74E-11,  avg # of iterations =  2.2

     total cpu time spent up to now is       41.2 secs

     total energy              =    -608.39262790 Ry
     Harris-Foulkes estimate   =    -608.39262790 Ry
     estimated scf accuracy    <          3.4E-09 Ry

     iteration #  4     ecut=    70.00 Ry     beta=0.70
     Davidson diagonalization with overlap
     ethr =  5.35E-12,  avg # of iterations =  3.0

     total cpu time spent up to now is       42.3 secs

     total energy              =    -608.39262790 Ry
     Harris-Foulkes estimate   =    -608.39262790 Ry
     estimated scf accuracy    <          3.5E-09 Ry

     iteration #  5     ecut=    70.00 Ry     beta=0.70
     Davidson diagonalization with overlap
     ethr =  5.35E-12,  avg # of iterations =  2.7

     total cpu time spent up to now is       43.3 secs

     End of self-consistent calculation

          k = 0.0000 0.0000 0.0000 (  5149 PWs)   bands (ev):

   -64.8349 -64.8254 -64.8254 -64.8246 -31.6312 -31.6312 -31.6311 -31.5951
   -31.5937 -31.5937 -31.5930 -31.5929 -31.5915 -31.5670 -31.5654 -31.5639
    -9.3644  -7.9136  -7.9132  -7.9132   3.7583   3.7589   3.7589   6.3265
     6.3802   6.3802   6.3803   6.3807   6.4347   7.6389   7.6722   7.7064

          k = 0.0000 0.0000 0.2500 (  5153 PWs)   bands (ev):

   -64.8335 -64.8266 -64.8254 -64.8248 -31.6255 -31.6254 -31.6207 -31.5979
   -31.5979 -31.5943 -31.5943 -31.5911 -31.5868 -31.5784 -31.5736 -31.5691
    -9.1560  -8.1285  -7.8848  -7.8847   4.0489   4.0489   4.0955   5.8583
     5.8583   6.1709   6.1712   6.4916   6.5955   6.6589   7.4131   7.4889

          k = 0.0000 0.0000-0.5000 (  5130 PWs)   bands (ev):

   -64.8302 -64.8298 -64.8254 -64.8248 -31.6146 -31.6143 -31.6073 -31.6071
   -31.6021 -31.6021 -31.5913 -31.5913 -31.5830 -31.5828 -31.5784 -31.5782
    -8.6458  -8.6457  -7.8560  -7.8559   4.8413   4.8413   4.8538   4.8538
     5.1226   5.1229   5.9738   5.9741   6.9233   6.9233   7.0146   7.0146

          k = 0.0012 0.2500 0.0000 (  5167 PWs)   bands (ev):

   -64.8334 -64.8266 -64.8254 -64.8248 -31.6253 -31.6250 -31.6217 -31.5998
   -31.5986 -31.5935 -31.5933 -31.5894 -31.5889 -31.5800 -31.5719 -31.5709
    -9.1560  -8.1281  -7.8851  -7.8848   4.0485   4.0488   4.0955   5.8520
     5.8584   6.1708   6.1772   6.5431   6.5432   6.6581   7.4502   7.4516

          k = 0.0012 0.2500 0.2500 (  5153 PWs)   bands (ev):

   -64.8322 -64.8266 -64.8262 -64.8252 -31.6215 -31.6213 -31.6203 -31.6072
   -31.5947 -31.5941 -31.5931 -31.5876 -31.5867 -31.5864 -31.5756 -31.5687
    -8.9658  -8.0638  -8.0633  -7.8898   4.1612   4.1621   4.3291   5.0716
     5.8469   6.0527   6.0558   6.4853   6.4887   6.5838   7.1733   7.5065

          k = 0.0012 0.2500-0.5000 (  5148 PWs)   bands (ev):

   -64.8295 -64.8291 -64.8261 -64.8255 -31.6184 -31.6182 -31.6103 -31.6103
   -31.6066 -31.6064 -31.5855 -31.5852 -31.5840 -31.5839 -31.5753 -31.5751
    -8.5094  -8.5093  -7.9465  -7.9464   4.4188   4.4188   4.7510   4.7512
     5.0965   5.0966   6.5481   6.5484   6.5750   6.5751   7.0960   7.0961

          k =-0.0023-0.5000 0.0000 (  5128 PWs)   bands (ev):

   -64.8302 -64.8298 -64.8254 -64.8248 -31.6111 -31.6109 -31.6102 -31.6100
   -31.6024 -31.6023 -31.5921 -31.5921 -31.5807 -31.5805 -31.5801 -31.5799
    -8.6458  -8.6454  -7.8562  -7.8562   4.8472   4.8476   4.8479   4.8483
     5.1231   5.1234   5.9738   5.9741   6.9685   6.9686   6.9688   6.9690

          k =-0.0023-0.5000 0.2500 (  5154 PWs)   bands (ev):

   -64.8295 -64.8291 -64.8261 -64.8255 -31.6178 -31.6177 -31.6107 -31.6106
   -31.6071 -31.6069 -31.5856 -31.5854 -31.5840 -31.5839 -31.5754 -31.5753
    -8.5094  -8.5091  -7.9467  -7.9466   4.4181   4.4184   4.7513   4.7516
     5.0967   5.0974   6.5481   6.5484   6.5759   6.5763   7.0943   7.0944

          k =-0.0023-0.5000-0.5000 (  5180 PWs)   bands (ev):

   -64.8278 -64.8278 -64.8278 -64.8268 -31.6196 -31.6194 -31.6193 -31.6192
   -31.5970 -31.5969 -31.5968 -31.5966 -31.5762 -31.5760 -31.5759 -31.5759
    -8.2053  -8.2052  -8.2049  -8.2047   4.2929   4.2931   4.2938   4.2939
     5.7677   5.7682   5.7687   5.7692   7.0634   7.0637   7.0639   7.0639

          k = 0.2512 0.2512 0.0000 (  5159 PWs)   bands (ev):

   -64.8322 -64.8267 -64.8263 -64.8251 -31.6198 -31.6191 -31.6190 -31.6108
   -31.5951 -31.5946 -31.5946 -31.5885 -31.5884 -31.5859 -31.5760 -31.5670
    -8.9610  -8.0693  -8.0692  -7.8844   4.1641   4.1641   4.3338   5.1003
     5.8637   6.0481   6.0484   6.4950   6.4950   6.5357   7.1822   7.4726

          k = 0.2512 0.2512 0.2500 (  5158 PWs)   bands (ev):

   -64.8312 -64.8267 -64.8266 -64.8258 -31.6264 -31.6234 -31.6232 -31.6077
[...]
   -31.5898 -31.5896 -31.5819 -31.5819 -31.5802 -31.5799 -31.5766 -31.5765
    -8.4039  -8.4038  -7.9911  -7.9910   3.8311   3.8312   4.1764   4.1765
     5.8183   5.8183   6.7359   6.7361   6.8634   6.8635   7.0582   7.0582

          k =-0.5023-0.5023 0.0000 (  5188 PWs)   bands (ev):

   -64.8279 -64.8278 -64.8276 -64.8268 -31.6231 -31.6229 -31.6161 -31.6159
   -31.5973 -31.5972 -31.5971 -31.5969 -31.5779 -31.5776 -31.5745 -31.5742
    -8.2162  -8.2161  -8.1940  -8.1938   4.2869   4.2869   4.2996   4.2998
     5.7539   5.7542   5.7812   5.7816   7.0266   7.0267   7.1018   7.1018

          k =-0.5023-0.5023 0.2500 (  5140 PWs)   bands (ev):

   -64.8279 -64.8278 -64.8276 -64.8268 -31.6342 -31.6340 -31.6298 -31.6297
   -31.5842 -31.5841 -31.5822 -31.5821 -31.5780 -31.5777 -31.5733 -31.5731
    -8.1785  -8.1784  -8.1566  -8.1565   3.6264   3.6265   3.6544   3.6545
     6.5205   6.5207   6.5284   6.5288   7.0277   7.0278   7.1024   7.1025

          k =-0.5023-0.5023-0.5000 (  5136 PWs)   bands (ev):

   -64.8279 -64.8278 -64.8276 -64.8268 -31.6409 -31.6407 -31.6391 -31.6389
   -31.5772 -31.5769 -31.5760 -31.5759 -31.5745 -31.5745 -31.5736 -31.5734
    -8.1403  -8.1402  -8.1186  -8.1185   3.2003   3.2004   3.2350   3.2350
     7.0285   7.0286   7.0641   7.0643   7.0665   7.0667   7.1034   7.1034

          k = 0.2500 0.0012-0.2500 (  5153 PWs)   bands (ev):

   -64.8322 -64.8266 -64.8262 -64.8252 -31.6215 -31.6213 -31.6203 -31.6072
   -31.5947 -31.5941 -31.5931 -31.5876 -31.5867 -31.5864 -31.5756 -31.5687
    -8.9658  -8.0638  -8.0634  -7.8898   4.1613   4.1621   4.3291   5.0716
     5.8469   6.0527   6.0558   6.4853   6.4887   6.5838   7.1733   7.5065

          k = 0.2512 0.2512-0.2500 (  5158 PWs)   bands (ev):

   -64.8312 -64.8267 -64.8266 -64.8258 -31.6264 -31.6234 -31.6232 -31.6077
   -31.5964 -31.5963 -31.5959 -31.5838 -31.5838 -31.5821 -31.5724 -31.5696
    -8.7912  -8.0361  -8.0360  -8.0251   3.9962   3.9963   4.0181   5.1096
     5.8518   5.8520   5.8602   6.6594   6.7104   6.7106   7.3199   7.3600

          k =-0.4989 0.2477-0.2500 (  5137 PWs)   bands (ev):

   -64.8290 -64.8286 -64.8266 -64.8260 -31.6305 -31.6265 -31.6240 -31.6187
   -31.5936 -31.5931 -31.5823 -31.5802 -31.5794 -31.5788 -31.5770 -31.5754
    -8.4062  -8.3913  -8.0048  -7.9889   3.8054   3.8379   4.1860   4.2103
     5.8229   5.8378   6.7175   6.7644   6.8519   6.8841   7.0103   7.0250

     highest occupied level (ev):     7.7064

!    total energy              =    -608.39262803 Ry
     Harris-Foulkes estimate   =    -608.39262803 Ry
     estimated scf accuracy    <          1.8E-11 Ry

     The total energy is the sum of the following terms:

     one-electron contribution =    -303.55503179 Ry
     hartree contribution      =     168.06669277 Ry
     xc contribution           =     -97.84632372 Ry
     ewald contribution        =    -375.05796530 Ry

     convergence has been achieved in   4 iterations

     Forces acting on atoms (cartesian axes, Ry/au):

     atom    1 type  1   force =    -0.00001077   -0.00001077    0.00000266
     atom    2 type  1   force =    -0.00003568    0.00010656   -0.00000238
     atom    3 type  1   force =     0.00010656   -0.00003568   -0.00000238
     atom    4 type  1   force =    -0.00009848   -0.00009848    0.00000240
     atom    5 type  2   force =    -0.00004776    0.00008698    0.00000274
     atom    6 type  2   force =     0.00008698   -0.00004776    0.00000274
     atom    7 type  2   force =    -0.00007175   -0.00007175   -0.00000281
     atom    8 type  2   force =     0.00007090    0.00007090   -0.00000297

     Total force =     0.000292     Total SCF correction =     0.000005


     Computing stress (Cartesian axis) and pressure

          total   stress  (Ry/bohr**3)                   (kbar)     P=  -68.10
  -0.00046288   0.00008935   0.00000000        -68.09     13.14      0.00
   0.00008935  -0.00046288   0.00000000         13.14    -68.09      0.00
   0.00000000   0.00000000  -0.00046294          0.00      0.00    -68.10


     number of scf cycles    =   7
     number of bfgs steps    =   6

     energy   old            =    -608.3926278976 Ry
     energy   new            =    -608.3926280345 Ry

     CASE: energy  _new < energy  _old

     new trust radius        =       0.0003366152 bohr
     new conv_thr            =            1.0E-10 Ry


ATOMIC_POSITIONS (alat)
Mg       0.001062921   0.001062921  -0.000005321
Mg      -0.001150414   0.501157132   0.500005642
Mg       0.501157132  -0.001150414   0.500005642
Mg       0.498919010   0.498919010  -0.000005876
O        0.501190991  -0.001186798  -0.000005677
O       -0.001186798   0.501190991  -0.000005677
O        0.001162750   0.001162750   0.500005657
O        0.498844408   0.498844408   0.500005610



     Writing output data file MgO.-0.009286.70.4.save
     NEW-OLD atomic charge density approx. for the potential

     Check: negative/imaginary core charge=   -0.000007    0.000000

     total cpu time spent up to now is       50.3 secs

     per-process dynamical memory:    49.5 Mb

     Self-consistent Calculation

     iteration #  1     ecut=    70.00 Ry     beta=0.70
     Davidson diagonalization with overlap
     ethr =  1.00E-06,  avg # of iterations =  2.0

     Threshold (ethr) on eigenvalues was too large:
     Diagonalizing with lowered threshold

     Davidson diagonalization with overlap
     ethr =  3.38E-11,  avg # of iterations =  3.7

     total cpu time spent up to now is       52.7 secs

     total energy              =    -608.39262817 Ry
     Harris-Foulkes estimate   =    -608.39262819 Ry
     estimated scf accuracy    <       0.00000003 Ry

     iteration #  2     ecut=    70.00 Ry     beta=0.70
     Davidson diagonalization with overlap
     ethr =  4.44E-11,  avg # of iterations =  2.0

     total cpu time spent up to now is       53.7 secs

     total energy              =    -608.39262817 Ry
     Harris-Foulkes estimate   =    -608.39262817 Ry
     estimated scf accuracy    <          7.5E-10 Ry

     iteration #  3     ecut=    70.00 Ry     beta=0.70
     Davidson diagonalization with overlap
     ethr =  1.18E-12,  avg # of iterations =  2.8

     total cpu time spent up to now is       54.8 secs

     total energy              =    -608.39262817 Ry
     Harris-Foulkes estimate   =    -608.39262817 Ry
     estimated scf accuracy    <          2.0E-10 Ry

     iteration #  4     ecut=    70.00 Ry     beta=0.70
     Davidson diagonalization with overlap
     ethr =  3.05E-13,  avg # of iterations =  3.0

     total cpu time spent up to now is       55.9 secs

     End of self-consistent calculation

          k = 0.0000 0.0000 0.0000 (  5149 PWs)   bands (ev):

   -64.8349 -64.8254 -64.8254 -64.8246 -31.6312 -31.6312 -31.6311 -31.5951
   -31.5937 -31.5937 -31.5930 -31.5929 -31.5915 -31.5670 -31.5654 -31.5639
    -9.3644  -7.9136  -7.9132  -7.9132   3.7583   3.7589   3.7589   6.3265
     6.3802   6.3802   6.3803   6.3807   6.4347   7.6389   7.6722   7.7064

          k = 0.0000 0.0000 0.2500 (  5153 PWs)   bands (ev):

   -64.8335 -64.8266 -64.8254 -64.8248 -31.6255 -31.6254 -31.6207 -31.5979
   -31.5979 -31.5943 -31.5943 -31.5911 -31.5868 -31.5784 -31.5736 -31.5691
    -9.1560  -8.1285  -7.8848  -7.8847   4.0489   4.0489   4.0955   5.8583
     5.8583   6.1709   6.1712   6.4916   6.5955   6.6589   7.4131   7.4889

          k = 0.0000 0.0000-0.5000 (  5130 PWs)   bands (ev):

   -64.8302 -64.8298 -64.8254 -64.8248 -31.6146 -31.6143 -31.6073 -31.6071
   -31.6021 -31.6021 -31.5913 -31.5913 -31.5830 -31.5828 -31.5784 -31.5782
    -8.6458  -8.6457  -7.8560  -7.8559   4.8413   4.8413   4.8538   4.8538
     5.1226   5.1229   5.9738   5.9741   6.9233   6.9233   7.0146   7.0146

          k = 0.0012 0.2500 0.0000 (  5167 PWs)   bands (ev):

   -64.8334 -64.8266 -64.8254 -64.8248 -31.6253 -31.6250 -31.6217 -31.5998
   -31.5986 -31.5935 -31.5933 -31.5894 -31.5889 -31.5800 -31.5719 -31.5709
    -9.1560  -8.1281  -7.8851  -7.8848   4.0485   4.0488   4.0955   5.8520
     5.8584   6.1708   6.1772   6.5431   6.5432   6.6581   7.4502   7.4516

          k = 0.0012 0.2500 0.2500 (  5153 PWs)   bands (ev):

   -64.8322 -64.8266 -64.8262 -64.8252 -31.6215 -31.6213 -31.6203 -31.6072
   -31.5947 -31.5941 -31.5931 -31.5876 -31.5867 -31.5864 -31.5756 -31.5687
    -8.9658  -8.0637  -8.0634  -7.8898   4.1613   4.1620   4.3291   5.0716
     5.8469   6.0528   6.0558   6.4853   6.4887   6.5838   7.1733   7.5065

          k = 0.0012 0.2500-0.5000 (  5148 PWs)   bands (ev):

   -64.8295 -64.8291 -64.8261 -64.8255 -31.6184 -31.6182 -31.6103 -31.6103
   -31.6066 -31.6064 -31.5855 -31.5852 -31.5840 -31.5839 -31.5753 -31.5751
    -8.5094  -8.5093  -7.9465  -7.9464   4.4188   4.4188   4.7510   4.7512
     5.0966   5.0966   6.5481   6.5484   6.5750   6.5751   7.0960   7.0961

          k =-0.0023-0.5000 0.0000 (  5128 PWs)   bands (ev):

   -64.8302 -64.8298 -64.8254 -64.8248 -31.6111 -31.6109 -31.6102 -31.6100
   -31.6024 -31.6023 -31.5921 -31.5921 -31.5807 -31.5805 -31.5801 -31.5799
    -8.6458  -8.6453  -7.8562  -7.8562   4.8471   4.8476   4.8479   4.8484
     5.1231   5.1234   5.9738   5.9741   6.9685   6.9686   6.9689   6.9690

          k =-0.0023-0.5000 0.2500 (  5154 PWs)   bands (ev):

   -64.8295 -64.8291 -64.8261 -64.8255 -31.6178 -31.6177 -31.6107 -31.6107
   -31.6071 -31.6069 -31.5856 -31.5854 -31.5840 -31.5839 -31.5754 -31.5753
    -8.5094  -8.5090  -7.9467  -7.9466   4.4181   4.4184   4.7513   4.7516
     5.0967   5.0974   6.5481   6.5484   6.5758   6.5763   7.0943   7.0944

          k =-0.0023-0.5000-0.5000 (  5180 PWs)   bands (ev):

   -64.8278 -64.8278 -64.8278 -64.8268 -31.6196 -31.6194 -31.6193 -31.6192
   -31.5970 -31.5969 -31.5968 -31.5966 -31.5762 -31.5760 -31.5759 -31.5759
    -8.2052  -8.2051  -8.2050  -8.2048   4.2931   4.2933   4.2936   4.2937
     5.7679   5.7682   5.7686   5.7690   7.0635   7.0637   7.0638   7.0639

          k = 0.2512 0.2512 0.0000 (  5159 PWs)   bands (ev):

   -64.8322 -64.8267 -64.8263 -64.8251 -31.6198 -31.6191 -31.6190 -31.6108
   -31.5951 -31.5946 -31.5946 -31.5885 -31.5884 -31.5859 -31.5760 -31.5670
    -8.9610  -8.0693  -8.0692  -7.8844   4.1641   4.1641   4.3338   5.1003
     5.8637   6.0481   6.0484   6.4950   6.4950   6.5357   7.1822   7.4726

          k = 0.2512 0.2512 0.2500 (  5158 PWs)   bands (ev):

   -64.8312 -64.8267 -64.8266 -64.8258 -31.6264 -31.6234 -31.6232 -31.6077
   -31.5964 -31.5963 -31.5959 -31.5838 -31.5838 -31.5821 -31.5724 -31.5696
    -8.7912  -8.0361  -8.0360  -8.0252   3.9962   3.9963   4.0181   5.1096
     5.8518   5.8520   5.8601   6.6594   6.7104   6.7106   7.3199   7.3600

          k = 0.2512 0.2512-0.5000 (  5152 PWs)   bands (ev):

   -64.8289 -64.8285 -64.8266 -64.8260 -31.6262 -31.6261 -31.6231 -31.6230
   -31.5969 -31.5966 -31.5800 -31.5799 -31.5794 -31.5793 -31.5763 -31.5760
    -8.3940  -8.3939  -8.0025  -8.0024   3.8122   3.8123   4.2197   4.2198
     5.8432   5.8433   6.7450   6.7452   6.8743   6.8744   6.9748   6.9749

          k = 0.2477-0.4989 0.0000 (  5153 PWs)   bands (ev):

   -64.8295 -64.8291 -64.8261 -64.8255 -31.6211 -31.6146 -31.6137 -31.6073
   -31.6072 -31.6069 -31.5863 -31.5854 -31.5851 -31.5816 -31.5777 -31.5734
    -8.5167  -8.5018  -7.9548  -7.9384   4.4083   4.4287   4.7471   4.7557
     5.0881   5.1049   6.5161   6.5643   6.5810   6.5878   7.0703   7.1191

          k = 0.2477-0.4989 0.2500 (  5137 PWs)   bands (ev):

   -64.8290 -64.8286 -64.8266 -64.8260 -31.6305 -31.6265 -31.6240 -31.6187
   -31.5936 -31.5931 -31.5823 -31.5802 -31.5794 -31.5788 -31.5770 -31.5754
    -8.4062  -8.3913  -8.0048  -7.9889   3.8054   3.8379   4.1860   4.2103
     5.8229   5.8378   6.7175   6.7644   6.8519   6.8841   7.0103   7.0250

          k = 0.2477-0.4989-0.5000 (  5144 PWs)   bands (ev):

   -64.8279 -64.8278 -64.8277 -64.8268 -31.6342 -31.6340 -31.6299 -31.6298
   -31.5849 -31.5846 -31.5824 -31.5822 -31.5757 -31.5756 -31.5749 -31.5749
    -8.1751  -8.1750  -8.1600  -8.1599   3.6233   3.6234   3.6577   3.6578
     6.4999   6.5000   6.5494   6.5494   7.0574   7.0576   7.0722   7.0723

          k = 0.2488-0.2488 0.0000 (  5151 PWs)   bands (ev):

   -64.8323 -64.8265 -64.8262 -64.8252 -31.6237 -31.6235 -31.6200 -31.6050
   -31.5944 -31.5943 -31.5900 -31.5890 -31.5849 -31.5847 -31.5759 -31.5715
    -8.9705  -8.0576  -8.0576  -7.8957   4.1596   4.1596   4.3238   5.0428
     5.8312   6.0633   6.0637   6.4751   6.4752   6.6330   7.1643   7.5390

          k = 0.2488-0.2488 0.2500 (  5146 PWs)   bands (ev):

   -64.8313 -64.8266 -64.8265 -64.8258 -31.6280 -31.6278 -31.6245 -31.6048
   -31.5918 -31.5917 -31.5915 -31.5861 -31.5840 -31.5840 -31.5740 -31.5706
    -8.8007  -8.0359  -8.0246  -8.0245   3.9830   4.0051   4.0051   5.0692
     5.8319   5.8404   5.8405   6.7009   6.7011   6.7527   7.3509   7.3916

          k = 0.2488-0.2488-0.5000 (  5128 PWs)   bands (ev):

   -64.8291 -64.8287 -64.8265 -64.8259 -31.6308 -31.6306 -31.6201 -31.6201
   -31.5898 -31.5896 -31.5819 -31.5819 -31.5802 -31.5799 -31.5766 -31.5765
    -8.4038  -8.4038  -7.9911  -7.9910   3.8311   3.8312   4.1764   4.1765
     5.8183   5.8183   6.7359   6.7361   6.8634   6.8635   7.0582   7.0582

          k =-0.5023-0.5023 0.0000 (  5188 PWs)   bands (ev):

   -64.8279 -64.8278 -64.8276 -64.8268 -31.6231 -31.6229 -31.6161 -31.6159
   -31.5973 -31.5972 -31.5971 -31.5969 -31.5779 -31.5776 -31.5745 -31.5742
    -8.2162  -8.2161  -8.1940  -8.1939   4.2869   4.2869   4.2997   4.2997
     5.7539   5.7542   5.7813   5.7816   7.0266   7.0266   7.1018   7.1018

          k =-0.5023-0.5023 0.2500 (  5140 PWs)   bands (ev):

   -64.8279 -64.8278 -64.8276 -64.8268 -31.6342 -31.6340 -31.6298 -31.6297
   -31.5842 -31.5841 -31.5822 -31.5821 -31.5780 -31.5777 -31.5733 -31.5731
    -8.1785  -8.1784  -8.1566  -8.1565   3.6264   3.6265   3.6545   3.6545
     6.5205   6.5207   6.5285   6.5287   7.0278   7.0278   7.1024   7.1025

          k =-0.5023-0.5023-0.5000 (  5136 PWs)   bands (ev):

   -64.8279 -64.8278 -64.8276 -64.8268 -31.6409 -31.6407 -31.6391 -31.6389
   -31.5772 -31.5769 -31.5760 -31.5759 -31.5745 -31.5745 -31.5736 -31.5734
    -8.1403  -8.1402  -8.1186  -8.1185   3.2003   3.2004   3.2350   3.2350
     7.0285   7.0286   7.0641   7.0643   7.0665   7.0667   7.1034   7.1034

          k = 0.2500 0.0012-0.2500 (  5153 PWs)   bands (ev):

   -64.8322 -64.8266 -64.8262 -64.8252 -31.6215 -31.6213 -31.6203 -31.6072
   -31.5947 -31.5941 -31.5931 -31.5876 -31.5867 -31.5864 -31.5756 -31.5687
    -8.9658  -8.0637  -8.0634  -7.8898   4.1613   4.1620   4.3291   5.0716
     5.8469   6.0528   6.0558   6.4853   6.4887   6.5838   7.1733   7.5065

          k = 0.2512 0.2512-0.2500 (  5158 PWs)   bands (ev):

   -64.8312 -64.8267 -64.8266 -64.8258 -31.6264 -31.6234 -31.6232 -31.6077
   -31.5964 -31.5963 -31.5959 -31.5838 -31.5838 -31.5821 -31.5724 -31.5696
    -8.7912  -8.0361  -8.0360  -8.0252   3.9962   3.9963   4.0181   5.1096
     5.8518   5.8520   5.8601   6.6594   6.7104   6.7106   7.3199   7.3600

          k =-0.4989 0.2477-0.2500 (  5137 PWs)   bands (ev):

   -64.8290 -64.8286 -64.8266 -64.8260 -31.6305 -31.6265 -31.6240 -31.6187
   -31.5936 -31.5931 -31.5823 -31.5802 -31.5794 -31.5788 -31.5770 -31.5754
    -8.4062  -8.3913  -8.0048  -7.9889   3.8054   3.8379   4.1860   4.2103
     5.8229   5.8378   6.7175   6.7644   6.8519   6.8841   7.0103   7.0250

     highest occupied level (ev):     7.7064

!    total energy              =    -608.39262817 Ry
     Harris-Foulkes estimate   =    -608.39262817 Ry
     estimated scf accuracy    <          8.0E-11 Ry

     The total energy is the sum of the following terms:

     one-electron contribution =    -303.55501713 Ry
     hartree contribution      =     168.06668491 Ry
     xc contribution           =     -97.84632326 Ry
     ewald contribution        =    -375.05797269 Ry

     convergence has been achieved in   4 iterations

     Forces acting on atoms (cartesian axes, Ry/au):

     atom    1 type  1   force =    -0.00001253   -0.00001253    0.00000107
     atom    2 type  1   force =    -0.00000814    0.00005529   -0.00000103
     atom    3 type  1   force =     0.00005529   -0.00000814   -0.00000103
     atom    4 type  1   force =    -0.00005692   -0.00005692    0.00000102
     atom    5 type  2   force =    -0.00003161    0.00004346    0.00000083
     atom    6 type  2   force =     0.00004346   -0.00003161    0.00000083
     atom    7 type  2   force =    -0.00003324   -0.00003324   -0.00000077
     atom    8 type  2   force =     0.00004369    0.00004369   -0.00000092

     Total force =     0.000158     Total SCF correction =     0.000004


     Computing stress (Cartesian axis) and pressure

          total   stress  (Ry/bohr**3)                   (kbar)     P=  -68.10
  -0.00046289   0.00008935   0.00000000        -68.09     13.14      0.00
   0.00008935  -0.00046289   0.00000000         13.14    -68.09      0.00
   0.00000000   0.00000000  -0.00046294          0.00      0.00    -68.10


     bfgs converged in   8 scf cycles and   7 bfgs steps
     (criteria: energy <  1.0E-05 Ry, force <  1.0E-04 Ry/Bohr)

     End of BFGS Geometry Optimization

     Final energy   =    -608.3926281727 Ry
Begin final coordinates

ATOMIC_POSITIONS (alat)
Mg       0.001062921   0.001062921  -0.000005321
Mg      -0.001150414   0.501157132   0.500005642
Mg       0.501157132  -0.001150414   0.500005642
Mg       0.498919010   0.498919010  -0.000005876
O        0.501190991  -0.001186798  -0.000005677
O       -0.001186798   0.501190991  -0.000005677
O        0.001162750   0.001162750   0.500005657
O        0.498844408   0.498844408   0.500005610
End final coordinates



     Writing output data file MgO.-0.009286.70.4.save
 
     init_run     :      0.46s CPU      0.48s WALL (       1 calls)
     electrons    :     49.36s CPU     50.69s WALL (       8 calls)
     update_pot   :      0.84s CPU      0.85s WALL (       7 calls)
     forces       :      1.13s CPU      1.14s WALL (       8 calls)
     stress       :      2.59s CPU      2.61s WALL (       8 calls)

     Called by init_run:
     wfcinit      :      0.34s CPU      0.35s WALL (       1 calls)
     potinit      :      0.05s CPU      0.05s WALL (       1 calls)

     Called by electrons:
     c_bands      :     43.06s CPU     44.26s WALL (      47 calls)
     sum_band     :      6.02s CPU      6.13s WALL (      47 calls)
     v_of_rho     :      0.25s CPU      0.25s WALL (      48 calls)
     mix_rho      :      0.03s CPU      0.03s WALL (      47 calls)

     Called by c_bands:
     init_us_2    :      0.62s CPU      0.66s WALL (    2664 calls)
     cegterg      :     40.25s CPU     41.33s WALL (    1128 calls)

     Called by sum_band:

     Called by *egterg:
     h_psi        :     29.26s CPU     29.89s WALL (    3902 calls)
     g_psi        :      0.22s CPU      0.22s WALL (    2750 calls)
     cdiaghg      :      5.91s CPU      5.91s WALL (    3542 calls)

     Called by h_psi:
     h_psi:pot    :     29.15s CPU     29.74s WALL (    3902 calls)
     h_psi:calbec :      1.68s CPU      1.68s WALL (    3902 calls)
     vloc_psi     :     26.09s CPU     26.66s WALL (    3902 calls)
     add_vuspsi   :      1.37s CPU      1.38s WALL (    3902 calls)

     General routines
     calbec       :      2.23s CPU      2.23s WALL (    4862 calls)
     fft          :      0.27s CPU      0.28s WALL (     741 calls)
     fftw         :     29.58s CPU     29.15s WALL (  226932 calls)
     davcio       :      0.00s CPU      0.01s WALL (      24 calls)
 
     Parallel routines
     fft_scatter  :      7.93s CPU      7.83s WALL (  227673 calls)
 
     PWSCF        :    54.89s CPU        56.43s WALL

 
   This run was terminated on:  19: 8:19  22Apr2018            

=------------------------------------------------------------------------------=
   JOB DONE.
=------------------------------------------------------------------------------=
