
     Program PWSCF v.6.1 (svn rev. 13369) starts on 22Apr2018 at 19: 9:23 

     This program is part of the open-source Quantum ESPRESSO suite
     for quantum simulation of materials; please cite
         "P. Giannozzi et al., J. Phys.:Condens. Matter 21 395502 (2009);
          URL http://www.quantum-espresso.org", 
     in publications or presentations arising from this work. More details at
     http://www.quantum-espresso.org/quote

     Parallel version (MPI), running on     8 processors
     R & G space division:  proc/nbgrp/npool/nimage =       8
     Waiting for input...
     Reading input from standard input
Warning: card       &CELL ignored
Warning: card          CELL_DYNAMICS = 'BFGS' ignored
Warning: card          PRESS = 0.0D0 ignored
Warning: card          PRESS_CONV_THR = 0.01D0 ignored
Warning: card       / ignored

     Current dimensions of program PWSCF are:
     Max number of different atomic species (ntypx) = 10
     Max number of k-points (npk) =  40000
     Max angular momentum in pseudopotentials (lmaxx) =  3

     Subspace diagonalization in iterative solution of the eigenvalue problem:
     a serial algorithm will be used

 
     Parallelization info
     --------------------
     sticks:   dense  smooth     PW     G-vecs:    dense   smooth      PW
     Min         181     181     52                 5155     5155     822
     Max         182     182     53                 5157     5157     825
     Sum        1449    1449    421                41251    41251    6591
 


     bravais-lattice index     =            0
     lattice parameter (alat)  =       8.0448  a.u.
     unit-cell volume          =     520.6402 (a.u.)^3
     number of atoms/cell      =            8
     number of atomic types    =            2
     number of electrons       =        64.00
     number of Kohn-Sham states=           32
     kinetic-energy cutoff     =      70.0000  Ry
     charge density cutoff     =     280.0000  Ry
     convergence threshold     =      1.0E-08
     mixing beta               =       0.7000
     number of iterations used =            8  plain     mixing
     Exchange-correlation      = PBE ( 1  4  3  4 0 0)
     nstep                     =           50


     celldm(1)=   8.044750  celldm(2)=   0.000000  celldm(3)=   0.000000
     celldm(4)=   0.000000  celldm(5)=   0.000000  celldm(6)=   0.000000

     crystal axes: (cart. coord. in units of alat)
               a(1) = (   1.000000   0.000357   0.000000 )  
               a(2) = (   0.000357   1.000000   0.000000 )  
               a(3) = (   0.000000   0.000000   1.000000 )  

     reciprocal axes: (cart. coord. in units 2 pi/alat)
               b(1) = (  1.000000 -0.000357  0.000000 )  
               b(2) = ( -0.000357  1.000000  0.000000 )  
               b(3) = (  0.000000  0.000000  1.000000 )  


     PseudoPot. # 1 for Mg read from file:
     ../pseudo/Mg.pbe.UPF
     MD5 check sum: 4c04d8c6e0476e83eaecaf72fa8acc4d
     Pseudo is Norm-conserving, Zval = 10.0
     Generated using ONCVPSP code by D. R. Hamann
     Using radial grid of 1510 points,  4 beta functions with: 
                l(1) =   0
                l(2) =   0
                l(3) =   1
                l(4) =   1

     PseudoPot. # 2 for O  read from file:
     ../pseudo/O.pbe.UPF
     MD5 check sum: 3e3f909f7470e8921608ab6b1f57bbae
     Pseudo is Norm-conserving + core correction, Zval =  6.0
     Generated using ONCVPSP code by D. R. Hamann
     Using radial grid of  936 points,  5 beta functions with: 
                l(1) =   0
                l(2) =   0
                l(3) =   1
                l(4) =   1
                l(5) =   2

     atomic species   valence    mass     pseudopotential
        Mg            10.00    24.30500     Mg( 1.00)
        O              6.00    15.99940     O ( 1.00)

      4 Sym. Ops. (no inversion) found



   Cartesian axes

     site n.     atom                  positions (alat units)
         1           Mg  tau(   1) = (   0.0000000   0.0000000   0.0000000  )
         2           Mg  tau(   2) = (   0.0000000   0.5000000   0.5000000  )
         3           Mg  tau(   3) = (   0.5000000   0.0000000   0.5000000  )
         4           Mg  tau(   4) = (   0.5000000   0.5000000   0.0000000  )
         5           O   tau(   5) = (   0.5000000   0.0000000   0.0000000  )
         6           O   tau(   6) = (   0.0000000   0.5000000   0.0000000  )
         7           O   tau(   7) = (   0.0000000   0.0000000   0.5000000  )
         8           O   tau(   8) = (   0.5000000   0.5000000   0.5000000  )

     number of k points=    21
                       cart. coord. in units 2pi/alat
        k(    1) = (   0.0000000   0.0000000   0.0000000), wk =   0.0312500
        k(    2) = (   0.0000000   0.0000000   0.2500000), wk =   0.0625000
        k(    3) = (   0.0000000   0.0000000  -0.4999999), wk =   0.0312500
        k(    4) = (  -0.0000893   0.2500000   0.0000000), wk =   0.1250000
        k(    5) = (  -0.0000893   0.2500000   0.2500000), wk =   0.2500000
        k(    6) = (  -0.0000893   0.2500000  -0.4999999), wk =   0.1250000
        k(    7) = (   0.0001785  -0.5000001   0.0000000), wk =   0.0625000
        k(    8) = (   0.0001785  -0.5000001   0.2500000), wk =   0.1250000
        k(    9) = (   0.0001785  -0.5000001  -0.4999999), wk =   0.0625000
        k(   10) = (   0.2499108   0.2499108   0.0000000), wk =   0.0625000
        k(   11) = (   0.2499108   0.2499108   0.2500000), wk =   0.1250000
        k(   12) = (   0.2499108   0.2499108  -0.4999999), wk =   0.0625000
        k(   13) = (   0.2501785  -0.5000893   0.0000000), wk =   0.1250000
        k(   14) = (   0.2501785  -0.5000893   0.2500000), wk =   0.2500000
        k(   15) = (   0.2501785  -0.5000893  -0.4999999), wk =   0.1250000
        k(   16) = (   0.2500893  -0.2500893   0.0000000), wk =   0.0625000
        k(   17) = (   0.2500893  -0.2500893   0.2500000), wk =   0.1250000
        k(   18) = (   0.2500893  -0.2500893  -0.4999999), wk =   0.0625000
        k(   19) = (  -0.4998216  -0.4998216   0.0000000), wk =   0.0312500
        k(   20) = (  -0.4998216  -0.4998216   0.2500000), wk =   0.0625000
        k(   21) = (  -0.4998216  -0.4998216  -0.4999999), wk =   0.0312500

     Dense  grid:    41251 G-vectors     FFT dimensions: (  45,  45,  45)

     Estimated max dynamical RAM per process >      12.51MB

     Estimated total allocated dynamical RAM >     100.05MB

     Check: negative/imaginary core charge=   -0.000008    0.000000

     Initial potential from superposition of free atoms

     starting charge   63.99678, renormalised to   64.00000
     Starting wfc are   36 randomized atomic wfcs

     total cpu time spent up to now is        0.6 secs

     per-process dynamical memory:    48.0 Mb

     Self-consistent Calculation

     iteration #  1     ecut=    70.00 Ry     beta=0.70
     Davidson diagonalization with overlap
     ethr =  1.00E-02,  avg # of iterations =  2.0

     total cpu time spent up to now is        1.4 secs

     total energy              =    -607.72016079 Ry
     Harris-Foulkes estimate   =    -608.84389741 Ry
     estimated scf accuracy    <       1.56145019 Ry

     iteration #  2     ecut=    70.00 Ry     beta=0.70
     Davidson diagonalization with overlap
     ethr =  2.44E-03,  avg # of iterations =  2.9

     total cpu time spent up to now is        2.4 secs

     total energy              =    -608.10598443 Ry
     Harris-Foulkes estimate   =    -608.80363754 Ry
     estimated scf accuracy    <       1.44838148 Ry

     iteration #  3     ecut=    70.00 Ry     beta=0.70
     Davidson diagonalization with overlap
     ethr =  2.26E-03,  avg # of iterations =  2.0

     total cpu time spent up to now is        3.3 secs

     total energy              =    -608.39143901 Ry
     Harris-Foulkes estimate   =    -608.39209726 Ry
     estimated scf accuracy    <       0.00675415 Ry

     iteration #  4     ecut=    70.00 Ry     beta=0.70
     Davidson diagonalization with overlap
     ethr =  1.06E-05,  avg # of iterations =  2.0

     total cpu time spent up to now is        4.1 secs

     total energy              =    -608.39291658 Ry
     Harris-Foulkes estimate   =    -608.39296108 Ry
     estimated scf accuracy    <       0.00011095 Ry

     iteration #  5     ecut=    70.00 Ry     beta=0.70
     Davidson diagonalization with overlap
     ethr =  1.73E-07,  avg # of iterations =  1.5

     total cpu time spent up to now is        4.9 secs

     total energy              =    -608.39292395 Ry
     Harris-Foulkes estimate   =    -608.39292248 Ry
     estimated scf accuracy    <       0.00001034 Ry

     iteration #  6     ecut=    70.00 Ry     beta=0.70
     Davidson diagonalization with overlap
     ethr =  1.62E-08,  avg # of iterations =  2.0

     total cpu time spent up to now is        5.9 secs

     total energy              =    -608.39292553 Ry
     Harris-Foulkes estimate   =    -608.39292595 Ry
     estimated scf accuracy    <       0.00000109 Ry

     iteration #  7     ecut=    70.00 Ry     beta=0.70
     Davidson diagonalization with overlap
     ethr =  1.70E-09,  avg # of iterations =  2.0

     total cpu time spent up to now is        6.7 secs

     total energy              =    -608.39292552 Ry
     Harris-Foulkes estimate   =    -608.39292564 Ry
     estimated scf accuracy    <       0.00000028 Ry

     iteration #  8     ecut=    70.00 Ry     beta=0.70
     Davidson diagonalization with overlap
     ethr =  4.40E-10,  avg # of iterations =  2.0

     total cpu time spent up to now is        7.6 secs

     total energy              =    -608.39292553 Ry
     Harris-Foulkes estimate   =    -608.39292555 Ry
     estimated scf accuracy    <       0.00000004 Ry

     iteration #  9     ecut=    70.00 Ry     beta=0.70
     Davidson diagonalization with overlap
     ethr =  6.71E-11,  avg # of iterations =  2.0

     total cpu time spent up to now is        8.6 secs

     End of self-consistent calculation

          k = 0.0000 0.0000 0.0000 (  5137 PWs)   bands (ev):

   -64.8342 -64.8248 -64.8247 -64.8240 -31.6307 -31.6307 -31.6307 -31.5933
   -31.5932 -31.5932 -31.5932 -31.5931 -31.5930 -31.5633 -31.5631 -31.5628
    -9.3647  -7.9139  -7.9137  -7.9137   3.7581   3.7581   3.7581   6.3759
     6.3798   6.3800   6.3800   6.3802   6.3842   7.6699   7.6725   7.6751

          k = 0.0000 0.0000 0.2500 (  5161 PWs)   bands (ev):

   -64.8328 -64.8260 -64.8247 -64.8241 -31.6241 -31.6241 -31.6202 -31.5981
   -31.5981 -31.5937 -31.5937 -31.5890 -31.5886 -31.5779 -31.5714 -31.5710
    -9.1562  -8.1286  -7.8854  -7.8852   4.0484   4.0484   4.0955   5.8581
     5.8581   6.1704   6.1708   6.5387   6.5467   6.6589   7.4473   7.4531

          k = 0.0000 0.0000-0.5000 (  5110 PWs)   bands (ev):

   -64.8296 -64.8291 -64.8247 -64.8242 -31.6095 -31.6093 -31.6088 -31.6086
   -31.6017 -31.6017 -31.5905 -31.5904 -31.5805 -31.5803 -31.5802 -31.5799
    -8.6460  -8.6459  -7.8566  -7.8564   4.8474   4.8475   4.8484   4.8484
     5.1226   5.1229   5.9733   5.9737   6.9648   6.9648   6.9718   6.9718

          k =-0.0001 0.2500 0.0000 (  5161 PWs)   bands (ev):

   -64.8328 -64.8260 -64.8247 -64.8241 -31.6241 -31.6241 -31.6202 -31.5981
   -31.5981 -31.5937 -31.5937 -31.5888 -31.5888 -31.5779 -31.5712 -31.5712
    -9.1562  -8.1286  -7.8853  -7.8853   4.0484   4.0484   4.0955   5.8580
     5.8581   6.1705   6.1708   6.5427   6.5427   6.6589   7.4502   7.4502

          k =-0.0001 0.2500 0.2500 (  5169 PWs)   bands (ev):

   -64.8316 -64.8260 -64.8256 -64.8245 -31.6212 -31.6210 -31.6193 -31.6069
   -31.5942 -31.5942 -31.5927 -31.5876 -31.5868 -31.5866 -31.5751 -31.5682
    -8.9661  -8.0642  -8.0636  -7.8903   4.1607   4.1616   4.3287   5.0713
     5.8470   6.0546   6.0560   6.4843   6.4849   6.5834   7.1733   7.5055

          k =-0.0001 0.2500-0.5000 (  5148 PWs)   bands (ev):

   -64.8289 -64.8284 -64.8254 -64.8248 -31.6171 -31.6169 -31.6098 -31.6098
   -31.6065 -31.6063 -31.5848 -31.5845 -31.5834 -31.5833 -31.5750 -31.5749
    -8.5097  -8.5095  -7.9470  -7.9469   4.4184   4.4184   4.7511   4.7513
     5.0963   5.0963   6.5478   6.5480   6.5757   6.5758   7.0941   7.0941

          k = 0.0002-0.5000 0.0000 (  5110 PWs)   bands (ev):

   -64.8296 -64.8291 -64.8247 -64.8242 -31.6092 -31.6092 -31.6089 -31.6089
   -31.6017 -31.6017 -31.5905 -31.5904 -31.5804 -31.5803 -31.5801 -31.5801
    -8.6460  -8.6459  -7.8565  -7.8565   4.8479   4.8479   4.8479   4.8479
     5.1226   5.1229   5.9734   5.9737   6.9683   6.9683   6.9683   6.9683

          k = 0.0002-0.5000 0.2500 (  5144 PWs)   bands (ev):

   -64.8289 -64.8284 -64.8254 -64.8248 -31.6170 -31.6168 -31.6097 -31.6097
   -31.6065 -31.6063 -31.5845 -31.5843 -31.5834 -31.5834 -31.5749 -31.5748
    -8.5096  -8.5096  -7.9470  -7.9469   4.4184   4.4184   4.7511   4.7513
     5.0963   5.0963   6.5478   6.5480   6.5758   6.5758   7.0941   7.0941

          k = 0.0002-0.5000-0.5000 (  5216 PWs)   bands (ev):

   -64.8272 -64.8272 -64.8271 -64.8261 -31.6192 -31.6190 -31.6189 -31.6189
   -31.5972 -31.5970 -31.5970 -31.5967 -31.5767 -31.5765 -31.5763 -31.5763
    -8.2058  -8.2057  -8.2050  -8.2049   4.2925   4.2926   4.2939   4.2940
     5.7661   5.7662   5.7680   5.7681   7.0628   7.0629   7.0636   7.0637

          k = 0.2499 0.2499 0.0000 (  5169 PWs)   bands (ev):

   -64.8316 -64.8259 -64.8256 -64.8245 -31.6214 -31.6213 -31.6193 -31.6067
   -31.5942 -31.5942 -31.5925 -31.5878 -31.5866 -31.5865 -31.5752 -31.5684
    -8.9665  -8.0635  -8.0634  -7.8907   4.1609   4.1610   4.3283   5.0691
     5.8458   6.0557   6.0561   6.4838   6.4838   6.5871   7.1726   7.5081

          k = 0.2499 0.2499 0.2500 (  5164 PWs)   bands (ev):

   -64.8306 -64.8259 -64.8259 -64.8251 -31.6253 -31.6251 -31.6249 -31.6059
   -31.5935 -31.5934 -31.5932 -31.5841 -31.5840 -31.5840 -31.5712 -31.5712
    -8.7966  -8.0313  -8.0303  -8.0303   3.9989   4.0007   4.0008   5.0876
     5.8438   5.8452   5.8458   6.7048   6.7050   6.7088   7.3549   7.3580

          k = 0.2499 0.2499-0.5000 (  5128 PWs)   bands (ev):

   -64.8284 -64.8280 -64.8259 -64.8253 -31.6275 -31.6273 -31.6207 -31.6206
   -31.5923 -31.5921 -31.5802 -31.5802 -31.5778 -31.5776 -31.5774 -31.5773
    -8.3996  -8.3994  -7.9968  -7.9967   3.8223   3.8223   4.1962   4.1963
     5.8295   5.8295   6.7398   6.7401   6.8683   6.8684   7.0191   7.0192

          k = 0.2502-0.5001 0.0000 (  5142 PWs)   bands (ev):

   -64.8289 -64.8284 -64.8254 -64.8248 -31.6172 -31.6166 -31.6100 -31.6094
   -31.6065 -31.6062 -31.5845 -31.5843 -31.5835 -31.5831 -31.5751 -31.5746
    -8.5102  -8.5090  -7.9476  -7.9463   4.4176   4.4192   4.7509   4.7516
     5.0957   5.0970   6.5454   6.5504   6.5749   6.5767   7.0923   7.0960

          k = 0.2502-0.5001 0.2500 (  5128 PWs)   bands (ev):

   -64.8284 -64.8280 -64.8259 -64.8253 -31.6274 -31.6269 -31.6210 -31.6205
   -31.5926 -31.5923 -31.5802 -31.5800 -31.5777 -31.5776 -31.5774 -31.5772
    -8.3997  -8.3986  -7.9978  -7.9966   3.8203   3.8228   4.1970   4.1989
     5.8299   5.8310   6.7385   6.7421   6.8675   6.8700   7.0154   7.0165

          k = 0.2502-0.5001-0.5000 (  5140 PWs)   bands (ev):

   -64.8272 -64.8271 -64.8271 -64.8261 -31.6315 -31.6313 -31.6310 -31.6309
   -31.5829 -31.5826 -31.5825 -31.5823 -31.5753 -31.5751 -31.5750 -31.5750
    -8.1685  -8.1684  -8.1672  -8.1671   3.6389   3.6389   3.6417   3.6418
     6.5223   6.5223   6.5263   6.5263   7.0637   7.0638   7.0649   7.0651

          k = 0.2501-0.2501 0.0000 (  5169 PWs)   bands (ev):

   -64.8316 -64.8260 -64.8256 -64.8245 -31.6210 -31.6208 -31.6193 -31.6072
   -31.5942 -31.5942 -31.5930 -31.5875 -31.5870 -31.5868 -31.5751 -31.5680
    -8.9657  -8.0644  -8.0643  -7.8899   4.1613   4.1614   4.3290   5.0735
     5.8483   6.0545   6.0549   6.4853   6.4854   6.5797   7.1740   7.5030

          k = 0.2501-0.2501 0.2500 (  5160 PWs)   bands (ev):

   -64.8306 -64.8260 -64.8259 -64.8251 -31.6249 -31.6247 -31.6246 -31.6059
   -31.5937 -31.5936 -31.5934 -31.5839 -31.5839 -31.5838 -31.5714 -31.5711
    -8.7959  -8.0313  -8.0312  -8.0302   3.9999   4.0000   4.0019   5.0907
     5.8455   5.8460   5.8476   6.7017   6.7056   6.7058   7.3525   7.3556

          k = 0.2501-0.2501-0.5000 (  5128 PWs)   bands (ev):

   -64.8284 -64.8280 -64.8259 -64.8253 -31.6270 -31.6268 -31.6209 -31.6208
   -31.5928 -31.5926 -31.5800 -31.5800 -31.5776 -31.5775 -31.5775 -31.5772
    -8.3988  -8.3987  -7.9977  -7.9975   3.8208   3.8209   4.1995   4.1997
     5.8314   5.8314   6.7406   6.7408   6.8691   6.8692   7.0127   7.0128

          k =-0.4998-0.4998 0.0000 (  5216 PWs)   bands (ev):

   -64.8272 -64.8272 -64.8271 -64.8261 -31.6194 -31.6192 -31.6188 -31.6185
   -31.5972 -31.5970 -31.5970 -31.5968 -31.5768 -31.5765 -31.5764 -31.5761
    -8.2063  -8.2062  -8.2046  -8.2045   4.2928   4.2928   4.2937   4.2938
     5.7658   5.7662   5.7680   5.7683   7.0604   7.0604   7.0661   7.0662

          k =-0.4998-0.4998 0.2500 (  5140 PWs)   bands (ev):

   -64.8272 -64.8271 -64.8271 -64.8261 -31.6315 -31.6313 -31.6310 -31.6309
   -31.5828 -31.5827 -31.5825 -31.5824 -31.5754 -31.5752 -31.5750 -31.5748
    -8.1687  -8.1686  -8.1671  -8.1669   3.6392   3.6393   3.6414   3.6414
     6.5239   6.5242   6.5245   6.5248   7.0615   7.0615   7.0672   7.0673

          k =-0.4998-0.4998-0.5000 (  5136 PWs)   bands (ev):

   -64.8272 -64.8271 -64.8271 -64.8261 -31.6408 -31.6407 -31.6376 -31.6374
   -31.5754 -31.5753 -31.5753 -31.5751 -31.5741 -31.5740 -31.5740 -31.5738
    -8.1307  -8.1306  -8.1289  -8.1287   3.2159   3.2159   3.2191   3.2191
     7.0621   7.0621   7.0650   7.0652   7.0653   7.0655   7.0684   7.0685

     highest occupied level (ev):     7.6751

!    total energy              =    -608.39292554 Ry
     Harris-Foulkes estimate   =    -608.39292554 Ry
     estimated scf accuracy    <          1.2E-09 Ry

     The total energy is the sum of the following terms:

     one-electron contribution =    -303.55825321 Ry
     hartree contribution      =     168.06838642 Ry
     xc contribution           =     -97.84642553 Ry
     ewald contribution        =    -375.05663322 Ry

     convergence has been achieved in   9 iterations

     Forces acting on atoms (cartesian axes, Ry/au):

     atom    1 type  1   force =    -0.00008358   -0.00008358    0.00000000
     atom    2 type  1   force =     0.00009274   -0.00008515    0.00000000
     atom    3 type  1   force =    -0.00008515    0.00009274    0.00000000
     atom    4 type  1   force =     0.00007288    0.00007288    0.00000000
     atom    5 type  2   force =    -0.00010578    0.00011229    0.00000000
     atom    6 type  2   force =     0.00011229   -0.00010578    0.00000000
     atom    7 type  2   force =    -0.00010410   -0.00010410    0.00000000
     atom    8 type  2   force =     0.00010070    0.00010070    0.00000000

     Total force =     0.000382     Total SCF correction =     0.000011


     Computing stress (Cartesian axis) and pressure

          total   stress  (Ry/bohr**3)                   (kbar)     P=  -67.93
  -0.00046182  -0.00000694   0.00000000        -67.94     -1.02      0.00
  -0.00000694  -0.00046182   0.00000000         -1.02    -67.94      0.00
   0.00000000   0.00000000  -0.00046168          0.00      0.00    -67.91


     BFGS Geometry Optimization

     number of scf cycles    =   1
     number of bfgs steps    =   0

     energy   new            =    -608.3929255350 Ry

     new trust radius        =       0.0001542693 bohr
     new conv_thr            =       0.0000000100 Ry


ATOMIC_POSITIONS (alat)
Mg      -0.000010389  -0.000010389   0.000000000
Mg       0.000011528   0.499989416   0.500000000
Mg       0.499989416   0.000011528   0.500000000
Mg       0.500009060   0.500009060   0.000000000
O        0.499986851   0.000013958   0.000000000
O        0.000013958   0.499986851   0.000000000
O       -0.000012941  -0.000012941   0.500000000
O        0.500012517   0.500012517   0.500000000



     Writing output data file MgO.0.000714.70.4.save
     NEW-OLD atomic charge density approx. for the potential

     Check: negative/imaginary core charge=   -0.000008    0.000000

     total cpu time spent up to now is        9.2 secs

     per-process dynamical memory:    52.7 Mb

     Self-consistent Calculation

     iteration #  1     ecut=    70.00 Ry     beta=0.70
     Davidson diagonalization with overlap
     ethr =  1.00E-06,  avg # of iterations =  1.7

     Threshold (ethr) on eigenvalues was too large:
     Diagonalizing with lowered threshold

     Davidson diagonalization with overlap
     ethr =  2.77E-11,  avg # of iterations =  3.6

     total cpu time spent up to now is       11.3 secs

     total energy              =    -608.39292567 Ry
     Harris-Foulkes estimate   =    -608.39292568 Ry
     estimated scf accuracy    <       0.00000001 Ry

     iteration #  2     ecut=    70.00 Ry     beta=0.70
     Davidson diagonalization with overlap
     ethr =  1.71E-11,  avg # of iterations =  2.1

     total cpu time spent up to now is       12.1 secs

     End of self-consistent calculation

          k = 0.0000 0.0000 0.0000 (  5137 PWs)   bands (ev):

   -64.8344 -64.8249 -64.8249 -64.8241 -31.6309 -31.6308 -31.6308 -31.5935
   -31.5933 -31.5933 -31.5933 -31.5933 -31.5931 -31.5634 -31.5632 -31.5630
    -9.3647  -7.9139  -7.9138  -7.9137   3.7581   3.7581   3.7581   6.3759
     6.3798   6.3800   6.3800   6.3803   6.3842   7.6699   7.6725   7.6750

          k = 0.0000 0.0000 0.2500 (  5161 PWs)   bands (ev):

   -64.8330 -64.8261 -64.8249 -64.8243 -31.6243 -31.6243 -31.6203 -31.5982
   -31.5982 -31.5939 -31.5938 -31.5891 -31.5888 -31.5781 -31.5716 -31.5712
    -9.1563  -8.1286  -7.8854  -7.8852   4.0484   4.0484   4.0955   5.8581
     5.8581   6.1704   6.1709   6.5387   6.5467   6.6589   7.4473   7.4531

          k = 0.0000 0.0000-0.5000 (  5110 PWs)   bands (ev):

   -64.8298 -64.8293 -64.8249 -64.8243 -31.6097 -31.6094 -31.6090 -31.6087
   -31.6018 -31.6018 -31.5906 -31.5906 -31.5807 -31.5804 -31.5803 -31.5801
    -8.6461  -8.6459  -7.8566  -7.8564   4.8474   4.8475   4.8483   4.8485
     5.1226   5.1230   5.9733   5.9737   6.9647   6.9649   6.9717   6.9719

          k =-0.0001 0.2500 0.0000 (  5161 PWs)   bands (ev):

   -64.8330 -64.8262 -64.8249 -64.8243 -31.6243 -31.6243 -31.6203 -31.5982
   -31.5982 -31.5939 -31.5938 -31.5890 -31.5889 -31.5781 -31.5714 -31.5713
    -9.1563  -8.1286  -7.8854  -7.8853   4.0484   4.0484   4.0955   5.8580
     5.8581   6.1705   6.1708   6.5427   6.5427   6.6589   7.4502   7.4502

          k =-0.0001 0.2500 0.2500 (  5169 PWs)   bands (ev):

   -64.8318 -64.8261 -64.8257 -64.8247 -31.6213 -31.6212 -31.6194 -31.6071
   -31.5944 -31.5943 -31.5929 -31.5878 -31.5869 -31.5868 -31.5753 -31.5683
    -8.9661  -8.0642  -8.0637  -7.8903   4.1607   4.1615   4.3286   5.0713
     5.8470   6.0546   6.0559   6.4843   6.4849   6.5834   7.1733   7.5055

          k =-0.0001 0.2500-0.5000 (  5148 PWs)   bands (ev):

   -64.8291 -64.8286 -64.8256 -64.8250 -31.6172 -31.6171 -31.6100 -31.6099
   -31.6067 -31.6064 -31.5849 -31.5847 -31.5835 -31.5835 -31.5752 -31.5750
    -8.5097  -8.5095  -7.9471  -7.9468   4.4184   4.4184   4.7511   4.7513
     5.0962   5.0964   6.5477   6.5480   6.5757   6.5758   7.0941   7.0941

          k = 0.0002-0.5000 0.0000 (  5110 PWs)   bands (ev):

   -64.8298 -64.8293 -64.8249 -64.8243 -31.6093 -31.6093 -31.6091 -31.6091
   -31.6018 -31.6018 -31.5906 -31.5906 -31.5805 -31.5805 -31.5803 -31.5803
    -8.6460  -8.6459  -7.8566  -7.8565   4.8479   4.8479   4.8479   4.8479
     5.1226   5.1229   5.9734   5.9737   6.9683   6.9683   6.9683   6.9683

          k = 0.0002-0.5000 0.2500 (  5144 PWs)   bands (ev):

   -64.8290 -64.8286 -64.8256 -64.8250 -31.6171 -31.6170 -31.6099 -31.6098
   -31.6067 -31.6065 -31.5847 -31.5844 -31.5836 -31.5835 -31.5751 -31.5749
    -8.5097  -8.5096  -7.9470  -7.9469   4.4184   4.4184   4.7511   4.7513
     5.0963   5.0963   6.5477   6.5480   6.5758   6.5758   7.0941   7.0941

          k = 0.0002-0.5000-0.5000 (  5216 PWs)   bands (ev):

   -64.8273 -64.8273 -64.8273 -64.8263 -31.6193 -31.6191 -31.6190 -31.6190
   -31.5974 -31.5972 -31.5972 -31.5969 -31.5768 -31.5766 -31.5765 -31.5765
    -8.2058  -8.2056  -8.2052  -8.2050   4.2926   4.2927   4.2938   4.2939
     5.7662   5.7664   5.7678   5.7679   7.0628   7.0630   7.0635   7.0637

          k = 0.2499 0.2499 0.0000 (  5169 PWs)   bands (ev):

   -64.8318 -64.8261 -64.8257 -64.8247 -31.6216 -31.6214 -31.6194 -31.6068
   -31.5944 -31.5943 -31.5926 -31.5879 -31.5868 -31.5866 -31.5753 -31.5685
    -8.9665  -8.0636  -8.0634  -7.8907   4.1609   4.1610   4.3283   5.0691
     5.8458   6.0556   6.0561   6.4838   6.4839   6.5871   7.1726   7.5080

          k = 0.2499 0.2499 0.2500 (  5164 PWs)   bands (ev):

   -64.8308 -64.8261 -64.8261 -64.8253 -31.6255 -31.6253 -31.6250 -31.6060
   -31.5936 -31.5936 -31.5933 -31.5843 -31.5841 -31.5841 -31.5714 -31.5714
    -8.7966  -8.0313  -8.0304  -8.0302   3.9989   4.0007   4.0008   5.0876
     5.8439   5.8453   5.8456   6.7047   6.7050   6.7088   7.3549   7.3580

          k = 0.2499 0.2499-0.5000 (  5128 PWs)   bands (ev):

   -64.8285 -64.8281 -64.8261 -64.8255 -31.6276 -31.6274 -31.6208 -31.6207
   -31.5924 -31.5922 -31.5804 -31.5803 -31.5780 -31.5778 -31.5775 -31.5774
    -8.3996  -8.3994  -7.9969  -7.9966   3.8223   3.8223   4.1962   4.1963
     5.8294   5.8295   6.7398   6.7401   6.8683   6.8684   7.0191   7.0192

          k = 0.2502-0.5001 0.0000 (  5142 PWs)   bands (ev):

   -64.8290 -64.8286 -64.8256 -64.8250 -31.6174 -31.6168 -31.6101 -31.6095
   -31.6066 -31.6064 -31.5847 -31.5844 -31.5836 -31.5832 -31.5752 -31.5748
    -8.5102  -8.5090  -7.9476  -7.9463   4.4176   4.4192   4.7509   4.7516
     5.0957   5.0970   6.5454   6.5504   6.5749   6.5767   7.0922   7.0960

          k = 0.2502-0.5001 0.2500 (  5128 PWs)   bands (ev):

   -64.8285 -64.8281 -64.8261 -64.8255 -31.6275 -31.6271 -31.6211 -31.6207
   -31.5927 -31.5925 -31.5804 -31.5801 -31.5779 -31.5778 -31.5775 -31.5774
    -8.3997  -8.3986  -7.9978  -7.9966   3.8203   3.8228   4.1970   4.1989
     5.8299   5.8310   6.7385   6.7421   6.8675   6.8700   7.0154   7.0165

          k = 0.2502-0.5001-0.5000 (  5140 PWs)   bands (ev):

   -64.8273 -64.8273 -64.8273 -64.8263 -31.6316 -31.6314 -31.6311 -31.6311
   -31.5830 -31.5828 -31.5827 -31.5825 -31.5755 -31.5753 -31.5751 -31.5751
    -8.1686  -8.1684  -8.1673  -8.1671   3.6389   3.6390   3.6417   3.6417
     6.5223   6.5224   6.5263   6.5263   7.0637   7.0638   7.0649   7.0650

          k = 0.2501-0.2501 0.0000 (  5169 PWs)   bands (ev):

   -64.8318 -64.8261 -64.8257 -64.8247 -31.6211 -31.6210 -31.6194 -31.6073
   -31.5944 -31.5943 -31.5931 -31.5876 -31.5871 -31.5870 -31.5753 -31.5681
    -8.9657  -8.0645  -8.0643  -7.8899   4.1613   4.1614   4.3290   5.0735
     5.8483   6.0545   6.0549   6.4853   6.4854   6.5797   7.1740   7.5030

          k = 0.2501-0.2501 0.2500 (  5160 PWs)   bands (ev):

   -64.8307 -64.8261 -64.8261 -64.8253 -31.6250 -31.6248 -31.6248 -31.6060
   -31.5939 -31.5938 -31.5935 -31.5840 -31.5840 -31.5839 -31.5715 -31.5713
    -8.7959  -8.0313  -8.0312  -8.0303   3.9999   4.0000   4.0019   5.0907
     5.8456   5.8459   5.8474   6.7017   6.7055   6.7058   7.3525   7.3556

          k = 0.2501-0.2501-0.5000 (  5128 PWs)   bands (ev):

   -64.8285 -64.8281 -64.8261 -64.8255 -31.6271 -31.6270 -31.6210 -31.6210
   -31.5930 -31.5927 -31.5802 -31.5801 -31.5778 -31.5777 -31.5776 -31.5774
    -8.3989  -8.3987  -7.9977  -7.9975   3.8208   3.8208   4.1995   4.1996
     5.8313   5.8315   6.7405   6.7408   6.8691   6.8692   7.0127   7.0128

          k =-0.4998-0.4998 0.0000 (  5216 PWs)   bands (ev):

   -64.8273 -64.8273 -64.8273 -64.8263 -31.6196 -31.6193 -31.6189 -31.6187
   -31.5974 -31.5972 -31.5972 -31.5969 -31.5769 -31.5767 -31.5765 -31.5763
    -8.2063  -8.2061  -8.2046  -8.2044   4.2927   4.2928   4.2937   4.2938
     5.7658   5.7662   5.7679   5.7684   7.0603   7.0604   7.0660   7.0662

          k =-0.4998-0.4998 0.2500 (  5140 PWs)   bands (ev):

   -64.8273 -64.8273 -64.8273 -64.8263 -31.6317 -31.6315 -31.6311 -31.6310
   -31.5830 -31.5828 -31.5826 -31.5825 -31.5756 -31.5753 -31.5751 -31.5749
    -8.1688  -8.1686  -8.1671  -8.1669   3.6392   3.6393   3.6414   3.6414
     6.5239   6.5242   6.5245   6.5248   7.0614   7.0616   7.0671   7.0673

          k =-0.4998-0.4998-0.5000 (  5136 PWs)   bands (ev):

   -64.8273 -64.8273 -64.8273 -64.8263 -31.6410 -31.6408 -31.6377 -31.6376
   -31.5756 -31.5754 -31.5754 -31.5753 -31.5742 -31.5742 -31.5742 -31.5740
    -8.1308  -8.1306  -8.1289  -8.1287   3.2159   3.2159   3.2191   3.2191
     7.0620   7.0622   7.0650   7.0652   7.0653   7.0655   7.0683   7.0685

     highest occupied level (ev):     7.6750

!    total energy              =    -608.39292567 Ry
     Harris-Foulkes estimate   =    -608.39292567 Ry
     estimated scf accuracy    <          1.7E-09 Ry

     The total energy is the sum of the following terms:

     one-electron contribution =    -303.55845228 Ry
     hartree contribution      =     168.06864471 Ry
     xc contribution           =     -97.84648598 Ry
     ewald contribution        =    -375.05663212 Ry

     convergence has been achieved in   2 iterations

     Forces acting on atoms (cartesian axes, Ry/au):

     atom    1 type  1   force =    -0.00006915   -0.00006915    0.00000000
     atom    2 type  1   force =     0.00007665   -0.00007217    0.00000000
     atom    3 type  1   force =    -0.00007217    0.00007665    0.00000000
     atom    4 type  1   force =     0.00006203    0.00006203    0.00000000
     atom    5 type  2   force =    -0.00008745    0.00009084    0.00000000
     atom    6 type  2   force =     0.00009084   -0.00008745    0.00000000
     atom    7 type  2   force =    -0.00007814   -0.00007814    0.00000000
     atom    8 type  2   force =     0.00007738    0.00007738    0.00000000

     Total force =     0.000309     Total SCF correction =     0.000080
     SCF correction compared to forces is large: reduce conv_thr to get better values


     Computing stress (Cartesian axis) and pressure

          total   stress  (Ry/bohr**3)                   (kbar)     P=  -67.85
  -0.00046126  -0.00000694   0.00000000        -67.85     -1.02      0.00
  -0.00000694  -0.00046126   0.00000000         -1.02    -67.85      0.00
   0.00000000   0.00000000  -0.00046111          0.00      0.00    -67.83


     bfgs converged in   2 scf cycles and   1 bfgs steps
     (criteria: energy <  1.0E-05 Ry, force <  1.0E-04 Ry/Bohr)

     End of BFGS Geometry Optimization

     Final energy   =    -608.3929256701 Ry
Begin final coordinates

ATOMIC_POSITIONS (alat)
Mg      -0.000010389  -0.000010389   0.000000000
Mg       0.000011528   0.499989416   0.500000000
Mg       0.499989416   0.000011528   0.500000000
Mg       0.500009060   0.500009060   0.000000000
O        0.499986851   0.000013958   0.000000000
O        0.000013958   0.499986851   0.000000000
O       -0.000012941  -0.000012941   0.500000000
O        0.500012517   0.500012517   0.500000000
End final coordinates



     Writing output data file MgO.0.000714.70.4.save
 
     init_run     :      0.42s CPU      0.44s WALL (       1 calls)
     electrons    :     10.76s CPU     10.94s WALL (       2 calls)
     update_pot   :      0.11s CPU      0.11s WALL (       1 calls)
     forces       :      0.27s CPU      0.27s WALL (       2 calls)
     stress       :      0.63s CPU      0.63s WALL (       2 calls)

     Called by init_run:
     wfcinit      :      0.29s CPU      0.31s WALL (       1 calls)
     potinit      :      0.05s CPU      0.05s WALL (       1 calls)

     Called by electrons:
     c_bands      :      9.34s CPU      9.49s WALL (      12 calls)
     sum_band     :      1.33s CPU      1.36s WALL (      12 calls)
     v_of_rho     :      0.07s CPU      0.07s WALL (      13 calls)
     mix_rho      :      0.01s CPU      0.01s WALL (      12 calls)

     Called by c_bands:
     init_us_2    :      0.15s CPU      0.15s WALL (     609 calls)
     cegterg      :      8.68s CPU      8.82s WALL (     252 calls)

     Called by sum_band:

     Called by *egterg:
     h_psi        :      6.60s CPU      6.75s WALL (     814 calls)
     g_psi        :      0.05s CPU      0.05s WALL (     541 calls)
     cdiaghg      :      1.18s CPU      1.18s WALL (     751 calls)

     Called by h_psi:
     h_psi:pot    :      6.58s CPU      6.71s WALL (     814 calls)
     h_psi:calbec :      0.38s CPU      0.37s WALL (     814 calls)
     vloc_psi     :      5.90s CPU      6.03s WALL (     814 calls)
     add_vuspsi   :      0.30s CPU      0.31s WALL (     814 calls)

     General routines
     calbec       :      0.50s CPU      0.49s WALL (    1024 calls)
     fft          :      0.05s CPU      0.06s WALL (     194 calls)
     fftw         :      6.70s CPU      6.58s WALL (   51060 calls)
     davcio       :      0.00s CPU      0.01s WALL (      21 calls)
 
     Parallel routines
     fft_scatter  :      1.72s CPU      1.75s WALL (   51254 calls)
 
     PWSCF        :    12.41s CPU        12.67s WALL

 
   This run was terminated on:  19: 9:35  22Apr2018            

=------------------------------------------------------------------------------=
   JOB DONE.
=------------------------------------------------------------------------------=
