
     Program PWSCF v.6.1 (svn rev. 13369) starts on 22Apr2018 at 19: 5: 7 

     This program is part of the open-source Quantum ESPRESSO suite
     for quantum simulation of materials; please cite
         "P. Giannozzi et al., J. Phys.:Condens. Matter 21 395502 (2009);
          URL http://www.quantum-espresso.org", 
     in publications or presentations arising from this work. More details at
     http://www.quantum-espresso.org/quote

     Parallel version (MPI), running on     8 processors
     R & G space division:  proc/nbgrp/npool/nimage =       8
     Waiting for input...
     Reading input from standard input
Warning: card       &CELL ignored
Warning: card          CELL_DYNAMICS = 'BFGS' ignored
Warning: card          PRESS = 0.0D0 ignored
Warning: card          PRESS_CONV_THR = 0.01D0 ignored
Warning: card       / ignored

     Current dimensions of program PWSCF are:
     Max number of different atomic species (ntypx) = 10
     Max number of k-points (npk) =  40000
     Max angular momentum in pseudopotentials (lmaxx) =  3

     Subspace diagonalization in iterative solution of the eigenvalue problem:
     a serial algorithm will be used

 
     Parallelization info
     --------------------
     sticks:   dense  smooth     PW     G-vecs:    dense   smooth      PW
     Min         180     180     52                 5150     5150     816
     Max         181     181     53                 5153     5153     819
     Sum        1445    1445    421                41207    41207    6543
 


     bravais-lattice index     =            0
     lattice parameter (alat)  =       8.0448  a.u.
     unit-cell volume          =     520.6402 (a.u.)^3
     number of atoms/cell      =            8
     number of atomic types    =            2
     number of electrons       =        64.00
     number of Kohn-Sham states=           32
     kinetic-energy cutoff     =      70.0000  Ry
     charge density cutoff     =     280.0000  Ry
     convergence threshold     =      1.0E-08
     mixing beta               =       0.7000
     number of iterations used =            8  plain     mixing
     Exchange-correlation      = PBE ( 1  4  3  4 0 0)
     nstep                     =           50


     celldm(1)=   8.044750  celldm(2)=   0.000000  celldm(3)=   0.000000
     celldm(4)=   0.000000  celldm(5)=   0.000000  celldm(6)=   0.000000

     crystal axes: (cart. coord. in units of alat)
               a(1) = (   1.000000  -0.002500   0.000000 )  
               a(2) = (  -0.002500   1.000000   0.000000 )  
               a(3) = (   0.000000   0.000000   1.000006 )  

     reciprocal axes: (cart. coord. in units 2 pi/alat)
               b(1) = (  1.000006  0.002500  0.000000 )  
               b(2) = (  0.002500  1.000006  0.000000 )  
               b(3) = (  0.000000  0.000000  0.999994 )  


     PseudoPot. # 1 for Mg read from file:
     ../pseudo/Mg.pbe.UPF
     MD5 check sum: 4c04d8c6e0476e83eaecaf72fa8acc4d
     Pseudo is Norm-conserving, Zval = 10.0
     Generated using ONCVPSP code by D. R. Hamann
     Using radial grid of 1510 points,  4 beta functions with: 
                l(1) =   0
                l(2) =   0
                l(3) =   1
                l(4) =   1

     PseudoPot. # 2 for O  read from file:
     ../pseudo/O.pbe.UPF
     MD5 check sum: 3e3f909f7470e8921608ab6b1f57bbae
     Pseudo is Norm-conserving + core correction, Zval =  6.0
     Generated using ONCVPSP code by D. R. Hamann
     Using radial grid of  936 points,  5 beta functions with: 
                l(1) =   0
                l(2) =   0
                l(3) =   1
                l(4) =   1
                l(5) =   2

     atomic species   valence    mass     pseudopotential
        Mg            10.00    24.30500     Mg( 1.00)
        O              6.00    15.99940     O ( 1.00)

      4 Sym. Ops. (no inversion) found



   Cartesian axes

     site n.     atom                  positions (alat units)
         1           Mg  tau(   1) = (   0.0000000   0.0000000   0.0000000  )
         2           Mg  tau(   2) = (   0.0000000   0.5000000   0.5000000  )
         3           Mg  tau(   3) = (   0.5000000   0.0000000   0.5000000  )
         4           Mg  tau(   4) = (   0.5000000   0.5000000   0.0000000  )
         5           O   tau(   5) = (   0.5000000   0.0000000   0.0000000  )
         6           O   tau(   6) = (   0.0000000   0.5000000   0.0000000  )
         7           O   tau(   7) = (   0.0000000   0.0000000   0.5000000  )
         8           O   tau(   8) = (   0.5000000   0.5000000   0.5000000  )

     number of k points=    21
                       cart. coord. in units 2pi/alat
        k(    1) = (   0.0000000   0.0000000   0.0000000), wk =   0.0312500
        k(    2) = (   0.0000000   0.0000000   0.2499984), wk =   0.0625000
        k(    3) = (   0.0000000   0.0000000  -0.4999969), wk =   0.0312500
        k(    4) = (   0.0006250   0.2500016   0.0000000), wk =   0.1250000
        k(    5) = (   0.0006250   0.2500016   0.2499984), wk =   0.2500000
        k(    6) = (   0.0006250   0.2500016  -0.4999969), wk =   0.1250000
        k(    7) = (  -0.0012500  -0.5000031   0.0000000), wk =   0.0625000
        k(    8) = (  -0.0012500  -0.5000031   0.2499984), wk =   0.1250000
        k(    9) = (  -0.0012500  -0.5000031  -0.4999969), wk =   0.0625000
        k(   10) = (   0.2506266   0.2506266   0.0000000), wk =   0.0625000
        k(   11) = (   0.2506266   0.2506266   0.2499984), wk =   0.1250000
        k(   12) = (   0.2506266   0.2506266  -0.4999969), wk =   0.0625000
        k(   13) = (   0.2487516  -0.4993781   0.0000000), wk =   0.1250000
        k(   14) = (   0.2487516  -0.4993781   0.2499984), wk =   0.2500000
        k(   15) = (   0.2487516  -0.4993781  -0.4999969), wk =   0.1250000
        k(   16) = (   0.2493766  -0.2493766   0.0000000), wk =   0.0625000
        k(   17) = (   0.2493766  -0.2493766   0.2499984), wk =   0.1250000
        k(   18) = (   0.2493766  -0.2493766  -0.4999969), wk =   0.0625000
        k(   19) = (  -0.5012531  -0.5012531   0.0000000), wk =   0.0312500
        k(   20) = (  -0.5012531  -0.5012531   0.2499984), wk =   0.0625000
        k(   21) = (  -0.5012531  -0.5012531  -0.4999969), wk =   0.0312500

     Dense  grid:    41207 G-vectors     FFT dimensions: (  45,  45,  45)

     Estimated max dynamical RAM per process >      12.51MB

     Estimated total allocated dynamical RAM >     100.04MB

     Check: negative/imaginary core charge=   -0.000007    0.000000

     Initial potential from superposition of free atoms

     starting charge   63.99678, renormalised to   64.00000
     Starting wfc are   36 randomized atomic wfcs

     total cpu time spent up to now is        0.6 secs

     per-process dynamical memory:    48.0 Mb

     Self-consistent Calculation

     iteration #  1     ecut=    70.00 Ry     beta=0.70
     Davidson diagonalization with overlap
     ethr =  1.00E-02,  avg # of iterations =  2.0

     total cpu time spent up to now is        1.4 secs

     total energy              =    -607.71963563 Ry
     Harris-Foulkes estimate   =    -608.84376389 Ry
     estimated scf accuracy    <       1.56198473 Ry

     iteration #  2     ecut=    70.00 Ry     beta=0.70
     Davidson diagonalization with overlap
     ethr =  2.44E-03,  avg # of iterations =  2.9

     total cpu time spent up to now is        2.4 secs

     total energy              =    -608.10563087 Ry
     Harris-Foulkes estimate   =    -608.80374168 Ry
     estimated scf accuracy    <       1.44943834 Ry

     iteration #  3     ecut=    70.00 Ry     beta=0.70
     Davidson diagonalization with overlap
     ethr =  2.26E-03,  avg # of iterations =  2.0

     total cpu time spent up to now is        3.3 secs

     total energy              =    -608.39129561 Ry
     Harris-Foulkes estimate   =    -608.39195389 Ry
     estimated scf accuracy    <       0.00674871 Ry

     iteration #  4     ecut=    70.00 Ry     beta=0.70
     Davidson diagonalization with overlap
     ethr =  1.05E-05,  avg # of iterations =  2.0

     total cpu time spent up to now is        4.2 secs

     total energy              =    -608.39277397 Ry
     Harris-Foulkes estimate   =    -608.39281827 Ry
     estimated scf accuracy    <       0.00011081 Ry

     iteration #  5     ecut=    70.00 Ry     beta=0.70
     Davidson diagonalization with overlap
     ethr =  1.73E-07,  avg # of iterations =  1.4

     total cpu time spent up to now is        4.9 secs

     total energy              =    -608.39278140 Ry
     Harris-Foulkes estimate   =    -608.39277988 Ry
     estimated scf accuracy    <       0.00001047 Ry

     iteration #  6     ecut=    70.00 Ry     beta=0.70
     Davidson diagonalization with overlap
     ethr =  1.64E-08,  avg # of iterations =  2.0

     total cpu time spent up to now is        5.9 secs

     total energy              =    -608.39278291 Ry
     Harris-Foulkes estimate   =    -608.39278350 Ry
     estimated scf accuracy    <       0.00000145 Ry

     iteration #  7     ecut=    70.00 Ry     beta=0.70
     Davidson diagonalization with overlap
     ethr =  2.26E-09,  avg # of iterations =  2.0

     total cpu time spent up to now is        6.7 secs

     total energy              =    -608.39278297 Ry
     Harris-Foulkes estimate   =    -608.39278310 Ry
     estimated scf accuracy    <       0.00000032 Ry

     iteration #  8     ecut=    70.00 Ry     beta=0.70
     Davidson diagonalization with overlap
     ethr =  4.97E-10,  avg # of iterations =  2.0

     total cpu time spent up to now is        7.6 secs

     total energy              =    -608.39278298 Ry
     Harris-Foulkes estimate   =    -608.39278300 Ry
     estimated scf accuracy    <       0.00000004 Ry

     iteration #  9     ecut=    70.00 Ry     beta=0.70
     Davidson diagonalization with overlap
     ethr =  6.88E-11,  avg # of iterations =  2.0

     total cpu time spent up to now is        8.6 secs

     End of self-consistent calculation

          k = 0.0000 0.0000 0.0000 (  5153 PWs)   bands (ev):

   -64.8344 -64.8250 -64.8250 -64.8242 -31.6310 -31.6310 -31.6309 -31.5945
   -31.5934 -31.5933 -31.5932 -31.5932 -31.5922 -31.5652 -31.5643 -31.5638
    -9.3646  -7.9137  -7.9136  -7.9135   3.7581   3.7582   3.7583   6.3511
     6.3800   6.3800   6.3801   6.3804   6.4093   7.6542   7.6724   7.6906

          k = 0.0000 0.0000 0.2500 (  5157 PWs)   bands (ev):

   -64.8330 -64.8262 -64.8249 -64.8243 -31.6246 -31.6246 -31.6203 -31.5980
   -31.5980 -31.5940 -31.5939 -31.5896 -31.5875 -31.5781 -31.5728 -31.5700
    -9.1562  -8.1286  -7.8851  -7.8851   4.0483   4.0487   4.0959   5.8580
     5.8582   6.1706   6.1709   6.5152   6.5713   6.6589   7.4302   7.4707

          k = 0.0000 0.0000-0.5000 (  5118 PWs)   bands (ev):

   -64.8298 -64.8293 -64.8249 -64.8244 -31.6119 -31.6117 -31.6077 -31.6074
   -31.6019 -31.6018 -31.5907 -31.5906 -31.5818 -31.5816 -31.5792 -31.5790
    -8.6460  -8.6458  -7.8563  -7.8563   4.8442   4.8445   4.8510   4.8512
     5.1228   5.1231   5.9735   5.9738   6.9439   6.9441   6.9929   6.9931

          k = 0.0006 0.2500 0.0000 (  5165 PWs)   bands (ev):

   -64.8330 -64.8262 -64.8249 -64.8243 -31.6248 -31.6243 -31.6206 -31.5988
   -31.5983 -31.5938 -31.5934 -31.5890 -31.5888 -31.5788 -31.5714 -31.5712
    -9.1561  -8.1284  -7.8852  -7.8851   4.0484   4.0485   4.0955   5.8559
     5.8582   6.1706   6.1728   6.5428   6.5431   6.6587   7.4502   7.4506

          k = 0.0006 0.2500 0.2500 (  5159 PWs)   bands (ev):

   -64.8318 -64.8262 -64.8258 -64.8247 -31.6212 -31.6208 -31.6198 -31.6071
   -31.5942 -31.5938 -31.5929 -31.5877 -31.5865 -31.5863 -31.5755 -31.5683
    -8.9660  -8.0658  -8.0618  -7.8901   4.1580   4.1648   4.3288   5.0713
     5.8470   6.0503   6.0602   6.4832   6.4878   6.5835   7.1732   7.5058

          k = 0.0006 0.2500-0.5000 (  5150 PWs)   bands (ev):

   -64.8291 -64.8286 -64.8256 -64.8251 -31.6175 -31.6173 -31.6100 -31.6100
   -31.6064 -31.6062 -31.5851 -31.5848 -31.5836 -31.5836 -31.5753 -31.5751
    -8.5097  -8.5094  -7.9468  -7.9467   4.4184   4.4186   4.7511   4.7513
     5.0962   5.0965   6.5479   6.5481   6.5755   6.5757   7.0946   7.0947

          k =-0.0013-0.5000 0.0000 (  5110 PWs)   bands (ev):

   -64.8298 -64.8293 -64.8249 -64.8244 -31.6098 -31.6095 -31.6094 -31.6092
   -31.6018 -31.6017 -31.5907 -31.5906 -31.5805 -31.5803 -31.5802 -31.5800
    -8.6459  -8.6458  -7.8564  -7.8563   4.8475   4.8479   4.8480   4.8480
     5.1229   5.1231   5.9735   5.9741   6.9683   6.9685   6.9685   6.9685

          k =-0.0013-0.5000 0.2500 (  5152 PWs)   bands (ev):

   -64.8291 -64.8286 -64.8256 -64.8251 -31.6174 -31.6172 -31.6101 -31.6100
   -31.6066 -31.6064 -31.5850 -31.5848 -31.5837 -31.5837 -31.5753 -31.5752
    -8.5095  -8.5094  -7.9469  -7.9468   4.4183   4.4184   4.7512   4.7514
     5.0964   5.0965   6.5478   6.5482   6.5759   6.5760   7.0941   7.0942

          k =-0.0013-0.5000-0.5000 (  5192 PWs)   bands (ev):

   -64.8274 -64.8274 -64.8273 -64.8263 -31.6193 -31.6191 -31.6190 -31.6189
   -31.5970 -31.5968 -31.5965 -31.5962 -31.5762 -31.5761 -31.5758 -31.5758
    -8.2080  -8.2078  -8.2026  -8.2026   4.2883   4.2885   4.2982   4.2983
     5.7613   5.7614   5.7742   5.7742   7.0608   7.0608   7.0661   7.0664

          k = 0.2506 0.2506 0.0000 (  5161 PWs)   bands (ev):

   -64.8318 -64.8262 -64.8258 -64.8247 -31.6197 -31.6195 -31.6194 -31.6089
   -31.5947 -31.5942 -31.5941 -31.5873 -31.5871 -31.5866 -31.5754 -31.5676
    -8.9634  -8.0669  -8.0668  -7.8872   4.1627   4.1628   4.3314   5.0868
     5.8558   6.0514   6.0517   6.4903   6.4904   6.5577   7.1782   7.4876

          k = 0.2506 0.2506 0.2500 (  5160 PWs)   bands (ev):

   -64.8308 -64.8262 -64.8261 -64.8254 -31.6255 -31.6238 -31.6236 -31.6067
   -31.5951 -31.5951 -31.5945 -31.5839 -31.5839 -31.5828 -31.5717 -31.5703
    -8.7936  -8.0344  -8.0337  -8.0272   3.9972   3.9981   4.0108   5.1001
     5.8439   5.8490   5.8584   6.6805   6.7079   6.7081   7.3361   7.3578

          k = 0.2506 0.2506-0.5000 (  5148 PWs)   bands (ev):

   -64.8285 -64.8281 -64.8262 -64.8256 -31.6271 -31.6270 -31.6218 -31.6217
   -31.5948 -31.5946 -31.5803 -31.5802 -31.5786 -31.5785 -31.5765 -31.5762
    -8.3965  -8.3963  -8.0001  -8.0001   3.8162   3.8164   4.2097   4.2098
     5.8370   5.8371   6.7426   6.7428   6.8716   6.8719   6.9938   6.9940

          k = 0.2488-0.4994 0.0000 (  5148 PWs)   bands (ev):

   -64.8291 -64.8286 -64.8257 -64.8251 -31.6193 -31.6153 -31.6116 -31.6081
   -31.6068 -31.6065 -31.5849 -31.5847 -31.5847 -31.5825 -31.5761 -31.5741
    -8.5135  -8.5055  -7.9512  -7.9424   4.4130   4.4238   4.7490   4.7536
     5.0918   5.1008   6.5306   6.5657   6.5696   6.5822   7.0812   7.1076

          k = 0.2488-0.4994 0.2500 (  5134 PWs)   bands (ev):

   -64.8286 -64.8282 -64.8261 -64.8255 -31.6290 -31.6268 -31.6223 -31.6194
   -31.5929 -31.5927 -31.5813 -31.5801 -31.5788 -31.5780 -31.5771 -31.5761
    -8.4030  -8.3950  -8.0013  -7.9928   3.8128   3.8303   4.1915   4.2046
     5.8263   5.8344   6.7277   6.7531   6.8599   6.8774   7.0127   7.0204

          k = 0.2488-0.4994-0.5000 (  5144 PWs)   bands (ev):

   -64.8274 -64.8273 -64.8273 -64.8263 -31.6328 -31.6327 -31.6304 -31.6303
   -31.5837 -31.5835 -31.5825 -31.5823 -31.5754 -31.5753 -31.5749 -31.5749
    -8.1723  -8.1721  -8.1633  -8.1632   3.6304   3.6305   3.6503   3.6504
     6.5103   6.5104   6.5385   6.5387   7.0601   7.0602   7.0688   7.0691

          k = 0.2494-0.2494 0.0000 (  5161 PWs)   bands (ev):

   -64.8318 -64.8261 -64.8257 -64.8248 -31.6221 -31.6219 -31.6195 -31.6060
   -31.5941 -31.5940 -31.5911 -31.5891 -31.5857 -31.5855 -31.5754 -31.5699
    -8.9685  -8.0606  -8.0606  -7.8932   4.1603   4.1603   4.3259   5.0558
     5.8385   6.0596   6.0599   6.4794   6.4795   6.6097   7.1684   7.5235

          k = 0.2494-0.2494 0.2500 (  5150 PWs)   bands (ev):

   -64.8308 -64.8262 -64.8261 -64.8253 -31.6265 -31.6264 -31.6244 -31.6051
   -31.5926 -31.5922 -31.5920 -31.5849 -31.5839 -31.5839 -31.5724 -31.5707
    -8.7987  -8.0341  -8.0275  -8.0269   3.9902   4.0028   4.0036   5.0784
     5.8333   5.8428   5.8477   6.7029   6.7031   6.7308   7.3529   7.3748

          k = 0.2494-0.2494-0.5000 (  5128 PWs)   bands (ev):

   -64.8286 -64.8282 -64.8261 -64.8255 -31.6292 -31.6291 -31.6202 -31.6201
   -31.5911 -31.5909 -31.5810 -31.5810 -31.5788 -31.5786 -31.5767 -31.5766
    -8.4018  -8.4016  -7.9940  -7.9939   3.8265   3.8266   4.1863   4.1865
     5.8236   5.8237   6.7378   6.7380   6.8660   6.8661   7.0385   7.0386

          k =-0.5013-0.5013 0.0000 (  5196 PWs)   bands (ev):

   -64.8274 -64.8274 -64.8273 -64.8263 -31.6212 -31.6210 -31.6169 -31.6166
   -31.5973 -31.5972 -31.5971 -31.5969 -31.5766 -31.5764 -31.5754 -31.5751
    -8.2112  -8.2111  -8.1993  -8.1993   4.2900   4.2900   4.2967   4.2967
     5.7597   5.7600   5.7745   5.7748   7.0434   7.0434   7.0840   7.0841

          k =-0.5013-0.5013 0.2500 (  5136 PWs)   bands (ev):

   -64.8274 -64.8274 -64.8273 -64.8263 -31.6328 -31.6326 -31.6305 -31.6304
   -31.5833 -31.5833 -31.5819 -31.5819 -31.5764 -31.5761 -31.5740 -31.5737
    -8.1737  -8.1736  -8.1618  -8.1618   3.6327   3.6328   3.6479   3.6479
     6.5223   6.5225   6.5265   6.5267   7.0446   7.0446   7.0848   7.0849

          k =-0.5013-0.5013-0.5000 (  5136 PWs)   bands (ev):

   -64.8274 -64.8273 -64.8273 -64.8263 -31.6399 -31.6397 -31.6391 -31.6390
   -31.5756 -31.5753 -31.5751 -31.5749 -31.5748 -31.5747 -31.5744 -31.5742
    -8.1356  -8.1355  -8.1237  -8.1237   3.2080   3.2082   3.2270   3.2270
     7.0452   7.0453   7.0647   7.0649   7.0657   7.0660   7.0858   7.0858

     highest occupied level (ev):     7.6906

!    total energy              =    -608.39278299 Ry
     Harris-Foulkes estimate   =    -608.39278299 Ry
     estimated scf accuracy    <          1.3E-09 Ry

     The total energy is the sum of the following terms:

     one-electron contribution =    -303.55675843 Ry
     hartree contribution      =     168.06755745 Ry
     xc contribution           =     -97.84636958 Ry
     ewald contribution        =    -375.05721243 Ry

     convergence has been achieved in   9 iterations

     Forces acting on atoms (cartesian axes, Ry/au):

     atom    1 type  1   force =     0.00060372    0.00060372    0.00000000
     atom    2 type  1   force =    -0.00062611    0.00057388    0.00000000
     atom    3 type  1   force =     0.00057388   -0.00062611    0.00000000
     atom    4 type  1   force =    -0.00052505   -0.00052505    0.00000000
     atom    5 type  2   force =     0.00072785   -0.00077413    0.00000000
     atom    6 type  2   force =    -0.00077413    0.00072785    0.00000000
     atom    7 type  2   force =     0.00073918    0.00073918    0.00000000
     atom    8 type  2   force =    -0.00071934   -0.00071934    0.00000000

     Total force =     0.002666     Total SCF correction =     0.000006


     Computing stress (Cartesian axis) and pressure

          total   stress  (Ry/bohr**3)                   (kbar)     P=  -68.07
  -0.00046285   0.00004868   0.00000000        -68.09      7.16      0.00
   0.00004868  -0.00046285   0.00000000          7.16    -68.09      0.00
   0.00000000   0.00000000  -0.00046258          0.00      0.00    -68.05


     BFGS Geometry Optimization

     number of scf cycles    =   1
     number of bfgs steps    =   0

     energy   new            =    -608.3927829888 Ry

     new trust radius        =       0.0010625688 bohr
     new conv_thr            =       0.0000000100 Ry


ATOMIC_POSITIONS (alat)
Mg       0.000075045   0.000075045   0.000000000
Mg      -0.000077828   0.500071337   0.500000000
Mg       0.500071337  -0.000077828   0.500000000
Mg       0.499934734   0.499934734   0.000000000
O        0.500090476  -0.000096228   0.000000000
O       -0.000096228   0.500090476   0.000000000
O        0.000091884   0.000091884   0.500000000
O        0.499910582   0.499910582   0.500000000



     Writing output data file MgO.-0.005.70.4.save
     NEW-OLD atomic charge density approx. for the potential

     Check: negative/imaginary core charge=   -0.000007    0.000000

     total cpu time spent up to now is        9.2 secs

     per-process dynamical memory:    52.7 Mb

     Self-consistent Calculation

     iteration #  1     ecut=    70.00 Ry     beta=0.70
     Davidson diagonalization with overlap
     ethr =  1.00E-06,  avg # of iterations =  2.4

     Threshold (ethr) on eigenvalues was too large:
     Diagonalizing with lowered threshold

     Davidson diagonalization with overlap
     ethr =  5.61E-10,  avg # of iterations =  3.0

     total cpu time spent up to now is       11.3 secs

     total energy              =    -608.39278952 Ry
     Harris-Foulkes estimate   =    -608.39278979 Ry
     estimated scf accuracy    <       0.00000047 Ry

     iteration #  2     ecut=    70.00 Ry     beta=0.70
     Davidson diagonalization with overlap
     ethr =  7.39E-10,  avg # of iterations =  2.0

     total cpu time spent up to now is       12.2 secs

     total energy              =    -608.39278960 Ry
     Harris-Foulkes estimate   =    -608.39278961 Ry
     estimated scf accuracy    <       0.00000001 Ry

     iteration #  3     ecut=    70.00 Ry     beta=0.70
     Davidson diagonalization with overlap
     ethr =  2.32E-11,  avg # of iterations =  2.9

     total cpu time spent up to now is       13.1 secs

     End of self-consistent calculation

          k = 0.0000 0.0000 0.0000 (  5153 PWs)   bands (ev):

   -64.8346 -64.8252 -64.8252 -64.8243 -31.6312 -31.6312 -31.6310 -31.5947
   -31.5935 -31.5935 -31.5934 -31.5933 -31.5923 -31.5654 -31.5644 -31.5639
    -9.3645  -7.9138  -7.9134  -7.9134   3.7582   3.7582   3.7583   6.3511
     6.3800   6.3801   6.3802   6.3805   6.4094   7.6542   7.6724   7.6907

          k = 0.0000 0.0000 0.2500 (  5157 PWs)   bands (ev):

   -64.8332 -64.8264 -64.8251 -64.8245 -31.6247 -31.6247 -31.6205 -31.5982
   -31.5981 -31.5941 -31.5941 -31.5898 -31.5877 -31.5783 -31.5729 -31.5701
    -9.1561  -8.1285  -7.8851  -7.8849   4.0484   4.0488   4.0958   5.8581
     5.8582   6.1706   6.1710   6.5152   6.5713   6.6589   7.4302   7.4707

          k = 0.0000 0.0000-0.5000 (  5118 PWs)   bands (ev):

   -64.8300 -64.8295 -64.8251 -64.8246 -31.6120 -31.6118 -31.6079 -31.6076
   -31.6020 -31.6020 -31.5909 -31.5908 -31.5820 -31.5817 -31.5794 -31.5791
    -8.6460  -8.6457  -7.8563  -7.8561   4.8443   4.8446   4.8511   4.8512
     5.1228   5.1231   5.9735   5.9739   6.9439   6.9442   6.9930   6.9932

          k = 0.0006 0.2500 0.0000 (  5165 PWs)   bands (ev):

   -64.8332 -64.8264 -64.8251 -64.8245 -31.6249 -31.6245 -31.6207 -31.5989
   -31.5985 -31.5940 -31.5936 -31.5891 -31.5890 -31.5789 -31.5716 -31.5713
    -9.1561  -8.1284  -7.8853  -7.8850   4.0485   4.0485   4.0956   5.8560
     5.8582   6.1707   6.1728   6.5429   6.5431   6.6587   7.4503   7.4507

          k = 0.0006 0.2500 0.2500 (  5159 PWs)   bands (ev):

   -64.8320 -64.8264 -64.8260 -64.8249 -31.6213 -31.6210 -31.6199 -31.6072
   -31.5943 -31.5940 -31.5931 -31.5879 -31.5867 -31.5864 -31.5757 -31.5685
    -8.9659  -8.0654  -8.0620  -7.8901   4.1586   4.1643   4.3288   5.0714
     5.8471   6.0511   6.0595   6.4835   6.4875   6.5836   7.1733   7.5059

          k = 0.0006 0.2500-0.5000 (  5150 PWs)   bands (ev):

   -64.8293 -64.8288 -64.8258 -64.8252 -31.6177 -31.6175 -31.6102 -31.6102
   -31.6066 -31.6064 -31.5853 -31.5850 -31.5838 -31.5837 -31.5754 -31.5753
    -8.5096  -8.5093  -7.9468  -7.9466   4.4184   4.4186   4.7511   4.7514
     5.0962   5.0966   6.5479   6.5482   6.5755   6.5758   7.0947   7.0947

          k =-0.0013-0.5000 0.0000 (  5110 PWs)   bands (ev):

   -64.8300 -64.8295 -64.8251 -64.8246 -31.6099 -31.6097 -31.6096 -31.6093
   -31.6020 -31.6019 -31.5909 -31.5908 -31.5807 -31.5804 -31.5804 -31.5801
    -8.6459  -8.6456  -7.8565  -7.8562   4.8476   4.8479   4.8479   4.8482
     5.1228   5.1233   5.9735   5.9741   6.9683   6.9684   6.9686   6.9686

          k =-0.0013-0.5000 0.2500 (  5152 PWs)   bands (ev):

   -64.8293 -64.8288 -64.8258 -64.8252 -31.6175 -31.6174 -31.6103 -31.6102
   -31.6068 -31.6066 -31.5851 -31.5849 -31.5839 -31.5838 -31.5755 -31.5753
    -8.5096  -8.5093  -7.9469  -7.9466   4.4184   4.4184   4.7512   4.7515
     5.0964   5.0966   6.5479   6.5482   6.5759   6.5761   7.0942   7.0943

          k =-0.0013-0.5000-0.5000 (  5192 PWs)   bands (ev):

   -64.8276 -64.8276 -64.8275 -64.8265 -31.6195 -31.6193 -31.6191 -31.6191
   -31.5971 -31.5969 -31.5967 -31.5964 -31.5764 -31.5762 -31.5760 -31.5760
    -8.2076  -8.2073  -8.2029  -8.2029   4.2891   4.2893   4.2975   4.2976
     5.7623   5.7624   5.7732   5.7733   7.0613   7.0613   7.0658   7.0661

          k = 0.2506 0.2506 0.0000 (  5161 PWs)   bands (ev):

   -64.8319 -64.8264 -64.8260 -64.8249 -31.6199 -31.6197 -31.6196 -31.6091
   -31.5948 -31.5944 -31.5943 -31.5875 -31.5873 -31.5867 -31.5755 -31.5677
    -8.9634  -8.0669  -8.0667  -7.8871   4.1628   4.1628   4.3314   5.0869
     5.8558   6.0514   6.0518   6.4904   6.4904   6.5577   7.1782   7.4877

          k = 0.2506 0.2506 0.2500 (  5160 PWs)   bands (ev):

   -64.8309 -64.8264 -64.8263 -64.8255 -31.6257 -31.6239 -31.6238 -31.6069
   -31.5953 -31.5952 -31.5947 -31.5841 -31.5841 -31.5830 -31.5719 -31.5705
    -8.7935  -8.0342  -8.0335  -8.0273   3.9975   3.9982   4.0106   5.1002
     5.8449   5.8491   5.8574   6.6805   6.7079   6.7082   7.3361   7.3578

          k = 0.2506 0.2506-0.5000 (  5148 PWs)   bands (ev):

   -64.8287 -64.8283 -64.8264 -64.8257 -31.6273 -31.6271 -31.6220 -31.6219
   -31.5950 -31.5948 -31.5804 -31.5804 -31.5787 -31.5787 -31.5766 -31.5764
    -8.3964  -8.3962  -8.0001  -7.9999   3.8163   3.8164   4.2097   4.2098
     5.8370   5.8372   6.7426   6.7429   6.8717   6.8719   6.9938   6.9940

          k = 0.2488-0.4994 0.0000 (  5148 PWs)   bands (ev):

   -64.8293 -64.8288 -64.8258 -64.8252 -31.6194 -31.6154 -31.6117 -31.6082
   -31.6070 -31.6067 -31.5851 -31.5849 -31.5848 -31.5827 -31.5763 -31.5742
    -8.5134  -8.5054  -7.9512  -7.9424   4.4131   4.4239   4.7490   4.7537
     5.0919   5.1008   6.5307   6.5657   6.5697   6.5822   7.0813   7.1076

          k = 0.2488-0.4994 0.2500 (  5134 PWs)   bands (ev):

   -64.8288 -64.8283 -64.8263 -64.8257 -31.6291 -31.6270 -31.6225 -31.6195
   -31.5931 -31.5928 -31.5814 -31.5802 -31.5789 -31.5782 -31.5773 -31.5763
    -8.4029  -8.3949  -8.0013  -7.9927   3.8128   3.8303   4.1916   4.2046
     5.8264   5.8344   6.7278   6.7532   6.8600   6.8774   7.0127   7.0205

          k = 0.2488-0.4994-0.5000 (  5144 PWs)   bands (ev):

   -64.8276 -64.8276 -64.8275 -64.8265 -31.6330 -31.6328 -31.6306 -31.6304
   -31.5839 -31.5837 -31.5826 -31.5824 -31.5756 -31.5754 -31.5751 -31.5750
    -8.1722  -8.1719  -8.1634  -8.1632   3.6306   3.6307   3.6501   3.6502
     6.5106   6.5107   6.5384   6.5385   7.0603   7.0604   7.0688   7.0690

          k = 0.2494-0.2494 0.0000 (  5161 PWs)   bands (ev):

   -64.8320 -64.8263 -64.8259 -64.8249 -31.6223 -31.6221 -31.6197 -31.6061
   -31.5942 -31.5942 -31.5913 -31.5892 -31.5859 -31.5857 -31.5756 -31.5701
    -8.9685  -8.0606  -8.0605  -7.8932   4.1603   4.1604   4.3260   5.0559
     5.8386   6.0596   6.0600   6.4795   6.4796   6.6097   7.1685   7.5235

          k = 0.2494-0.2494 0.2500 (  5150 PWs)   bands (ev):

   -64.8310 -64.8264 -64.8263 -64.8255 -31.6267 -31.6265 -31.6246 -31.6053
   -31.5927 -31.5924 -31.5922 -31.5851 -31.5841 -31.5840 -31.5726 -31.5709
    -8.7987  -8.0339  -8.0275  -8.0269   3.9904   4.0029   4.0034   5.0784
     5.8343   5.8428   5.8468   6.7029   6.7032   6.7309   7.3530   7.3748

          k = 0.2494-0.2494-0.5000 (  5128 PWs)   bands (ev):

   -64.8288 -64.8284 -64.8263 -64.8257 -31.6294 -31.6292 -31.6203 -31.6202
   -31.5913 -31.5910 -31.5812 -31.5812 -31.5790 -31.5787 -31.5768 -31.5767
    -8.4018  -8.4015  -7.9940  -7.9938   3.8266   3.8266   4.1863   4.1865
     5.8237   5.8237   6.7378   6.7381   6.8660   6.8661   7.0385   7.0387

          k =-0.5013-0.5013 0.0000 (  5196 PWs)   bands (ev):

   -64.8276 -64.8276 -64.8275 -64.8265 -31.6214 -31.6211 -31.6170 -31.6168
   -31.5975 -31.5973 -31.5973 -31.5970 -31.5768 -31.5765 -31.5755 -31.5753
    -8.2112  -8.2110  -8.1993  -8.1991   4.2900   4.2901   4.2967   4.2968
     5.7597   5.7601   5.7745   5.7749   7.0434   7.0435   7.0841   7.0841

          k =-0.5013-0.5013 0.2500 (  5136 PWs)   bands (ev):

   -64.8276 -64.8276 -64.8275 -64.8265 -31.6330 -31.6328 -31.6307 -31.6305
   -31.5835 -31.5834 -31.5820 -31.5820 -31.5766 -31.5763 -31.5741 -31.5739
    -8.1737  -8.1735  -8.1618  -8.1617   3.6328   3.6328   3.6479   3.6480
     6.5223   6.5226   6.5265   6.5268   7.0446   7.0447   7.0848   7.0849

          k =-0.5013-0.5013-0.5000 (  5136 PWs)   bands (ev):

   -64.8276 -64.8275 -64.8275 -64.8265 -31.6400 -31.6399 -31.6392 -31.6391
   -31.5757 -31.5755 -31.5752 -31.5750 -31.5750 -31.5748 -31.5746 -31.5743
    -8.1356  -8.1353  -8.1237  -8.1236   3.2081   3.2082   3.2270   3.2271
     7.0452   7.0454   7.0647   7.0650   7.0658   7.0660   7.0858   7.0859

     highest occupied level (ev):     7.6907

!    total energy              =    -608.39278960 Ry
     Harris-Foulkes estimate   =    -608.39278960 Ry
     estimated scf accuracy    <          4.8E-09 Ry

     The total energy is the sum of the following terms:

     one-electron contribution =    -303.55694316 Ry
     hartree contribution      =     168.06767442 Ry
     xc contribution           =     -97.84636234 Ry
     ewald contribution        =    -375.05715852 Ry

     convergence has been achieved in   3 iterations

     Forces acting on atoms (cartesian axes, Ry/au):

     atom    1 type  1   force =     0.00053473    0.00053473    0.00000000
     atom    2 type  1   force =    -0.00056023    0.00052903    0.00000000
     atom    3 type  1   force =     0.00052903   -0.00056023    0.00000000
     atom    4 type  1   force =    -0.00048867   -0.00048867    0.00000000
     atom    5 type  2   force =     0.00062730   -0.00065391    0.00000000
     atom    6 type  2   force =    -0.00065391    0.00062730    0.00000000
     atom    7 type  2   force =     0.00062830    0.00062830    0.00000000
     atom    8 type  2   force =    -0.00061655   -0.00061655    0.00000000

     Total force =     0.002330     Total SCF correction =     0.000045


     Computing stress (Cartesian axis) and pressure

          total   stress  (Ry/bohr**3)                   (kbar)     P=  -68.04
  -0.00046262   0.00004867   0.00000000        -68.05      7.16      0.00
   0.00004867  -0.00046262   0.00000000          7.16    -68.05      0.00
   0.00000000   0.00000000  -0.00046232          0.00      0.00    -68.01


     number of scf cycles    =   2
     number of bfgs steps    =   1

     energy   old            =    -608.3927829888 Ry
     energy   new            =    -608.3927896000 Ry

     CASE: energy  _new < energy  _old


     WARNING: bfgs curvature condition failed, Theta= 0.916
     new trust radius        =       0.0011688257 bohr
     new conv_thr            =            1.0E-10 Ry


ATOMIC_POSITIONS (alat)
Mg       0.000160404   0.000160404   0.000000000
Mg      -0.000167153   0.500155404   0.500000000
Mg       0.500155404  -0.000167153   0.500000000
Mg       0.499857161   0.499857161   0.000000000
O        0.500190931  -0.000201195   0.000000000
O       -0.000201195   0.500190931   0.000000000
O        0.000192664   0.000192664   0.500000000
O        0.499811784   0.499811784   0.500000000



     Writing output data file MgO.-0.005.70.4.save
     NEW-OLD atomic charge density approx. for the potential

     Check: negative/imaginary core charge=   -0.000007    0.000000

     total cpu time spent up to now is       13.7 secs

     per-process dynamical memory:    52.7 Mb

     Self-consistent Calculation

     iteration #  1     ecut=    70.00 Ry     beta=0.70
     Davidson diagonalization with overlap
     ethr =  1.00E-06,  avg # of iterations =  2.5

     Threshold (ethr) on eigenvalues was too large:
     Diagonalizing with lowered threshold

     Davidson diagonalization with overlap
     ethr =  6.69E-10,  avg # of iterations =  3.0

     total cpu time spent up to now is       15.8 secs

     total energy              =    -608.39279576 Ry
     Harris-Foulkes estimate   =    -608.39279609 Ry
     estimated scf accuracy    <       0.00000058 Ry

     iteration #  2     ecut=    70.00 Ry     beta=0.70
     Davidson diagonalization with overlap
     ethr =  9.04E-10,  avg # of iterations =  2.1

     total cpu time spent up to now is       16.7 secs

     total energy              =    -608.39279584 Ry
     Harris-Foulkes estimate   =    -608.39279588 Ry
     estimated scf accuracy    <       0.00000006 Ry

     iteration #  3     ecut=    70.00 Ry     beta=0.70
     Davidson diagonalization with overlap
     ethr =  8.83E-11,  avg # of iterations =  3.0

     total cpu time spent up to now is       17.6 secs

     total energy              =    -608.39279586 Ry
     Harris-Foulkes estimate   =    -608.39279588 Ry
     estimated scf accuracy    <       0.00000004 Ry

     iteration #  4     ecut=    70.00 Ry     beta=0.70
     Davidson diagonalization with overlap
     ethr =  7.01E-11,  avg # of iterations =  2.5

     total cpu time spent up to now is       18.5 secs

     total energy              =    -608.39279587 Ry
     Harris-Foulkes estimate   =    -608.39279587 Ry
     estimated scf accuracy    <          1.1E-09 Ry

     iteration #  5     ecut=    70.00 Ry     beta=0.70
     Davidson diagonalization with overlap
     ethr =  1.74E-12,  avg # of iterations =  2.7

     total cpu time spent up to now is       19.4 secs

     End of self-consistent calculation

          k = 0.0000 0.0000 0.0000 (  5153 PWs)   bands (ev):

   -64.8346 -64.8251 -64.8251 -64.8243 -31.6312 -31.6312 -31.6310 -31.5946
   -31.5935 -31.5935 -31.5934 -31.5933 -31.5923 -31.5654 -31.5644 -31.5639
    -9.3646  -7.9137  -7.9136  -7.9135   3.7581   3.7582   3.7583   6.3511
     6.3800   6.3801   6.3802   6.3804   6.4094   7.6542   7.6724   7.6907

          k = 0.0000 0.0000 0.2500 (  5157 PWs)   bands (ev):

   -64.8332 -64.8264 -64.8251 -64.8245 -31.6247 -31.6247 -31.6204 -31.5981
   -31.5981 -31.5941 -31.5941 -31.5898 -31.5876 -31.5783 -31.5729 -31.5701
    -9.1561  -8.1285  -7.8851  -7.8850   4.0485   4.0487   4.0957   5.8581
     5.8582   6.1706   6.1709   6.5152   6.5713   6.6589   7.4302   7.4707

          k = 0.0000 0.0000-0.5000 (  5118 PWs)   bands (ev):

   -64.8300 -64.8295 -64.8251 -64.8245 -31.6120 -31.6118 -31.6078 -31.6076
   -31.6020 -31.6020 -31.5908 -31.5908 -31.5820 -31.5817 -31.5794 -31.5791
    -8.6460  -8.6457  -7.8563  -7.8562   4.8444   4.8445   4.8511   4.8512
     5.1227   5.1230   5.9735   5.9739   6.9439   6.9441   6.9930   6.9931

          k = 0.0006 0.2500 0.0000 (  5165 PWs)   bands (ev):

   -64.8332 -64.8264 -64.8251 -64.8245 -31.6249 -31.6245 -31.6207 -31.5989
   -31.5985 -31.5940 -31.5935 -31.5891 -31.5890 -31.5789 -31.5716 -31.5713
    -9.1561  -8.1284  -7.8852  -7.8851   4.0485   4.0485   4.0955   5.8560
     5.8582   6.1707   6.1727   6.5429   6.5431   6.6587   7.4503   7.4506

          k = 0.0006 0.2500 0.2500 (  5159 PWs)   bands (ev):

   -64.8320 -64.8263 -64.8260 -64.8249 -31.6213 -31.6209 -31.6199 -31.6072
   -31.5943 -31.5940 -31.5931 -31.5879 -31.5866 -31.5864 -31.5757 -31.5685
    -8.9660  -8.0651  -8.0624  -7.8901   4.1592   4.1637   4.3288   5.0714
     5.8470   6.0519   6.0586   6.4838   6.4871   6.5836   7.1732   7.5059

          k = 0.0006 0.2500-0.5000 (  5150 PWs)   bands (ev):

   -64.8293 -64.8288 -64.8258 -64.8252 -31.6176 -31.6175 -31.6102 -31.6101
   -31.6066 -31.6063 -31.5852 -31.5850 -31.5838 -31.5837 -31.5754 -31.5753
    -8.5096  -8.5094  -7.9468  -7.9467   4.4184   4.4186   4.7511   4.7513
     5.0962   5.0965   6.5479   6.5482   6.5755   6.5757   7.0946   7.0947

          k =-0.0013-0.5000 0.0000 (  5110 PWs)   bands (ev):

   -64.8300 -64.8295 -64.8251 -64.8246 -31.6099 -31.6097 -31.6095 -31.6093
   -31.6020 -31.6019 -31.5908 -31.5907 -31.5806 -31.5804 -31.5803 -31.5801
    -8.6459  -8.6457  -7.8564  -7.8563   4.8476   4.8478   4.8479   4.8481
     5.1229   5.1232   5.9735   5.9740   6.9684   6.9684   6.9684   6.9686

          k =-0.0013-0.5000 0.2500 (  5152 PWs)   bands (ev):

   -64.8293 -64.8288 -64.8258 -64.8252 -31.6175 -31.6174 -31.6102 -31.6102
   -31.6068 -31.6066 -31.5851 -31.5849 -31.5839 -31.5838 -31.5755 -31.5753
    -8.5095  -8.5094  -7.9468  -7.9467   4.4183   4.4184   4.7512   4.7514
     5.0964   5.0965   6.5479   6.5482   6.5759   6.5760   7.0941   7.0942

          k =-0.0013-0.5000-0.5000 (  5192 PWs)   bands (ev):

   -64.8276 -64.8275 -64.8275 -64.8265 -31.6194 -31.6192 -31.6191 -31.6191
   -31.5971 -31.5969 -31.5967 -31.5964 -31.5764 -31.5762 -31.5760 -31.5760
    -8.2071  -8.2069  -8.2034  -8.2034   4.2899   4.2901   4.2967   4.2968
     5.7634   5.7635   5.7722   5.7722   7.0617   7.0617   7.0653   7.0656

          k = 0.2506 0.2506 0.0000 (  5161 PWs)   bands (ev):

   -64.8319 -64.8264 -64.8260 -64.8249 -31.6198 -31.6197 -31.6196 -31.6091
   -31.5948 -31.5943 -31.5943 -31.5874 -31.5873 -31.5867 -31.5755 -31.5677
    -8.9634  -8.0669  -8.0668  -7.8871   4.1628   4.1628   4.3314   5.0869
     5.8558   6.0514   6.0518   6.4904   6.4904   6.5577   7.1782   7.4876

          k = 0.2506 0.2506 0.2500 (  5160 PWs)   bands (ev):

   -64.8309 -64.8264 -64.8263 -64.8255 -31.6257 -31.6239 -31.6238 -31.6069
   -31.5952 -31.5952 -31.5947 -31.5841 -31.5841 -31.5830 -31.5718 -31.5705
    -8.7935  -8.0340  -8.0336  -8.0274   3.9977   3.9981   4.0103   5.1001
     5.8459   5.8490   5.8564   6.6805   6.7079   6.7081   7.3361   7.3578

          k = 0.2506 0.2506-0.5000 (  5148 PWs)   bands (ev):

   -64.8287 -64.8283 -64.8264 -64.8257 -31.6273 -31.6271 -31.6220 -31.6219
   -31.5950 -31.5947 -31.5804 -31.5804 -31.5787 -31.5786 -31.5766 -31.5764
    -8.3964  -8.3962  -8.0001  -8.0000   3.8163   3.8164   4.2097   4.2098
     5.8371   5.8372   6.7426   6.7429   6.8717   6.8719   6.9938   6.9940

          k = 0.2488-0.4994 0.0000 (  5148 PWs)   bands (ev):

   -64.8293 -64.8288 -64.8258 -64.8252 -31.6194 -31.6154 -31.6117 -31.6082
   -31.6070 -31.6067 -31.5851 -31.5849 -31.5848 -31.5826 -31.5763 -31.5742
    -8.5134  -8.5054  -7.9512  -7.9424   4.4131   4.4239   4.7490   4.7536
     5.0919   5.1008   6.5306   6.5657   6.5696   6.5822   7.0813   7.1076

          k = 0.2488-0.4994 0.2500 (  5134 PWs)   bands (ev):

   -64.8288 -64.8283 -64.8263 -64.8257 -31.6291 -31.6269 -31.6224 -31.6195
   -31.5931 -31.5928 -31.5814 -31.5802 -31.5789 -31.5782 -31.5773 -31.5763
    -8.4029  -8.3950  -8.0013  -7.9928   3.8128   3.8303   4.1915   4.2046
     5.8264   5.8344   6.7278   6.7532   6.8599   6.8774   7.0127   7.0204

          k = 0.2488-0.4994-0.5000 (  5144 PWs)   bands (ev):

   -64.8276 -64.8275 -64.8275 -64.8265 -31.6329 -31.6328 -31.6305 -31.6304
   -31.5839 -31.5836 -31.5826 -31.5824 -31.5756 -31.5754 -31.5751 -31.5750
    -8.1720  -8.1719  -8.1635  -8.1634   3.6308   3.6309   3.6499   3.6500
     6.5107   6.5109   6.5381   6.5383   7.0603   7.0605   7.0686   7.0689

          k = 0.2494-0.2494 0.0000 (  5161 PWs)   bands (ev):

   -64.8320 -64.8263 -64.8259 -64.8249 -31.6222 -31.6221 -31.6197 -31.6061
   -31.5942 -31.5942 -31.5913 -31.5892 -31.5859 -31.5857 -31.5756 -31.5700
    -8.9685  -8.0606  -8.0605  -7.8932   4.1603   4.1604   4.3259   5.0559
     5.8385   6.0596   6.0600   6.4795   6.4795   6.6097   7.1684   7.5235

          k = 0.2494-0.2494 0.2500 (  5150 PWs)   bands (ev):

   -64.8310 -64.8263 -64.8263 -64.8255 -31.6267 -31.6265 -31.6246 -31.6052
   -31.5927 -31.5923 -31.5922 -31.5851 -31.5841 -31.5840 -31.5725 -31.5709
    -8.7987  -8.0338  -8.0275  -8.0271   3.9906   4.0028   4.0032   5.0784
     5.8353   5.8428   5.8458   6.7029   6.7031   6.7309   7.3530   7.3748

          k = 0.2494-0.2494-0.5000 (  5128 PWs)   bands (ev):

   -64.8288 -64.8284 -64.8263 -64.8257 -31.6294 -31.6292 -31.6203 -31.6202
   -31.5913 -31.5910 -31.5812 -31.5812 -31.5790 -31.5787 -31.5768 -31.5767
    -8.4018  -8.4016  -7.9940  -7.9939   3.8266   3.8266   4.1863   4.1865
     5.8237   5.8237   6.7378   6.7380   6.8660   6.8661   7.0385   7.0386

          k =-0.5013-0.5013 0.0000 (  5196 PWs)   bands (ev):

   -64.8276 -64.8275 -64.8275 -64.8265 -31.6213 -31.6211 -31.6170 -31.6168
   -31.5975 -31.5973 -31.5973 -31.5970 -31.5768 -31.5765 -31.5755 -31.5753
    -8.2112  -8.2111  -8.1993  -8.1992   4.2900   4.2900   4.2966   4.2968
     5.7597   5.7601   5.7745   5.7748   7.0434   7.0435   7.0841   7.0841

          k =-0.5013-0.5013 0.2500 (  5136 PWs)   bands (ev):

   -64.8276 -64.8275 -64.8275 -64.8265 -31.6329 -31.6328 -31.6307 -31.6305
   -31.5835 -31.5834 -31.5820 -31.5820 -31.5765 -31.5763 -31.5741 -31.5739
    -8.1737  -8.1735  -8.1618  -8.1617   3.6328   3.6328   3.6479   3.6480
     6.5223   6.5226   6.5265   6.5268   7.0446   7.0446   7.0848   7.0848

          k =-0.5013-0.5013-0.5000 (  5136 PWs)   bands (ev):

   -64.8276 -64.8275 -64.8274 -64.8265 -31.6400 -31.6398 -31.6392 -31.6391
   -31.5757 -31.5755 -31.5752 -31.5750 -31.5749 -31.5748 -31.5746 -31.5743
    -8.1355  -8.1354  -8.1237  -8.1236   3.2081   3.2082   3.2270   3.2271
     7.0452   7.0453   7.0647   7.0649   7.0658   7.0660   7.0858   7.0858

     highest occupied level (ev):     7.6907

!    total energy              =    -608.39279587 Ry
     Harris-Foulkes estimate   =    -608.39279587 Ry
     estimated scf accuracy    <          4.3E-11 Ry

     The total energy is the sum of the following terms:

     one-electron contribution =    -303.55708257 Ry
     hartree contribution      =     168.06777678 Ry
     xc contribution           =     -97.84638223 Ry
     ewald contribution        =    -375.05710785 Ry

     convergence has been achieved in   5 iterations

     Forces acting on atoms (cartesian axes, Ry/au):

     atom    1 type  1   force =     0.00043500    0.00043500    0.00000000
     atom    2 type  1   force =    -0.00046843    0.00045648    0.00000000
     atom    3 type  1   force =     0.00045648   -0.00046843    0.00000000
     atom    4 type  1   force =    -0.00041985   -0.00041985    0.00000000
     atom    5 type  2   force =     0.00050016   -0.00050650    0.00000000
     atom    6 type  2   force =    -0.00050650    0.00050016    0.00000000
     atom    7 type  2   force =     0.00049115    0.00049115    0.00000000
     atom    8 type  2   force =    -0.00048802   -0.00048802    0.00000000

     Total force =     0.001886     Total SCF correction =     0.000006


     Computing stress (Cartesian axis) and pressure

          total   stress  (Ry/bohr**3)                   (kbar)     P=  -68.03
  -0.00046257   0.00004868   0.00000000        -68.05      7.16      0.00
   0.00004868  -0.00046257   0.00000000          7.16    -68.05      0.00
   0.00000000   0.00000000  -0.00046224          0.00      0.00    -68.00


     number of scf cycles    =   3
     number of bfgs steps    =   2

     energy   old            =    -608.3927896000 Ry
     energy   new            =    -608.3927958654 Ry

     CASE: energy  _new < energy  _old

     new trust radius        =       0.0017532385 bohr
     new conv_thr            =            1.0E-10 Ry


ATOMIC_POSITIONS (alat)
Mg       0.000291911   0.000291911   0.000000000
Mg      -0.000307741   0.500291027   0.500000000
Mg       0.500291027  -0.000307741   0.500000000
Mg       0.499732441   0.499732441   0.000000000
O        0.500343338  -0.000356977   0.000000000
O       -0.000356977   0.500343338   0.000000000
O        0.000343278   0.000343278   0.500000000
O        0.499662724   0.499662724   0.500000000



     Writing output data file MgO.-0.005.70.4.save
     NEW-OLD atomic charge density approx. for the potential

     Check: negative/imaginary core charge=   -0.000007    0.000000

     total cpu time spent up to now is       20.1 secs

     per-process dynamical memory:    52.7 Mb

     Self-consistent Calculation

     iteration #  1     ecut=    70.00 Ry     beta=0.70
     Davidson diagonalization with overlap
     ethr =  1.00E-06,  avg # of iterations =  3.0

     Threshold (ethr) on eigenvalues was too large:
     Diagonalizing with lowered threshold

     Davidson diagonalization with overlap
     ethr =  1.87E-09,  avg # of iterations =  2.5

     total cpu time spent up to now is       22.1 secs

     total energy              =    -608.39280288 Ry
     Harris-Foulkes estimate   =    -608.39280357 Ry
     estimated scf accuracy    <       0.00000123 Ry

     iteration #  2     ecut=    70.00 Ry     beta=0.70
     Davidson diagonalization with overlap
     ethr =  1.92E-09,  avg # of iterations =  2.0

     total cpu time spent up to now is       23.0 secs

     total energy              =    -608.39280309 Ry
     Harris-Foulkes estimate   =    -608.39280310 Ry
     estimated scf accuracy    <       0.00000003 Ry

     iteration #  3     ecut=    70.00 Ry     beta=0.70
     Davidson diagonalization with overlap
     ethr =  4.70E-11,  avg # of iterations =  2.0

     total cpu time spent up to now is       23.8 secs

     total energy              =    -608.39280310 Ry
     Harris-Foulkes estimate   =    -608.39280310 Ry
     estimated scf accuracy    <          1.9E-09 Ry

     iteration #  4     ecut=    70.00 Ry     beta=0.70
     Davidson diagonalization with overlap
     ethr =  3.04E-12,  avg # of iterations =  2.1

     total cpu time spent up to now is       24.7 secs

     total energy              =    -608.39280310 Ry
     Harris-Foulkes estimate   =    -608.39280310 Ry
     estimated scf accuracy    <          1.7E-10 Ry

     iteration #  5     ecut=    70.00 Ry     beta=0.70
     Davidson diagonalization with overlap
     ethr =  2.65E-13,  avg # of iterations =  2.9

     total cpu time spent up to now is       25.7 secs

     End of self-consistent calculation

          k = 0.0000 0.0000 0.0000 (  5153 PWs)   bands (ev):

   -64.8346 -64.8251 -64.8251 -64.8243 -31.6312 -31.6311 -31.6310 -31.5946
   -31.5935 -31.5935 -31.5933 -31.5933 -31.5923 -31.5654 -31.5644 -31.5639
    -9.3646  -7.9137  -7.9136  -7.9135   3.7581   3.7582   3.7582   6.3511
     6.3800   6.3801   6.3801   6.3804   6.4094   7.6542   7.6724   7.6906

          k = 0.0000 0.0000 0.2500 (  5157 PWs)   bands (ev):

   -64.8332 -64.8263 -64.8251 -64.8245 -31.6247 -31.6247 -31.6204 -31.5981
   -31.5981 -31.5941 -31.5941 -31.5898 -31.5876 -31.5783 -31.5729 -31.5701
    -9.1561  -8.1285  -7.8851  -7.8851   4.0486   4.0487   4.0956   5.8581
     5.8581   6.1706   6.1709   6.5152   6.5713   6.6589   7.4302   7.4706

          k = 0.0000 0.0000-0.5000 (  5118 PWs)   bands (ev):

   -64.8300 -64.8295 -64.8251 -64.8245 -31.6120 -31.6118 -31.6078 -31.6076
   -31.6020 -31.6020 -31.5908 -31.5908 -31.5820 -31.5817 -31.5793 -31.5791
    -8.6460  -8.6457  -7.8563  -7.8563   4.8444   4.8445   4.8512   4.8512
     5.1227   5.1230   5.9735   5.9739   6.9439   6.9441   6.9929   6.9931

          k = 0.0006 0.2500 0.0000 (  5165 PWs)   bands (ev):

   -64.8332 -64.8263 -64.8251 -64.8245 -31.6249 -31.6244 -31.6207 -31.5989
   -31.5985 -31.5939 -31.5935 -31.5891 -31.5889 -31.5789 -31.5716 -31.5713
    -9.1561  -8.1284  -7.8852  -7.8851   4.0484   4.0485   4.0955   5.8561
     5.8582   6.1706   6.1727   6.5428   6.5431   6.6586   7.4503   7.4506

          k = 0.0006 0.2500 0.2500 (  5159 PWs)   bands (ev):

   -64.8320 -64.8263 -64.8259 -64.8249 -31.6213 -31.6209 -31.6199 -31.6072
   -31.5942 -31.5940 -31.5931 -31.5879 -31.5866 -31.5864 -31.5757 -31.5685
    -8.9660  -8.0646  -8.0629  -7.8901   4.1600   4.1629   4.3288   5.0714
     5.8470   6.0530   6.0574   6.4843   6.4866   6.5835   7.1732   7.5058

          k = 0.0006 0.2500-0.5000 (  5150 PWs)   bands (ev):

   -64.8293 -64.8288 -64.8258 -64.8252 -31.6176 -31.6175 -31.6102 -31.6101
   -31.6066 -31.6063 -31.5852 -31.5850 -31.5838 -31.5837 -31.5754 -31.5753
    -8.5096  -8.5094  -7.9468  -7.9467   4.4184   4.4186   4.7511   4.7513
     5.0962   5.0965   6.5479   6.5482   6.5755   6.5757   7.0946   7.0947

          k =-0.0013-0.5000 0.0000 (  5110 PWs)   bands (ev):

   -64.8300 -64.8295 -64.8251 -64.8245 -31.6099 -31.6096 -31.6095 -31.6093
   -31.6019 -31.6019 -31.5908 -31.5907 -31.5806 -31.5804 -31.5803 -31.5801
    -8.6459  -8.6457  -7.8564  -7.8563   4.8477   4.8477   4.8479   4.8481
     5.1229   5.1231   5.9735   5.9739   6.9684   6.9684   6.9684   6.9685

          k =-0.0013-0.5000 0.2500 (  5152 PWs)   bands (ev):

   -64.8292 -64.8288 -64.8258 -64.8252 -31.6175 -31.6174 -31.6102 -31.6102
   -31.6068 -31.6065 -31.5851 -31.5849 -31.5839 -31.5838 -31.5754 -31.5753
    -8.5096  -8.5094  -7.9469  -7.9468   4.4183   4.4184   4.7512   4.7514
     5.0964   5.0966   6.5478   6.5481   6.5759   6.5760   7.0941   7.0942

          k =-0.0013-0.5000-0.5000 (  5192 PWs)   bands (ev):

   -64.8275 -64.8275 -64.8275 -64.8265 -31.6194 -31.6192 -31.6191 -31.6191
   -31.5970 -31.5968 -31.5967 -31.5964 -31.5764 -31.5762 -31.5760 -31.5760
    -8.2065  -8.2063  -8.2041  -8.2040   4.2912   4.2913   4.2954   4.2955
     5.7649   5.7651   5.7705   5.7707   7.0623   7.0623   7.0646   7.0649

          k = 0.2506 0.2506 0.0000 (  5161 PWs)   bands (ev):

   -64.8319 -64.8264 -64.8260 -64.8249 -31.6198 -31.6197 -31.6196 -31.6090
   -31.5948 -31.5943 -31.5943 -31.5874 -31.5873 -31.5867 -31.5755 -31.5677
    -8.9634  -8.0669  -8.0668  -7.8872   4.1627   4.1627   4.3314   5.0869
     5.8558   6.0514   6.0517   6.4903   6.4903   6.5576   7.1782   7.4876

          k = 0.2506 0.2506 0.2500 (  5160 PWs)   bands (ev):

   -64.8309 -64.8264 -64.8263 -64.8255 -31.6256 -31.6239 -31.6237 -31.6069
   -31.5952 -31.5951 -31.5947 -31.5841 -31.5841 -31.5830 -31.5718 -31.5704
    -8.7936  -8.0339  -8.0337  -8.0276   3.9979   3.9981   4.0101   5.1001
     5.8473   5.8490   5.8550   6.6805   6.7079   6.7081   7.3361   7.3578

          k = 0.2506 0.2506-0.5000 (  5148 PWs)   bands (ev):

   -64.8287 -64.8283 -64.8264 -64.8257 -31.6273 -31.6271 -31.6219 -31.6218
   -31.5950 -31.5947 -31.5804 -31.5803 -31.5787 -31.5786 -31.5766 -31.5764
    -8.3965  -8.3963  -8.0001  -8.0001   3.8163   3.8164   4.2096   4.2097
     5.8371   5.8371   6.7426   6.7428   6.8716   6.8718   6.9938   6.9939

          k = 0.2488-0.4994 0.0000 (  5148 PWs)   bands (ev):

   -64.8293 -64.8288 -64.8258 -64.8252 -31.6194 -31.6154 -31.6117 -31.6082
   -31.6069 -31.6067 -31.5851 -31.5848 -31.5848 -31.5826 -31.5762 -31.5742
    -8.5135  -8.5055  -7.9512  -7.9424   4.4131   4.4239   4.7490   4.7536
     5.0919   5.1008   6.5306   6.5657   6.5696   6.5822   7.0812   7.1076

          k = 0.2488-0.4994 0.2500 (  5134 PWs)   bands (ev):

   -64.8287 -64.8283 -64.8263 -64.8257 -31.6291 -31.6269 -31.6224 -31.6195
   -31.5931 -31.5928 -31.5814 -31.5802 -31.5789 -31.5781 -31.5772 -31.5762
    -8.4030  -8.3950  -8.0013  -7.9928   3.8128   3.8303   4.1915   4.2046
     5.8264   5.8344   6.7277   6.7531   6.8599   6.8774   7.0127   7.0204

          k = 0.2488-0.4994-0.5000 (  5144 PWs)   bands (ev):

   -64.8276 -64.8275 -64.8275 -64.8265 -31.6329 -31.6328 -31.6305 -31.6304
   -31.5838 -31.5836 -31.5826 -31.5824 -31.5755 -31.5754 -31.5750 -31.5750
    -8.1719  -8.1718  -8.1636  -8.1635   3.6309   3.6310   3.6497   3.6498
     6.5109   6.5111   6.5379   6.5380   7.0604   7.0606   7.0685   7.0687

          k = 0.2494-0.2494 0.0000 (  5161 PWs)   bands (ev):

   -64.8320 -64.8263 -64.8259 -64.8249 -31.6222 -31.6221 -31.6197 -31.6061
   -31.5942 -31.5942 -31.5913 -31.5892 -31.5858 -31.5857 -31.5755 -31.5700
    -8.9685  -8.0606  -8.0605  -7.8932   4.1602   4.1604   4.3259   5.0559
     5.8385   6.0595   6.0599   6.4794   6.4795   6.6097   7.1684   7.5235

          k = 0.2494-0.2494 0.2500 (  5150 PWs)   bands (ev):

   -64.8310 -64.8263 -64.8263 -64.8255 -31.6267 -31.6265 -31.6246 -31.6052
   -31.5926 -31.5924 -31.5922 -31.5851 -31.5840 -31.5840 -31.5725 -31.5709
    -8.7987  -8.0337  -8.0275  -8.0273   3.9908   4.0028   4.0030   5.0784
     5.8367   5.8428   5.8443   6.7029   6.7031   6.7308   7.3529   7.3747

          k = 0.2494-0.2494-0.5000 (  5128 PWs)   bands (ev):

   -64.8288 -64.8284 -64.8263 -64.8256 -31.6294 -31.6292 -31.6203 -31.6202
   -31.5912 -31.5910 -31.5812 -31.5811 -31.5789 -31.5787 -31.5768 -31.5767
    -8.4018  -8.4016  -7.9940  -7.9939   3.8266   3.8266   4.1863   4.1864
     5.8237   5.8237   6.7378   6.7380   6.8659   6.8661   7.0385   7.0386

          k =-0.5013-0.5013 0.0000 (  5196 PWs)   bands (ev):

   -64.8276 -64.8275 -64.8274 -64.8265 -31.6213 -31.6211 -31.6170 -31.6168
   -31.5975 -31.5973 -31.5973 -31.5970 -31.5768 -31.5765 -31.5755 -31.5753
    -8.2112  -8.2111  -8.1993  -8.1992   4.2900   4.2900   4.2966   4.2968
     5.7597   5.7600   5.7744   5.7749   7.0433   7.0434   7.0840   7.0840

          k =-0.5013-0.5013 0.2500 (  5136 PWs)   bands (ev):

   -64.8276 -64.8275 -64.8274 -64.8265 -31.6329 -31.6328 -31.6306 -31.6305
   -31.5834 -31.5834 -31.5820 -31.5820 -31.5765 -31.5763 -31.5741 -31.5739
    -8.1737  -8.1736  -8.1619  -8.1618   3.6327   3.6328   3.6478   3.6480
     6.5223   6.5226   6.5264   6.5268   7.0445   7.0446   7.0848   7.0848

          k =-0.5013-0.5013-0.5000 (  5136 PWs)   bands (ev):

   -64.8276 -64.8275 -64.8274 -64.8265 -31.6400 -31.6398 -31.6392 -31.6391
   -31.5757 -31.5755 -31.5752 -31.5750 -31.5749 -31.5748 -31.5745 -31.5743
    -8.1355  -8.1355  -8.1237  -8.1237   3.2081   3.2082   3.2270   3.2271
     7.0452   7.0452   7.0647   7.0649   7.0657   7.0660   7.0858   7.0858

     highest occupied level (ev):     7.6906

!    total energy              =    -608.39280310 Ry
     Harris-Foulkes estimate   =    -608.39280310 Ry
     estimated scf accuracy    <          2.3E-11 Ry

     The total energy is the sum of the following terms:

     one-electron contribution =    -303.55723164 Ry
     hartree contribution      =     168.06787763 Ry
     xc contribution           =     -97.84639887 Ry
     ewald contribution        =    -375.05705021 Ry

     convergence has been achieved in   5 iterations

     Forces acting on atoms (cartesian axes, Ry/au):

     atom    1 type  1   force =     0.00029614    0.00029614    0.00000000
     atom    2 type  1   force =    -0.00032873    0.00034284    0.00000000
     atom    3 type  1   force =     0.00034284   -0.00032873    0.00000000
     atom    4 type  1   force =    -0.00032077   -0.00032077    0.00000000
     atom    5 type  2   force =     0.00032117   -0.00030564    0.00000000
     atom    6 type  2   force =    -0.00030564    0.00032117    0.00000000
     atom    7 type  2   force =     0.00030355    0.00030355    0.00000000
     atom    8 type  2   force =    -0.00030856   -0.00030856    0.00000000

     Total force =     0.001265     Total SCF correction =     0.000012


     Computing stress (Cartesian axis) and pressure

          total   stress  (Ry/bohr**3)                   (kbar)     P=  -68.02
  -0.00046253   0.00004868   0.00000000        -68.04      7.16      0.00
   0.00004868  -0.00046253   0.00000000          7.16    -68.04      0.00
   0.00000000   0.00000000  -0.00046217          0.00      0.00    -67.99


     number of scf cycles    =   4
     number of bfgs steps    =   3

     energy   old            =    -608.3927958654 Ry
     energy   new            =    -608.3928030956 Ry

     CASE: energy  _new < energy  _old

     new trust radius        =       0.0026298578 bohr
     new conv_thr            =            1.0E-10 Ry


ATOMIC_POSITIONS (alat)
Mg       0.000496259   0.000496259   0.000000000
Mg      -0.000528987   0.500510866   0.500000000
Mg       0.500510866  -0.000528987   0.500000000
Mg       0.499528726   0.499528726   0.000000000
O        0.500574683  -0.000587943   0.000000000
O       -0.000587943   0.500574683   0.000000000
O        0.000568585   0.000568585   0.500000000
O        0.499437811   0.499437811   0.500000000



     Writing output data file MgO.-0.005.70.4.save
     NEW-OLD atomic charge density approx. for the potential

     Check: negative/imaginary core charge=   -0.000007    0.000000

     total cpu time spent up to now is       26.3 secs

     per-process dynamical memory:    52.7 Mb

     Self-consistent Calculation

     iteration #  1     ecut=    70.00 Ry     beta=0.70
     Davidson diagonalization with overlap
     ethr =  1.00E-06,  avg # of iterations =  3.0

     Threshold (ethr) on eigenvalues was too large:
     Diagonalizing with lowered threshold

     Davidson diagonalization with overlap
     ethr =  4.21E-09,  avg # of iterations =  2.2

     total cpu time spent up to now is       28.3 secs

     total energy              =    -608.39280819 Ry
     Harris-Foulkes estimate   =    -608.39280969 Ry
     estimated scf accuracy    <       0.00000271 Ry

     iteration #  2     ecut=    70.00 Ry     beta=0.70
     Davidson diagonalization with overlap
     ethr =  4.23E-09,  avg # of iterations =  2.0

     total cpu time spent up to now is       29.2 secs

     total energy              =    -608.39280865 Ry
     Harris-Foulkes estimate   =    -608.39280866 Ry
     estimated scf accuracy    <       0.00000007 Ry

     iteration #  3     ecut=    70.00 Ry     beta=0.70
     Davidson diagonalization with overlap
     ethr =  1.05E-10,  avg # of iterations =  2.0

     total cpu time spent up to now is       30.0 secs

     total energy              =    -608.39280866 Ry
     Harris-Foulkes estimate   =    -608.39280866 Ry
     estimated scf accuracy    <          4.5E-09 Ry

     iteration #  4     ecut=    70.00 Ry     beta=0.70
     Davidson diagonalization with overlap
     ethr =  7.03E-12,  avg # of iterations =  2.2

     total cpu time spent up to now is       30.9 secs

     total energy              =    -608.39280866 Ry
     Harris-Foulkes estimate   =    -608.39280866 Ry
     estimated scf accuracy    <          5.3E-10 Ry

     iteration #  5     ecut=    70.00 Ry     beta=0.70
     Davidson diagonalization with overlap
     ethr =  8.23E-13,  avg # of iterations =  3.0

     total cpu time spent up to now is       31.9 secs

     End of self-consistent calculation

          k = 0.0000 0.0000 0.0000 (  5153 PWs)   bands (ev):

   -64.8346 -64.8251 -64.8251 -64.8243 -31.6312 -31.6311 -31.6310 -31.5946
   -31.5935 -31.5935 -31.5933 -31.5933 -31.5923 -31.5654 -31.5644 -31.5639
    -9.3646  -7.9137  -7.9136  -7.9135   3.7581   3.7582   3.7582   6.3511
     6.3800   6.3801   6.3801   6.3804   6.4094   7.6542   7.6724   7.6906

          k = 0.0000 0.0000 0.2500 (  5157 PWs)   bands (ev):

   -64.8332 -64.8263 -64.8251 -64.8245 -31.6247 -31.6247 -31.6204 -31.5981
   -31.5981 -31.5941 -31.5941 -31.5898 -31.5876 -31.5783 -31.5729 -31.5701
    -9.1561  -8.1285  -7.8852  -7.8851   4.0487   4.0487   4.0955   5.8581
     5.8581   6.1706   6.1709   6.5152   6.5713   6.6589   7.4301   7.4706

          k = 0.0000 0.0000-0.5000 (  5118 PWs)   bands (ev):

   -64.8300 -64.8295 -64.8251 -64.8245 -31.6120 -31.6118 -31.6078 -31.6076
   -31.6020 -31.6020 -31.5908 -31.5908 -31.5820 -31.5817 -31.5793 -31.5791
    -8.6460  -8.6457  -7.8564  -7.8563   4.8444   4.8445   4.8512   4.8512
     5.1226   5.1229   5.9735   5.9739   6.9439   6.9441   6.9929   6.9931

          k = 0.0006 0.2500 0.0000 (  5165 PWs)   bands (ev):

   -64.8332 -64.8263 -64.8251 -64.8245 -31.6249 -31.6244 -31.6207 -31.5989
   -31.5984 -31.5939 -31.5935 -31.5891 -31.5889 -31.5789 -31.5715 -31.5713
    -9.1561  -8.1284  -7.8852  -7.8851   4.0484   4.0485   4.0955   5.8561
     5.8582   6.1706   6.1726   6.5428   6.5431   6.6586   7.4503   7.4506

          k = 0.0006 0.2500 0.2500 (  5159 PWs)   bands (ev):

   -64.8320 -64.8263 -64.8259 -64.8249 -31.6213 -31.6209 -31.6199 -31.6072
   -31.5942 -31.5940 -31.5931 -31.5879 -31.5866 -31.5864 -31.5756 -31.5684
    -8.9660  -8.0639  -8.0636  -7.8901   4.1612   4.1617   4.3288   5.0714
     5.8470   6.0547   6.0557   6.4849   6.4860   6.5835   7.1732   7.5058

          k = 0.0006 0.2500-0.5000 (  5150 PWs)   bands (ev):

   -64.8292 -64.8288 -64.8258 -64.8252 -31.6176 -31.6175 -31.6101 -31.6101
   -31.6066 -31.6063 -31.5852 -31.5850 -31.5838 -31.5837 -31.5754 -31.5752
    -8.5096  -8.5094  -7.9468  -7.9467   4.4184   4.4186   4.7511   4.7513
     5.0962   5.0965   6.5479   6.5482   6.5755   6.5757   7.0946   7.0947

          k =-0.0013-0.5000 0.0000 (  5110 PWs)   bands (ev):

   -64.8300 -64.8295 -64.8251 -64.8245 -31.6099 -31.6096 -31.6095 -31.6093
   -31.6019 -31.6019 -31.5908 -31.5907 -31.5806 -31.5804 -31.5803 -31.5801
    -8.6459  -8.6457  -7.8564  -7.8564   4.8475   4.8478   4.8479   4.8482
     5.1228   5.1231   5.9736   5.9739   6.9683   6.9684   6.9685   6.9686

          k =-0.0013-0.5000 0.2500 (  5152 PWs)   bands (ev):

   -64.8292 -64.8288 -64.8258 -64.8252 -31.6175 -31.6174 -31.6102 -31.6102
   -31.6068 -31.6065 -31.5851 -31.5849 -31.5839 -31.5838 -31.5754 -31.5753
    -8.5096  -8.5094  -7.9469  -7.9468   4.4183   4.4185   4.7512   4.7514
     5.0963   5.0966   6.5478   6.5481   6.5758   6.5761   7.0941   7.0942

          k =-0.0013-0.5000-0.5000 (  5192 PWs)   bands (ev):

   -64.8275 -64.8275 -64.8275 -64.8265 -31.6194 -31.6192 -31.6191 -31.6191
   -31.5970 -31.5968 -31.5968 -31.5965 -31.5763 -31.5761 -31.5760 -31.5760
    -8.2056  -8.2053  -8.2051  -8.2050   4.2930   4.2931   4.2936   4.2937
     5.7671   5.7675   5.7681   5.7684   7.0633   7.0633   7.0636   7.0639

          k = 0.2506 0.2506 0.0000 (  5161 PWs)   bands (ev):

   -64.8319 -64.8264 -64.8260 -64.8249 -31.6198 -31.6197 -31.6196 -31.6090
   -31.5948 -31.5943 -31.5943 -31.5874 -31.5873 -31.5867 -31.5755 -31.5677
    -8.9634  -8.0669  -8.0668  -7.8872   4.1627   4.1628   4.3314   5.0869
     5.8558   6.0514   6.0517   6.4903   6.4903   6.5576   7.1782   7.4876

          k = 0.2506 0.2506 0.2500 (  5160 PWs)   bands (ev):

   -64.8309 -64.8264 -64.8263 -64.8255 -31.6256 -31.6239 -31.6237 -31.6069
   -31.5952 -31.5951 -31.5947 -31.5841 -31.5841 -31.5830 -31.5718 -31.5704
    -8.7936  -8.0338  -8.0337  -8.0278   3.9981   3.9981   4.0099   5.1001
     5.8488   5.8490   5.8535   6.6805   6.7079   6.7081   7.3361   7.3578

          k = 0.2506 0.2506-0.5000 (  5148 PWs)   bands (ev):

   -64.8287 -64.8283 -64.8263 -64.8257 -31.6273 -31.6271 -31.6219 -31.6218
   -31.5950 -31.5947 -31.5804 -31.5803 -31.5787 -31.5786 -31.5766 -31.5764
    -8.3965  -8.3962  -8.0002  -8.0001   3.8163   3.8164   4.2096   4.2097
     5.8371   5.8371   6.7426   6.7428   6.8716   6.8718   6.9938   6.9939

          k = 0.2488-0.4994 0.0000 (  5148 PWs)   bands (ev):

   -64.8292 -64.8288 -64.8258 -64.8252 -31.6194 -31.6154 -31.6117 -31.6082
   -31.6069 -31.6067 -31.5851 -31.5848 -31.5848 -31.5826 -31.5762 -31.5742
    -8.5135  -8.5055  -7.9512  -7.9424   4.4131   4.4239   4.7490   4.7536
     5.0919   5.1008   6.5306   6.5657   6.5696   6.5822   7.0812   7.1075

          k = 0.2488-0.4994 0.2500 (  5134 PWs)   bands (ev):

   -64.8287 -64.8283 -64.8263 -64.8257 -31.6291 -31.6269 -31.6224 -31.6195
   -31.5931 -31.5928 -31.5814 -31.5802 -31.5789 -31.5781 -31.5772 -31.5762
    -8.4030  -8.3950  -8.0013  -7.9928   3.8128   3.8303   4.1915   4.2046
     5.8264   5.8344   6.7277   6.7531   6.8599   6.8774   7.0127   7.0204

          k = 0.2488-0.4994-0.5000 (  5144 PWs)   bands (ev):

   -64.8276 -64.8275 -64.8275 -64.8265 -31.6329 -31.6328 -31.6305 -31.6304
   -31.5838 -31.5836 -31.5826 -31.5824 -31.5755 -31.5754 -31.5750 -31.5750
    -8.1718  -8.1717  -8.1637  -8.1636   3.6311   3.6312   3.6496   3.6497
     6.5111   6.5112   6.5377   6.5379   7.0605   7.0607   7.0684   7.0686

          k = 0.2494-0.2494 0.0000 (  5161 PWs)   bands (ev):

   -64.8320 -64.8263 -64.8259 -64.8249 -31.6222 -31.6220 -31.6197 -31.6061
   -31.5942 -31.5942 -31.5913 -31.5892 -31.5858 -31.5857 -31.5755 -31.5700
    -8.9685  -8.0607  -8.0605  -7.8932   4.1602   4.1604   4.3259   5.0559
     5.8385   6.0595   6.0600   6.4794   6.4795   6.6096   7.1684   7.5234

          k = 0.2494-0.2494 0.2500 (  5150 PWs)   bands (ev):

   -64.8310 -64.8263 -64.8263 -64.8255 -31.6267 -31.6265 -31.6246 -31.6052
   -31.5926 -31.5924 -31.5922 -31.5850 -31.5840 -31.5840 -31.5725 -31.5709
    -8.7987  -8.0336  -8.0276  -8.0274   3.9910   4.0028   4.0029   5.0784
     5.8381   5.8427   5.8430   6.7029   6.7031   6.7308   7.3529   7.3747

          k = 0.2494-0.2494-0.5000 (  5128 PWs)   bands (ev):

   -64.8288 -64.8284 -64.8263 -64.8256 -31.6294 -31.6292 -31.6203 -31.6202
   -31.5912 -31.5910 -31.5812 -31.5811 -31.5789 -31.5787 -31.5768 -31.5767
    -8.4018  -8.4016  -7.9940  -7.9939   3.8266   3.8266   4.1863   4.1864
     5.8237   5.8237   6.7378   6.7380   6.8659   6.8661   7.0385   7.0386

          k =-0.5013-0.5013 0.0000 (  5196 PWs)   bands (ev):

   -64.8276 -64.8275 -64.8274 -64.8265 -31.6213 -31.6211 -31.6170 -31.6167
   -31.5975 -31.5973 -31.5972 -31.5970 -31.5768 -31.5765 -31.5755 -31.5753
    -8.2112  -8.2111  -8.1994  -8.1992   4.2900   4.2900   4.2966   4.2968
     5.7597   5.7601   5.7744   5.7749   7.0433   7.0434   7.0840   7.0840

          k =-0.5013-0.5013 0.2500 (  5136 PWs)   bands (ev):

   -64.8276 -64.8275 -64.8274 -64.8265 -31.6329 -31.6327 -31.6306 -31.6305
   -31.5834 -31.5834 -31.5820 -31.5820 -31.5765 -31.5763 -31.5741 -31.5739
    -8.1737  -8.1736  -8.1619  -8.1617   3.6328   3.6328   3.6478   3.6480
     6.5223   6.5226   6.5264   6.5268   7.0445   7.0446   7.0848   7.0848

          k =-0.5013-0.5013-0.5000 (  5136 PWs)   bands (ev):

   -64.8276 -64.8275 -64.8274 -64.8265 -31.6400 -31.6398 -31.6392 -31.6391
   -31.5757 -31.5755 -31.5752 -31.5750 -31.5749 -31.5748 -31.5745 -31.5743
    -8.1356  -8.1355  -8.1238  -8.1237   3.2081   3.2081   3.2270   3.2271
     7.0452   7.0452   7.0647   7.0649   7.0657   7.0660   7.0858   7.0858

     highest occupied level (ev):     7.6906

!    total energy              =    -608.39280866 Ry
     Harris-Foulkes estimate   =    -608.39280866 Ry
     estimated scf accuracy    <          6.1E-11 Ry

     The total energy is the sum of the following terms:

     one-electron contribution =    -303.55732444 Ry
     hartree contribution      =     168.06792324 Ry
     xc contribution           =     -97.84639995 Ry
     ewald contribution        =    -375.05700751 Ry

     convergence has been achieved in   5 iterations

     Forces acting on atoms (cartesian axes, Ry/au):

     atom    1 type  1   force =     0.00007913    0.00007913    0.00000000
     atom    2 type  1   force =    -0.00010699    0.00015276    0.00000000
     atom    3 type  1   force =     0.00015276   -0.00010699    0.00000000
     atom    4 type  1   force =    -0.00015116   -0.00015116    0.00000000
     atom    5 type  2   force =     0.00005148   -0.00001486    0.00000000
     atom    6 type  2   force =    -0.00001486    0.00005148    0.00000000
     atom    7 type  2   force =     0.00002913    0.00002913    0.00000000
     atom    8 type  2   force =    -0.00003950   -0.00003950    0.00000000

     Total force =     0.000372     Total SCF correction =     0.000019


     Computing stress (Cartesian axis) and pressure

          total   stress  (Ry/bohr**3)                   (kbar)     P=  -68.02
  -0.00046255   0.00004868   0.00000000        -68.04      7.16      0.00
   0.00004868  -0.00046255   0.00000000          7.16    -68.04      0.00
   0.00000000   0.00000000  -0.00046217          0.00      0.00    -67.99


     number of scf cycles    =   5
     number of bfgs steps    =   4

     energy   old            =    -608.3928030956 Ry
     energy   new            =    -608.3928086569 Ry

     CASE: energy  _new < energy  _old

     new trust radius        =       0.0009056468 bohr
     new conv_thr            =            1.0E-10 Ry


ATOMIC_POSITIONS (alat)
Mg       0.000563870   0.000563870   0.000000000
Mg      -0.000605318   0.500593612   0.500000000
Mg       0.500593612  -0.000605318   0.500000000
Mg       0.499450608   0.499450608   0.000000000
O        0.500645613  -0.000653439   0.000000000
O       -0.000653439   0.500645613   0.000000000
O        0.000634635   0.000634635   0.500000000
O        0.499370419   0.499370419   0.500000000



     Writing output data file MgO.-0.005.70.4.save
     NEW-OLD atomic charge density approx. for the potential

     Check: negative/imaginary core charge=   -0.000007    0.000000

     total cpu time spent up to now is       32.5 secs

     per-process dynamical memory:    52.7 Mb

     Self-consistent Calculation

     iteration #  1     ecut=    70.00 Ry     beta=0.70
     Davidson diagonalization with overlap
     ethr =  1.00E-06,  avg # of iterations =  2.0

     Threshold (ethr) on eigenvalues was too large:
     Diagonalizing with lowered threshold

     Davidson diagonalization with overlap
     ethr =  2.47E-10,  avg # of iterations =  3.1

     total cpu time spent up to now is       34.6 secs

     total energy              =    -608.39280902 Ry
     Harris-Foulkes estimate   =    -608.39280914 Ry
     estimated scf accuracy    <       0.00000022 Ry

     iteration #  2     ecut=    70.00 Ry     beta=0.70
     Davidson diagonalization with overlap
     ethr =  3.50E-10,  avg # of iterations =  2.0

     total cpu time spent up to now is       35.4 secs

     total energy              =    -608.39280906 Ry
     Harris-Foulkes estimate   =    -608.39280906 Ry
     estimated scf accuracy    <          6.6E-09 Ry

     iteration #  3     ecut=    70.00 Ry     beta=0.70
     Davidson diagonalization with overlap
     ethr =  1.04E-11,  avg # of iterations =  2.2

     total cpu time spent up to now is       36.3 secs

     total energy              =    -608.39280906 Ry
     Harris-Foulkes estimate   =    -608.39280906 Ry
     estimated scf accuracy    <          9.9E-10 Ry

     iteration #  4     ecut=    70.00 Ry     beta=0.70
     Davidson diagonalization with overlap
     ethr =  1.55E-12,  avg # of iterations =  3.0

     total cpu time spent up to now is       37.3 secs

     total energy              =    -608.39280906 Ry
     Harris-Foulkes estimate   =    -608.39280906 Ry
     estimated scf accuracy    <          1.0E-09 Ry

     iteration #  5     ecut=    70.00 Ry     beta=0.70
     Davidson diagonalization with overlap
     ethr =  1.55E-12,  avg # of iterations =  2.6

     total cpu time spent up to now is       38.2 secs

     End of self-consistent calculation

          k = 0.0000 0.0000 0.0000 (  5153 PWs)   bands (ev):

   -64.8346 -64.8251 -64.8251 -64.8243 -31.6312 -31.6311 -31.6310 -31.5946
   -31.5935 -31.5935 -31.5933 -31.5933 -31.5923 -31.5654 -31.5644 -31.5639
    -9.3646  -7.9137  -7.9136  -7.9135   3.7581   3.7582   3.7582   6.3511
     6.3800   6.3801   6.3801   6.3804   6.4094   7.6542   7.6724   7.6906

          k = 0.0000 0.0000 0.2500 (  5157 PWs)   bands (ev):

   -64.8332 -64.8263 -64.8251 -64.8245 -31.6247 -31.6247 -31.6204 -31.5981
   -31.5981 -31.5941 -31.5941 -31.5898 -31.5876 -31.5783 -31.5729 -31.5701
    -9.1562  -8.1285  -7.8852  -7.8851   4.0487   4.0487   4.0955   5.8581
     5.8581   6.1706   6.1709   6.5152   6.5713   6.6589   7.4301   7.4706

          k = 0.0000 0.0000-0.5000 (  5118 PWs)   bands (ev):

   -64.8300 -64.8295 -64.8251 -64.8245 -31.6120 -31.6118 -31.6078 -31.6076
   -31.6020 -31.6020 -31.5908 -31.5908 -31.5820 -31.5817 -31.5793 -31.5791
    -8.6460  -8.6457  -7.8564  -7.8563   4.8444   4.8445   4.8512   4.8512
     5.1227   5.1229   5.9735   5.9739   6.9439   6.9441   6.9929   6.9931

          k = 0.0006 0.2500 0.0000 (  5165 PWs)   bands (ev):

   -64.8332 -64.8263 -64.8251 -64.8245 -31.6249 -31.6244 -31.6207 -31.5989
   -31.5984 -31.5939 -31.5935 -31.5891 -31.5889 -31.5789 -31.5715 -31.5713
    -9.1561  -8.1284  -7.8852  -7.8851   4.0484   4.0485   4.0955   5.8561
     5.8582   6.1706   6.1726   6.5428   6.5431   6.6586   7.4503   7.4506

          k = 0.0006 0.2500 0.2500 (  5159 PWs)   bands (ev):

   -64.8320 -64.8263 -64.8259 -64.8249 -31.6213 -31.6209 -31.6199 -31.6072
   -31.5942 -31.5940 -31.5931 -31.5879 -31.5866 -31.5864 -31.5756 -31.5684
    -8.9660  -8.0639  -8.0637  -7.8901   4.1612   4.1617   4.3288   5.0714
     5.8470   6.0548   6.0557   6.4849   6.4860   6.5835   7.1732   7.5058

          k = 0.0006 0.2500-0.5000 (  5150 PWs)   bands (ev):

   -64.8292 -64.8288 -64.8258 -64.8252 -31.6176 -31.6175 -31.6101 -31.6101
   -31.6065 -31.6063 -31.5852 -31.5850 -31.5838 -31.5837 -31.5754 -31.5752
    -8.5096  -8.5094  -7.9468  -7.9467   4.4184   4.4186   4.7511   4.7513
     5.0962   5.0965   6.5479   6.5482   6.5755   6.5757   7.0946   7.0947

          k =-0.0013-0.5000 0.0000 (  5110 PWs)   bands (ev):

   -64.8300 -64.8295 -64.8251 -64.8245 -31.6099 -31.6096 -31.6095 -31.6093
   -31.6019 -31.6019 -31.5908 -31.5907 -31.5806 -31.5804 -31.5803 -31.5801
    -8.6460  -8.6457  -7.8564  -7.8563   4.8475   4.8478   4.8479   4.8482
     5.1228   5.1231   5.9735   5.9739   6.9683   6.9683   6.9685   6.9686

          k =-0.0013-0.5000 0.2500 (  5152 PWs)   bands (ev):

   -64.8292 -64.8288 -64.8258 -64.8252 -31.6175 -31.6174 -31.6102 -31.6102
   -31.6068 -31.6065 -31.5851 -31.5849 -31.5839 -31.5838 -31.5754 -31.5753
    -8.5096  -8.5094  -7.9469  -7.9468   4.4183   4.4185   4.7512   4.7514
     5.0963   5.0967   6.5478   6.5481   6.5758   6.5761   7.0941   7.0942

          k =-0.0013-0.5000-0.5000 (  5192 PWs)   bands (ev):

   -64.8275 -64.8275 -64.8275 -64.8265 -31.6194 -31.6192 -31.6191 -31.6191
   -31.5969 -31.5968 -31.5968 -31.5965 -31.5763 -31.5761 -31.5760 -31.5760
    -8.2054  -8.2054  -8.2052  -8.2050   4.2930   4.2932   4.2935   4.2936
     5.7673   5.7675   5.7680   5.7683   7.0633   7.0635   7.0636   7.0637

          k = 0.2506 0.2506 0.0000 (  5161 PWs)   bands (ev):

   -64.8319 -64.8264 -64.8260 -64.8249 -31.6198 -31.6197 -31.6196 -31.6090
   -31.5948 -31.5943 -31.5943 -31.5874 -31.5873 -31.5867 -31.5755 -31.5677
    -8.9634  -8.0669  -8.0668  -7.8872   4.1627   4.1628   4.3314   5.0869
     5.8558   6.0514   6.0517   6.4903   6.4903   6.5576   7.1782   7.4876

          k = 0.2506 0.2506 0.2500 (  5160 PWs)   bands (ev):

   -64.8309 -64.8263 -64.8263 -64.8255 -31.6256 -31.6239 -31.6237 -31.6069
   -31.5952 -31.5951 -31.5947 -31.5841 -31.5841 -31.5830 -31.5718 -31.5704
    -8.7936  -8.0338  -8.0337  -8.0278   3.9981   3.9981   4.0099   5.1001
     5.8488   5.8490   5.8535   6.6805   6.7079   6.7081   7.3361   7.3578

          k = 0.2506 0.2506-0.5000 (  5148 PWs)   bands (ev):

   -64.8287 -64.8283 -64.8263 -64.8257 -31.6273 -31.6271 -31.6219 -31.6218
   -31.5950 -31.5947 -31.5804 -31.5803 -31.5787 -31.5786 -31.5766 -31.5764
    -8.3965  -8.3963  -8.0002  -8.0001   3.8163   3.8164   4.2096   4.2097
     5.8371   5.8371   6.7426   6.7428   6.8716   6.8718   6.9938   6.9939

          k = 0.2488-0.4994 0.0000 (  5148 PWs)   bands (ev):

   -64.8292 -64.8288 -64.8258 -64.8252 -31.6194 -31.6154 -31.6117 -31.6082
   -31.6069 -31.6067 -31.5851 -31.5848 -31.5848 -31.5826 -31.5762 -31.5742
    -8.5135  -8.5055  -7.9512  -7.9424   4.4131   4.4239   4.7490   4.7536
     5.0918   5.1008   6.5306   6.5657   6.5696   6.5822   7.0812   7.1075

          k = 0.2488-0.4994 0.2500 (  5134 PWs)   bands (ev):

   -64.8287 -64.8283 -64.8263 -64.8257 -31.6291 -31.6269 -31.6224 -31.6195
   -31.5931 -31.5928 -31.5814 -31.5802 -31.5789 -31.5781 -31.5772 -31.5762
    -8.4030  -8.3950  -8.0013  -7.9928   3.8128   3.8303   4.1915   4.2046
     5.8264   5.8344   6.7277   6.7531   6.8599   6.8774   7.0127   7.0204

          k = 0.2488-0.4994-0.5000 (  5144 PWs)   bands (ev):

   -64.8276 -64.8275 -64.8275 -64.8265 -31.6329 -31.6328 -31.6305 -31.6304
   -31.5838 -31.5836 -31.5826 -31.5824 -31.5755 -31.5754 -31.5750 -31.5750
    -8.1718  -8.1717  -8.1637  -8.1636   3.6311   3.6312   3.6496   3.6497
     6.5111   6.5112   6.5377   6.5379   7.0605   7.0607   7.0684   7.0686

          k = 0.2494-0.2494 0.0000 (  5161 PWs)   bands (ev):

   -64.8320 -64.8263 -64.8259 -64.8249 -31.6222 -31.6220 -31.6197 -31.6061
   -31.5942 -31.5942 -31.5913 -31.5892 -31.5858 -31.5857 -31.5755 -31.5700
    -8.9685  -8.0606  -8.0605  -7.8932   4.1603   4.1604   4.3259   5.0559
     5.8385   6.0596   6.0599   6.4794   6.4795   6.6096   7.1684   7.5234

          k = 0.2494-0.2494 0.2500 (  5150 PWs)   bands (ev):

   -64.8310 -64.8263 -64.8263 -64.8255 -31.6267 -31.6265 -31.6246 -31.6052
   -31.5925 -31.5924 -31.5922 -31.5850 -31.5840 -31.5840 -31.5725 -31.5709
    -8.7987  -8.0336  -8.0275  -8.0275   3.9910   4.0028   4.0029   5.0784
     5.8382   5.8427   5.8429   6.7029   6.7031   6.7308   7.3529   7.3747

          k = 0.2494-0.2494-0.5000 (  5128 PWs)   bands (ev):

   -64.8288 -64.8284 -64.8263 -64.8256 -31.6294 -31.6292 -31.6203 -31.6202
   -31.5912 -31.5910 -31.5812 -31.5811 -31.5789 -31.5787 -31.5768 -31.5767
    -8.4018  -8.4016  -7.9940  -7.9939   3.8266   3.8266   4.1863   4.1864
     5.8237   5.8237   6.7378   6.7380   6.8659   6.8661   7.0385   7.0386

          k =-0.5013-0.5013 0.0000 (  5196 PWs)   bands (ev):

   -64.8276 -64.8275 -64.8274 -64.8265 -31.6213 -31.6211 -31.6170 -31.6167
   -31.5975 -31.5973 -31.5972 -31.5970 -31.5768 -31.5765 -31.5755 -31.5753
    -8.2112  -8.2111  -8.1993  -8.1992   4.2900   4.2900   4.2966   4.2968
     5.7597   5.7600   5.7744   5.7748   7.0433   7.0434   7.0840   7.0840

          k =-0.5013-0.5013 0.2500 (  5136 PWs)   bands (ev):

   -64.8276 -64.8275 -64.8274 -64.8265 -31.6329 -31.6327 -31.6306 -31.6305
   -31.5834 -31.5834 -31.5820 -31.5820 -31.5765 -31.5763 -31.5741 -31.5739
    -8.1737  -8.1736  -8.1619  -8.1618   3.6328   3.6328   3.6478   3.6480
     6.5223   6.5226   6.5264   6.5267   7.0445   7.0446   7.0848   7.0848

          k =-0.5013-0.5013-0.5000 (  5136 PWs)   bands (ev):

   -64.8276 -64.8275 -64.8274 -64.8265 -31.6400 -31.6398 -31.6392 -31.6391
   -31.5757 -31.5755 -31.5752 -31.5750 -31.5749 -31.5748 -31.5745 -31.5743
    -8.1355  -8.1355  -8.1238  -8.1237   3.2081   3.2081   3.2270   3.2271
     7.0452   7.0452   7.0647   7.0649   7.0657   7.0660   7.0858   7.0858

     highest occupied level (ev):     7.6906

!    total energy              =    -608.39280906 Ry
     Harris-Foulkes estimate   =    -608.39280906 Ry
     estimated scf accuracy    <          4.5E-12 Ry

     The total energy is the sum of the following terms:

     one-electron contribution =    -303.55732655 Ry
     hartree contribution      =     168.06792588 Ry
     xc contribution           =     -97.84640048 Ry
     ewald contribution        =    -375.05700791 Ry

     convergence has been achieved in   5 iterations

     Forces acting on atoms (cartesian axes, Ry/au):

     atom    1 type  1   force =     0.00000507    0.00000507    0.00000000
     atom    2 type  1   force =    -0.00002707    0.00007396    0.00000000
     atom    3 type  1   force =     0.00007396   -0.00002707    0.00000000
     atom    4 type  1   force =    -0.00007723   -0.00007723    0.00000000
     atom    5 type  2   force =    -0.00002872    0.00006001    0.00000000
     atom    6 type  2   force =     0.00006001   -0.00002872    0.00000000
     atom    7 type  2   force =    -0.00004411   -0.00004411    0.00000000
     atom    8 type  2   force =     0.00003809    0.00003809    0.00000000

     Total force =     0.000200     Total SCF correction =     0.000007


     Computing stress (Cartesian axis) and pressure

          total   stress  (Ry/bohr**3)                   (kbar)     P=  -68.02
  -0.00046255   0.00004868   0.00000000        -68.04      7.16      0.00
   0.00004868  -0.00046255   0.00000000          7.16    -68.04      0.00
   0.00000000   0.00000000  -0.00046217          0.00      0.00    -67.99


     bfgs converged in   6 scf cycles and   5 bfgs steps
     (criteria: energy <  1.0E-05 Ry, force <  1.0E-04 Ry/Bohr)

     End of BFGS Geometry Optimization

     Final energy   =    -608.3928090605 Ry
Begin final coordinates

ATOMIC_POSITIONS (alat)
Mg       0.000563870   0.000563870   0.000000000
Mg      -0.000605318   0.500593612   0.500000000
Mg       0.500593612  -0.000605318   0.500000000
Mg       0.499450608   0.499450608   0.000000000
O        0.500645613  -0.000653439   0.000000000
O       -0.000653439   0.500645613   0.000000000
O        0.000634635   0.000634635   0.500000000
O        0.499370419   0.499370419   0.500000000
End final coordinates



     Writing output data file MgO.-0.005.70.4.save
 
     init_run     :      0.43s CPU      0.44s WALL (       1 calls)
     electrons    :     34.03s CPU     34.58s WALL (       6 calls)
     update_pot   :      0.56s CPU      0.57s WALL (       5 calls)
     forces       :      0.79s CPU      0.80s WALL (       6 calls)
     stress       :      1.79s CPU      1.79s WALL (       6 calls)

     Called by init_run:
     wfcinit      :      0.30s CPU      0.31s WALL (       1 calls)
     potinit      :      0.05s CPU      0.05s WALL (       1 calls)

     Called by electrons:
     c_bands      :     29.68s CPU     30.12s WALL (      37 calls)
     sum_band     :      4.12s CPU      4.22s WALL (      37 calls)
     v_of_rho     :      0.19s CPU      0.20s WALL (      38 calls)
     mix_rho      :      0.02s CPU      0.03s WALL (      37 calls)

     Called by c_bands:
     init_us_2    :      0.44s CPU      0.45s WALL (    1827 calls)
     cegterg      :     27.62s CPU     28.04s WALL (     777 calls)

     Called by sum_band:

     Called by *egterg:
     h_psi        :     20.30s CPU     20.70s WALL (    2651 calls)
     g_psi        :      0.15s CPU      0.15s WALL (    1853 calls)
     cdiaghg      :      3.92s CPU      3.93s WALL (    2420 calls)

     Called by h_psi:
     h_psi:pot    :     20.22s CPU     20.60s WALL (    2651 calls)
     h_psi:calbec :      1.14s CPU      1.14s WALL (    2651 calls)
     vloc_psi     :     18.13s CPU     18.49s WALL (    2651 calls)
     add_vuspsi   :      0.94s CPU      0.95s WALL (    2651 calls)

     General routines
     calbec       :      1.49s CPU      1.49s WALL (    3281 calls)
     fft          :      0.17s CPU      0.18s WALL (     577 calls)
     fftw         :     20.24s CPU     20.23s WALL (  156354 calls)
     davcio       :      0.00s CPU      0.01s WALL (      21 calls)
 
     Parallel routines
     fft_scatter  :      5.61s CPU      5.46s WALL (  156931 calls)
 
     PWSCF        :    37.99s CPU        38.71s WALL

 
   This run was terminated on:  19: 5:46  22Apr2018            

=------------------------------------------------------------------------------=
   JOB DONE.
=------------------------------------------------------------------------------=
