
     Program PWSCF v.6.1 (svn rev. 13369) starts on 22Apr2018 at 19:12:17 

     This program is part of the open-source Quantum ESPRESSO suite
     for quantum simulation of materials; please cite
         "P. Giannozzi et al., J. Phys.:Condens. Matter 21 395502 (2009);
          URL http://www.quantum-espresso.org", 
     in publications or presentations arising from this work. More details at
     http://www.quantum-espresso.org/quote

     Parallel version (MPI), running on     8 processors
     R & G space division:  proc/nbgrp/npool/nimage =       8
     Waiting for input...
     Reading input from standard input
Warning: card       &CELL ignored
Warning: card          CELL_DYNAMICS = 'BFGS' ignored
Warning: card          PRESS = 0.0D0 ignored
Warning: card          PRESS_CONV_THR = 0.01D0 ignored
Warning: card       / ignored

     Current dimensions of program PWSCF are:
     Max number of different atomic species (ntypx) = 10
     Max number of k-points (npk) =  40000
     Max angular momentum in pseudopotentials (lmaxx) =  3

     Subspace diagonalization in iterative solution of the eigenvalue problem:
     a serial algorithm will be used

 
     Parallelization info
     --------------------
     sticks:   dense  smooth     PW     G-vecs:    dense   smooth      PW
     Min         180     180     52                 5150     5150     816
     Max         182     182     53                 5151     5151     819
     Sum        1449    1449    421                41203    41203    6535
 


     bravais-lattice index     =            0
     lattice parameter (alat)  =       8.0448  a.u.
     unit-cell volume          =     520.6402 (a.u.)^3
     number of atoms/cell      =            8
     number of atomic types    =            2
     number of electrons       =        64.00
     number of Kohn-Sham states=           32
     kinetic-energy cutoff     =      70.0000  Ry
     charge density cutoff     =     280.0000  Ry
     convergence threshold     =      1.0E-08
     mixing beta               =       0.7000
     number of iterations used =            8  plain     mixing
     Exchange-correlation      = PBE ( 1  4  3  4 0 0)
     nstep                     =           50


     celldm(1)=   8.044750  celldm(2)=   0.000000  celldm(3)=   0.000000
     celldm(4)=   0.000000  celldm(5)=   0.000000  celldm(6)=   0.000000

     crystal axes: (cart. coord. in units of alat)
               a(1) = (   1.000000   0.003928   0.000000 )  
               a(2) = (   0.003928   1.000000   0.000000 )  
               a(3) = (   0.000000   0.000000   1.000015 )  

     reciprocal axes: (cart. coord. in units 2 pi/alat)
               b(1) = (  1.000015 -0.003929  0.000000 )  
               b(2) = ( -0.003929  1.000015  0.000000 )  
               b(3) = (  0.000000  0.000000  0.999985 )  


     PseudoPot. # 1 for Mg read from file:
     ../pseudo/Mg.pbe.UPF
     MD5 check sum: 4c04d8c6e0476e83eaecaf72fa8acc4d
     Pseudo is Norm-conserving, Zval = 10.0
     Generated using ONCVPSP code by D. R. Hamann
     Using radial grid of 1510 points,  4 beta functions with: 
                l(1) =   0
                l(2) =   0
                l(3) =   1
                l(4) =   1

     PseudoPot. # 2 for O  read from file:
     ../pseudo/O.pbe.UPF
     MD5 check sum: 3e3f909f7470e8921608ab6b1f57bbae
     Pseudo is Norm-conserving + core correction, Zval =  6.0
     Generated using ONCVPSP code by D. R. Hamann
     Using radial grid of  936 points,  5 beta functions with: 
                l(1) =   0
                l(2) =   0
                l(3) =   1
                l(4) =   1
                l(5) =   2

     atomic species   valence    mass     pseudopotential
        Mg            10.00    24.30500     Mg( 1.00)
        O              6.00    15.99940     O ( 1.00)

      2 Sym. Ops. (no inversion) found



   Cartesian axes

     site n.     atom                  positions (alat units)
         1           Mg  tau(   1) = (   0.0000000   0.0000000   0.0000000  )
         2           Mg  tau(   2) = (   0.0000000   0.5000000   0.5000000  )
         3           Mg  tau(   3) = (   0.5000000   0.0000000   0.5000000  )
         4           Mg  tau(   4) = (   0.5000000   0.5000000   0.0000000  )
         5           O   tau(   5) = (   0.5000000   0.0000000   0.0000000  )
         6           O   tau(   6) = (   0.0000000   0.5000000   0.0000000  )
         7           O   tau(   7) = (   0.0000000   0.0000000   0.5000000  )
         8           O   tau(   8) = (   0.5000000   0.5000000   0.5000000  )

     number of k points=    24
                       cart. coord. in units 2pi/alat
        k(    1) = (   0.0000000   0.0000000   0.0000000), wk =   0.0312500
        k(    2) = (   0.0000000   0.0000000   0.2499961), wk =   0.0625000
        k(    3) = (   0.0000000   0.0000000  -0.4999923), wk =   0.0312500
        k(    4) = (  -0.0009821   0.2500039   0.0000000), wk =   0.1250000
        k(    5) = (  -0.0009821   0.2500039   0.2499961), wk =   0.1250000
        k(    6) = (  -0.0009821   0.2500039  -0.4999923), wk =   0.1250000
        k(    7) = (   0.0019643  -0.5000077   0.0000000), wk =   0.0625000
        k(    8) = (   0.0019643  -0.5000077   0.2499961), wk =   0.1250000
        k(    9) = (   0.0019643  -0.5000077  -0.4999923), wk =   0.0625000
        k(   10) = (   0.2490217   0.2490217   0.0000000), wk =   0.0625000
        k(   11) = (   0.2490217   0.2490217   0.2499961), wk =   0.0625000
        k(   12) = (   0.2490217   0.2490217  -0.4999923), wk =   0.0625000
        k(   13) = (   0.2519681  -0.5009899   0.0000000), wk =   0.1250000
        k(   14) = (   0.2519681  -0.5009899   0.2499961), wk =   0.1250000
        k(   15) = (   0.2519681  -0.5009899  -0.4999923), wk =   0.1250000
        k(   16) = (   0.2509860  -0.2509860   0.0000000), wk =   0.0625000
        k(   17) = (   0.2509860  -0.2509860   0.2499961), wk =   0.1250000
        k(   18) = (   0.2509860  -0.2509860  -0.4999923), wk =   0.0625000
        k(   19) = (  -0.4980434  -0.4980434   0.0000000), wk =   0.0312500
        k(   20) = (  -0.4980434  -0.4980434   0.2499961), wk =   0.0625000
        k(   21) = (  -0.4980434  -0.4980434  -0.4999923), wk =   0.0312500
        k(   22) = (   0.2500039  -0.0009821  -0.2499961), wk =   0.1250000
        k(   23) = (   0.2490217   0.2490217  -0.2499961), wk =   0.0625000
        k(   24) = (  -0.5009899   0.2519681  -0.2499961), wk =   0.1250000

     Dense  grid:    41203 G-vectors     FFT dimensions: (  45,  45,  45)

     Estimated max dynamical RAM per process >      13.45MB

     Estimated total allocated dynamical RAM >     107.57MB

     Check: negative/imaginary core charge=   -0.000007    0.000000

     Initial potential from superposition of free atoms

     starting charge   63.99678, renormalised to   64.00000
     Starting wfc are   36 randomized atomic wfcs

     total cpu time spent up to now is        0.6 secs

     per-process dynamical memory:    49.2 Mb

     Self-consistent Calculation

     iteration #  1     ecut=    70.00 Ry     beta=0.70
     Davidson diagonalization with overlap
     ethr =  1.00E-02,  avg # of iterations =  2.0

     total cpu time spent up to now is        1.6 secs

     total energy              =    -607.71987774 Ry
     Harris-Foulkes estimate   =    -608.84365801 Ry
     estimated scf accuracy    <       1.56156109 Ry

     iteration #  2     ecut=    70.00 Ry     beta=0.70
     Davidson diagonalization with overlap
     ethr =  2.44E-03,  avg # of iterations =  2.9

     total cpu time spent up to now is        2.7 secs

     total energy              =    -608.10564179 Ry
     Harris-Foulkes estimate   =    -608.80336209 Ry
     estimated scf accuracy    <       1.44852462 Ry

     iteration #  3     ecut=    70.00 Ry     beta=0.70
     Davidson diagonalization with overlap
     ethr =  2.26E-03,  avg # of iterations =  2.0

     total cpu time spent up to now is        3.7 secs

     total energy              =    -608.39114084 Ry
     Harris-Foulkes estimate   =    -608.39180067 Ry
     estimated scf accuracy    <       0.00675255 Ry

     iteration #  4     ecut=    70.00 Ry     beta=0.70
     Davidson diagonalization with overlap
     ethr =  1.06E-05,  avg # of iterations =  2.0

     total cpu time spent up to now is        4.7 secs

     total energy              =    -608.39261676 Ry
     Harris-Foulkes estimate   =    -608.39266104 Ry
     estimated scf accuracy    <       0.00011048 Ry

     iteration #  5     ecut=    70.00 Ry     beta=0.70
     Davidson diagonalization with overlap
     ethr =  1.73E-07,  avg # of iterations =  1.5

     total cpu time spent up to now is        5.5 secs

     total energy              =    -608.39262408 Ry
     Harris-Foulkes estimate   =    -608.39262262 Ry
     estimated scf accuracy    <       0.00001029 Ry

     iteration #  6     ecut=    70.00 Ry     beta=0.70
     Davidson diagonalization with overlap
     ethr =  1.61E-08,  avg # of iterations =  2.0

     total cpu time spent up to now is        6.7 secs

     total energy              =    -608.39262568 Ry
     Harris-Foulkes estimate   =    -608.39262607 Ry
     estimated scf accuracy    <       0.00000099 Ry

     iteration #  7     ecut=    70.00 Ry     beta=0.70
     Davidson diagonalization with overlap
     ethr =  1.55E-09,  avg # of iterations =  2.0

     total cpu time spent up to now is        7.6 secs

     total energy              =    -608.39262567 Ry
     Harris-Foulkes estimate   =    -608.39262576 Ry
     estimated scf accuracy    <       0.00000024 Ry

     iteration #  8     ecut=    70.00 Ry     beta=0.70
     Davidson diagonalization with overlap
     ethr =  3.68E-10,  avg # of iterations =  2.0

     total cpu time spent up to now is        8.6 secs

     total energy              =    -608.39262567 Ry
     Harris-Foulkes estimate   =    -608.39262569 Ry
     estimated scf accuracy    <       0.00000004 Ry

     iteration #  9     ecut=    70.00 Ry     beta=0.70
     Davidson diagonalization with overlap
     ethr =  6.34E-11,  avg # of iterations =  2.0

     total cpu time spent up to now is        9.7 secs

     End of self-consistent calculation

          k = 0.0000 0.0000 0.0000 (  5141 PWs)   bands (ev):

   -64.8347 -64.8252 -64.8252 -64.8244 -31.6310 -31.6310 -31.6309 -31.5946
   -31.5936 -31.5935 -31.5929 -31.5929 -31.5917 -31.5664 -31.5640 -31.5637
    -9.3645  -7.9137  -7.9133  -7.9132   3.7583   3.7588   3.7589   6.3347
     6.3801   6.3803   6.3803   6.3806   6.4263   7.6441   7.6723   7.7012

          k = 0.0000 0.0000 0.2500 (  5153 PWs)   bands (ev):

   -64.8332 -64.8264 -64.8252 -64.8246 -31.6251 -31.6250 -31.6205 -31.5979
   -31.5979 -31.5942 -31.5941 -31.5905 -31.5870 -31.5782 -31.5730 -31.5694
    -9.1561  -8.1285  -7.8848  -7.8848   4.0478   4.0490   4.0965   5.8580
     5.8583   6.1708   6.1711   6.4996   6.5875   6.6589   7.4189   7.4831

          k = 0.0000 0.0000-0.5000 (  5122 PWs)   bands (ev):

   -64.8300 -64.8296 -64.8252 -64.8246 -31.6136 -31.6133 -31.6072 -31.6069
   -31.6019 -31.6019 -31.5912 -31.5911 -31.5825 -31.5822 -31.5787 -31.5784
    -8.6458  -8.6457  -7.8560  -7.8560   4.8421   4.8427   4.8527   4.8533
     5.1230   5.1233   5.9737   5.9740   6.9302   6.9304   7.0074   7.0077

          k =-0.0010 0.2500 0.0000 (  5164 PWs)   bands (ev):

   -64.8332 -64.8264 -64.8252 -64.8246 -31.6250 -31.6245 -31.6214 -31.5994
   -31.5984 -31.5935 -31.5932 -31.5892 -31.5889 -31.5794 -31.5716 -31.5710
    -9.1560  -8.1282  -7.8851  -7.8848   4.0485   4.0487   4.0955   5.8532
     5.8584   6.1707   6.1760   6.5430   6.5432   6.6585   7.4502   7.4512

          k =-0.0010 0.2500 0.2500 (  5156 PWs)   bands (ev):

   -64.8320 -64.8264 -64.8260 -64.8249 -31.6212 -31.6210 -31.6200 -31.6072
   -31.5946 -31.5939 -31.5932 -31.5876 -31.5866 -31.5862 -31.5757 -31.5687
    -8.9659  -8.0667  -8.0605  -7.8899   4.1563   4.1670   4.3289   5.0714
     5.8470   6.0469   6.0624   6.4827   6.4902   6.5839   7.1732   7.5062

          k =-0.0010 0.2500-0.5000 (  5148 PWs)   bands (ev):

   -64.8293 -64.8289 -64.8259 -64.8253 -31.6179 -31.6178 -31.6102 -31.6102
   -31.6065 -31.6063 -31.5853 -31.5851 -31.5838 -31.5837 -31.5753 -31.5751
    -8.5095  -8.5094  -7.9465  -7.9465   4.4185   4.4186   4.7512   4.7514
     5.0964   5.0966   6.5480   6.5482   6.5754   6.5755   7.0956   7.0956

          k = 0.0020-0.5000 0.0000 (  5124 PWs)   bands (ev):

   -64.8300 -64.8296 -64.8252 -64.8246 -31.6109 -31.6105 -31.6100 -31.6097
   -31.6021 -31.6019 -31.5917 -31.5916 -31.5806 -31.5803 -31.5801 -31.5799
    -8.6457  -8.6455  -7.8563  -7.8561   4.8469   4.8479   4.8479   4.8481
     5.1230   5.1234   5.9733   5.9746   6.9685   6.9688   6.9688   6.9689

          k = 0.0020-0.5000 0.2500 (  5156 PWs)   bands (ev):

   -64.8293 -64.8289 -64.8259 -64.8253 -31.6177 -31.6175 -31.6105 -31.6103
   -31.6071 -31.6069 -31.5852 -31.5850 -31.5841 -31.5840 -31.5754 -31.5752
    -8.5094  -8.5092  -7.9468  -7.9465   4.4181   4.4183   4.7514   4.7517
     5.0966   5.0968   6.5478   6.5485   6.5762   6.5763   7.0942   7.0945

          k = 0.0020-0.5000-0.5000 (  5184 PWs)   bands (ev):

   -64.8277 -64.8276 -64.8275 -64.8266 -31.6194 -31.6193 -31.6191 -31.6190
   -31.5973 -31.5971 -31.5966 -31.5963 -31.5761 -31.5760 -31.5757 -31.5756
    -8.2093  -8.2092  -8.2010  -8.2007   4.2857   4.2857   4.3010   4.3013
     5.7580   5.7580   5.7781   5.7782   7.0592   7.0598   7.0680   7.0682

          k = 0.2490 0.2490 0.0000 (  5155 PWs)   bands (ev):

   -64.8321 -64.8263 -64.8260 -64.8250 -31.6234 -31.6231 -31.6198 -31.6053
   -31.5943 -31.5942 -31.5903 -31.5884 -31.5852 -31.5850 -31.5757 -31.5710
    -8.9698  -8.0587  -8.0585  -7.8948   4.1596   4.1597   4.3246   5.0470
     5.8337   6.0621   6.0625   6.4766   6.4767   6.6256   7.1656   7.5339

          k = 0.2490 0.2490 0.2500 (  5146 PWs)   bands (ev):

   -64.8311 -64.8264 -64.8263 -64.8255 -31.6274 -31.6272 -31.6243 -31.6047
   -31.5922 -31.5919 -31.5915 -31.5858 -31.5840 -31.5839 -31.5734 -31.5706
    -8.8000  -8.0360  -8.0254  -8.0246   3.9844   4.0045   4.0056   5.0724
     5.8263   5.8414   5.8488   6.7016   6.7018   6.7455   7.3516   7.3861

          k = 0.2490 0.2490-0.5000 (  5124 PWs)   bands (ev):

   -64.8289 -64.8284 -64.8263 -64.8257 -31.6301 -31.6299 -31.6201 -31.6200
   -31.5902 -31.5900 -31.5816 -31.5815 -31.5796 -31.5793 -31.5764 -31.5763
    -8.4031  -8.4031  -7.9920  -7.9919   3.8293   3.8298   4.1798   4.1800
     5.8199   5.8202   6.7365   6.7368   6.8643   6.8648   7.0517   7.0519

          k = 0.2520-0.5010 0.0000 (  5153 PWs)   bands (ev):

   -64.8293 -64.8289 -64.8259 -64.8253 -31.6203 -31.6150 -31.6130 -31.6076
   -31.6071 -31.6068 -31.5858 -31.5852 -31.5849 -31.5819 -31.5771 -31.5737
    -8.5156  -8.5030  -7.9536  -7.9397   4.4097   4.4271   4.7478   4.7550
     5.0894   5.1035   6.5210   6.5661   6.5760   6.5859   7.0740   7.1153

          k = 0.2520-0.5010 0.2500 (  5138 PWs)   bands (ev):

   -64.8288 -64.8284 -64.8264 -64.8257 -31.6301 -31.6267 -31.6233 -31.6189
   -31.5934 -31.5929 -31.5819 -31.5798 -31.5796 -31.5784 -31.5771 -31.5756
    -8.4051  -8.3926  -8.0036  -7.9902   3.8078   3.8353   4.1879   4.2085
     5.8240   5.8366   6.7209   6.7607   6.8547   6.8820   7.0112   7.0235

          k = 0.2520-0.5010-0.5000 (  5144 PWs)   bands (ev):

   -64.8277 -64.8276 -64.8275 -64.8265 -31.6338 -31.6336 -31.6301 -31.6300
   -31.5844 -31.5841 -31.5824 -31.5822 -31.5755 -31.5754 -31.5749 -31.5748
    -8.1746  -8.1746  -8.1606  -8.1604   3.6248   3.6249   3.6560   3.6562
     6.5024   6.5025   6.5467   6.5469   7.0577   7.0581   7.0717   7.0718

          k = 0.2510-0.2510 0.0000 (  5159 PWs)   bands (ev):

   -64.8320 -64.8265 -64.8260 -64.8249 -31.6197 -31.6191 -31.6190 -31.6102
   -31.5947 -31.5945 -31.5944 -31.5881 -31.5879 -31.5861 -31.5760 -31.5673
    -8.9618  -8.0685  -8.0684  -7.8853   4.1636   4.1637   4.3330   5.0957
     5.8611   6.0492   6.0495   6.4935   6.4937   6.5432   7.1807   7.4776

          k = 0.2510-0.2510 0.2500 (  5154 PWs)   bands (ev):

   -64.8310 -64.8265 -64.8263 -64.8256 -31.6261 -31.6233 -31.6231 -31.6072
   -31.5961 -31.5957 -31.5952 -31.5836 -31.5836 -31.5823 -31.5721 -31.5699
    -8.7920  -8.0362  -8.0352  -8.0250   3.9955   3.9969   4.0167   5.1065
     5.8431   5.8510   5.8658   6.6665   6.7097   6.7099   7.3254   7.3593

          k = 0.2510-0.2510-0.5000 (  5148 PWs)   bands (ev):

   -64.8288 -64.8283 -64.8264 -64.8258 -31.6265 -31.6263 -31.6226 -31.6224
   -31.5962 -31.5959 -31.5800 -31.5800 -31.5789 -31.5789 -31.5762 -31.5759
    -8.3948  -8.3947  -8.0016  -8.0016   3.8134   3.8136   4.2163   4.2168
     5.8410   5.8413   6.7442   6.7444   6.8735   6.8737   6.9811   6.9813

          k =-0.4980-0.4980 0.0000 (  5188 PWs)   bands (ev):

   -64.8277 -64.8276 -64.8275 -64.8265 -31.6223 -31.6220 -31.6166 -31.6164
   -31.5971 -31.5970 -31.5970 -31.5967 -31.5773 -31.5770 -31.5747 -31.5744
    -8.2145  -8.2144  -8.1958  -8.1956   4.2878   4.2879   4.2987   4.2988
     5.7560   5.7563   5.7790   5.7795   7.0323   7.0324   7.0960   7.0961

          k =-0.4980-0.4980 0.2500 (  5140 PWs)   bands (ev):

   -64.8277 -64.8276 -64.8275 -64.8265 -31.6338 -31.6336 -31.6301 -31.6299
   -31.5838 -31.5838 -31.5822 -31.5822 -31.5774 -31.5771 -31.5734 -31.5731
    -8.1768  -8.1768  -8.1584  -8.1582   3.6286   3.6286   3.6522   3.6524
     6.5211   6.5213   6.5277   6.5281   7.0335   7.0336   7.0966   7.0968

          k =-0.4980-0.4980-0.5000 (  5136 PWs)   bands (ev):

   -64.8277 -64.8276 -64.8275 -64.8265 -31.6403 -31.6401 -31.6393 -31.6392
   -31.5766 -31.5764 -31.5756 -31.5756 -31.5746 -31.5746 -31.5739 -31.5736
    -8.1387  -8.1386  -8.1203  -8.1201   3.2030   3.2030   3.2323   3.2325
     7.0342   7.0343   7.0642   7.0646   7.0663   7.0664   7.0976   7.0977

          k = 0.2500-0.0010-0.2500 (  5156 PWs)   bands (ev):

   -64.8320 -64.8264 -64.8260 -64.8249 -31.6212 -31.6210 -31.6200 -31.6072
   -31.5946 -31.5939 -31.5932 -31.5876 -31.5866 -31.5862 -31.5757 -31.5687
    -8.9659  -8.0667  -8.0605  -7.8899   4.1563   4.1670   4.3289   5.0714
     5.8470   6.0469   6.0624   6.4827   6.4902   6.5839   7.1732   7.5062

          k = 0.2490 0.2490-0.2500 (  5146 PWs)   bands (ev):

   -64.8311 -64.8264 -64.8263 -64.8255 -31.6274 -31.6272 -31.6243 -31.6047
   -31.5922 -31.5919 -31.5915 -31.5858 -31.5840 -31.5839 -31.5734 -31.5706
    -8.8000  -8.0360  -8.0254  -8.0246   3.9844   4.0045   4.0056   5.0724
     5.8263   5.8414   5.8488   6.7016   6.7018   6.7455   7.3516   7.3861

          k =-0.5010 0.2520-0.2500 (  5138 PWs)   bands (ev):

   -64.8288 -64.8284 -64.8264 -64.8257 -31.6301 -31.6267 -31.6233 -31.6189
   -31.5934 -31.5929 -31.5819 -31.5798 -31.5796 -31.5784 -31.5771 -31.5756
    -8.4051  -8.3926  -8.0036  -7.9902   3.8078   3.8353   4.1879   4.2085
     5.8240   5.8366   6.7209   6.7607   6.8547   6.8820   7.0112   7.0235

     highest occupied level (ev):     7.7012

!    total energy              =    -608.39262568 Ry
     Harris-Foulkes estimate   =    -608.39262568 Ry
     estimated scf accuracy    <          1.2E-09 Ry

     The total energy is the sum of the following terms:

     one-electron contribution =    -303.55468208 Ry
     hartree contribution      =     168.06643698 Ry
     xc contribution           =     -97.84630005 Ry
     ewald contribution        =    -375.05808053 Ry

     convergence has been achieved in   9 iterations

     Forces acting on atoms (cartesian axes, Ry/au):

     atom    1 type  1   force =    -0.00089049   -0.00089049   -0.00000900
     atom    2 type  1   force =     0.00104004   -0.00096077    0.00000870
     atom    3 type  1   force =    -0.00096077    0.00104004    0.00000870
     atom    4 type  1   force =     0.00077027    0.00077027   -0.00000899
     atom    5 type  2   force =    -0.00116864    0.00124005   -0.00001050
     atom    6 type  2   force =     0.00124005   -0.00116864   -0.00001050
     atom    7 type  2   force =    -0.00113874   -0.00113874    0.00001079
     atom    8 type  2   force =     0.00110828    0.00110828    0.00001080

     Total force =     0.004200     Total SCF correction =     0.000011


     Computing stress (Cartesian axis) and pressure

          total   stress  (Ry/bohr**3)                   (kbar)     P=  -68.15
  -0.00046339  -0.00007552   0.00000000        -68.17    -11.11      0.00
  -0.00007552  -0.00046339   0.00000000        -11.11    -68.17      0.00
   0.00000000   0.00000000  -0.00046307          0.00      0.00    -68.12


     BFGS Geometry Optimization

     number of scf cycles    =   1
     number of bfgs steps    =   0

     energy   new            =    -608.3926256793 Ry

     new trust radius        =       0.0017039783 bohr
     new conv_thr            =       0.0000000100 Ry


ATOMIC_POSITIONS (alat)
Mg      -0.000110692  -0.000110692  -0.000001118
Mg       0.000129282   0.499880572   0.500001082
Mg       0.499880572   0.000129282   0.500001082
Mg       0.500095748   0.500095748  -0.000001118
O        0.499854733   0.000154144  -0.000001306
O        0.000154144   0.499854733  -0.000001306
O       -0.000141551  -0.000141551   0.500001342
O        0.500137764   0.500137764   0.500001343



     Writing output data file MgO.0.007857.70.4.save
     NEW-OLD atomic charge density approx. for the potential

     Check: negative/imaginary core charge=   -0.000007    0.000000

     total cpu time spent up to now is       10.4 secs

     per-process dynamical memory:    53.8 Mb

     Self-consistent Calculation

     iteration #  1     ecut=    70.00 Ry     beta=0.70
     Davidson diagonalization with overlap
     ethr =  1.00E-06,  avg # of iterations =  3.0

     Threshold (ethr) on eigenvalues was too large:
     Diagonalizing with lowered threshold

     Davidson diagonalization with overlap
     ethr =  1.75E-09,  avg # of iterations =  2.6

     total cpu time spent up to now is       12.8 secs

     total energy              =    -608.39264188 Ry
     Harris-Foulkes estimate   =    -608.39264254 Ry
     estimated scf accuracy    <       0.00000116 Ry

     iteration #  2     ecut=    70.00 Ry     beta=0.70
     Davidson diagonalization with overlap
     ethr =  1.81E-09,  avg # of iterations =  2.0

     total cpu time spent up to now is       13.7 secs

     total energy              =    -608.39264208 Ry
     Harris-Foulkes estimate   =    -608.39264209 Ry
     estimated scf accuracy    <       0.00000003 Ry

     iteration #  3     ecut=    70.00 Ry     beta=0.70
     Davidson diagonalization with overlap
     ethr =  4.52E-11,  avg # of iterations =  2.0

     total cpu time spent up to now is       14.7 secs

     End of self-consistent calculation

          k = 0.0000 0.0000 0.0000 (  5141 PWs)   bands (ev):

   -64.8349 -64.8254 -64.8254 -64.8246 -31.6311 -31.6311 -31.6310 -31.5947
   -31.5937 -31.5937 -31.5931 -31.5931 -31.5919 -31.5665 -31.5642 -31.5638
    -9.3644  -7.9136  -7.9132  -7.9132   3.7583   3.7588   3.7589   6.3348
     6.3801   6.3803   6.3803   6.3807   6.4263   7.6442   7.6724   7.7013

          k = 0.0000 0.0000 0.2500 (  5153 PWs)   bands (ev):

   -64.8334 -64.8266 -64.8254 -64.8247 -31.6253 -31.6252 -31.6207 -31.5981
   -31.5981 -31.5944 -31.5943 -31.5907 -31.5872 -31.5784 -31.5732 -31.5695
    -9.1560  -8.1284  -7.8848  -7.8847   4.0481   4.0490   4.0963   5.8581
     5.8584   6.1708   6.1712   6.4996   6.5875   6.6590   7.4189   7.4831

          k = 0.0000 0.0000-0.5000 (  5122 PWs)   bands (ev):

   -64.8302 -64.8298 -64.8254 -64.8248 -31.6137 -31.6134 -31.6073 -31.6071
   -31.6021 -31.6020 -31.5913 -31.5912 -31.5827 -31.5824 -31.5788 -31.5786
    -8.6458  -8.6457  -7.8560  -7.8559   4.8423   4.8427   4.8528   4.8533
     5.1230   5.1233   5.9737   5.9741   6.9302   6.9304   7.0075   7.0077

          k =-0.0010 0.2500 0.0000 (  5164 PWs)   bands (ev):

   -64.8334 -64.8266 -64.8254 -64.8248 -31.6252 -31.6247 -31.6215 -31.5995
   -31.5986 -31.5936 -31.5933 -31.5894 -31.5891 -31.5795 -31.5718 -31.5711
    -9.1560  -8.1282  -7.8851  -7.8848   4.0486   4.0488   4.0955   5.8534
     5.8584   6.1708   6.1759   6.5431   6.5433   6.6586   7.4503   7.4513

          k =-0.0010 0.2500 0.2500 (  5156 PWs)   bands (ev):

   -64.8322 -64.8266 -64.8262 -64.8251 -31.6214 -31.6212 -31.6202 -31.6074
   -31.5948 -31.5941 -31.5934 -31.5877 -31.5867 -31.5864 -31.5758 -31.5689
    -8.9658  -8.0662  -8.0609  -7.8898   4.1572   4.1662   4.3290   5.0715
     5.8470   6.0481   6.0613   6.4832   6.4898   6.5839   7.1732   7.5063

          k =-0.0010 0.2500-0.5000 (  5148 PWs)   bands (ev):

   -64.8295 -64.8291 -64.8261 -64.8255 -31.6181 -31.6179 -31.6104 -31.6104
   -31.6067 -31.6064 -31.5855 -31.5852 -31.5839 -31.5839 -31.5754 -31.5753
    -8.5094  -8.5093  -7.9465  -7.9464   4.4186   4.4187   4.7512   4.7514
     5.0965   5.0966   6.5481   6.5483   6.5755   6.5755   7.0956   7.0957

          k = 0.0020-0.5000 0.0000 (  5124 PWs)   bands (ev):

   -64.8302 -64.8298 -64.8254 -64.8248 -31.6110 -31.6107 -31.6101 -31.6099
   -31.6023 -31.6021 -31.5919 -31.5917 -31.5807 -31.5805 -31.5803 -31.5800
    -8.6456  -8.6455  -7.8563  -7.8560   4.8469   4.8480   4.8481   4.8481
     5.1231   5.1234   5.9734   5.9746   6.9685   6.9689   6.9689   6.9689

          k = 0.0020-0.5000 0.2500 (  5156 PWs)   bands (ev):

   -64.8295 -64.8291 -64.8261 -64.8255 -31.6179 -31.6177 -31.6106 -31.6105
   -31.6072 -31.6070 -31.5854 -31.5852 -31.5843 -31.5842 -31.5755 -31.5754
    -8.5093  -8.5092  -7.9467  -7.9465   4.4182   4.4184   4.7514   4.7517
     5.0966   5.0970   6.5479   6.5485   6.5762   6.5763   7.0942   7.0945

          k = 0.0020-0.5000-0.5000 (  5184 PWs)   bands (ev):

   -64.8279 -64.8278 -64.8277 -64.8267 -31.6196 -31.6195 -31.6193 -31.6192
   -31.5975 -31.5972 -31.5968 -31.5965 -31.5763 -31.5762 -31.5759 -31.5757
    -8.2086  -8.2086  -8.2015  -8.2013   4.2869   4.2869   4.2999   4.3001
     5.7594   5.7597   5.7765   5.7768   7.0600   7.0604   7.0674   7.0676

          k = 0.2490 0.2490 0.0000 (  5155 PWs)   bands (ev):

   -64.8323 -64.8265 -64.8261 -64.8252 -31.6235 -31.6233 -31.6200 -31.6055
   -31.5944 -31.5944 -31.5905 -31.5886 -31.5853 -31.5851 -31.5758 -31.5711
    -8.9698  -8.0586  -8.0584  -7.8948   4.1597   4.1598   4.3246   5.0471
     5.8338   6.0621   6.0625   6.4767   6.4767   6.6256   7.1657   7.5340

          k = 0.2490 0.2490 0.2500 (  5146 PWs)   bands (ev):

   -64.8313 -64.8266 -64.8265 -64.8257 -31.6276 -31.6273 -31.6245 -31.6049
   -31.5923 -31.5920 -31.5916 -31.5860 -31.5841 -31.5840 -31.5736 -31.5707
    -8.8000  -8.0357  -8.0254  -8.0248   3.9848   4.0045   4.0053   5.0724
     5.8279   5.8414   5.8474   6.7017   6.7019   6.7455   7.3517   7.3861

          k = 0.2490 0.2490-0.5000 (  5124 PWs)   bands (ev):

   -64.8291 -64.8286 -64.8265 -64.8259 -31.6303 -31.6301 -31.6203 -31.6202
   -31.5904 -31.5901 -31.5817 -31.5817 -31.5797 -31.5795 -31.5766 -31.5765
    -8.4031  -8.4030  -7.9920  -7.9919   3.8294   3.8298   4.1799   4.1800
     5.8200   5.8202   6.7365   6.7369   6.8644   6.8648   7.0518   7.0519

          k = 0.2520-0.5010 0.0000 (  5153 PWs)   bands (ev):

   -64.8295 -64.8291 -64.8261 -64.8255 -31.6205 -31.6151 -31.6131 -31.6078
   -31.6073 -31.6069 -31.5859 -31.5853 -31.5851 -31.5820 -31.5773 -31.5738
    -8.5155  -8.5029  -7.9535  -7.9397   4.4098   4.4271   4.7478   4.7551
     5.0894   5.1036   6.5211   6.5662   6.5760   6.5860   7.0740   7.1154

          k = 0.2520-0.5010 0.2500 (  5138 PWs)   bands (ev):

   -64.8290 -64.8286 -64.8266 -64.8259 -31.6302 -31.6268 -31.6235 -31.6191
   -31.5936 -31.5931 -31.5821 -31.5799 -31.5798 -31.5786 -31.5773 -31.5757
    -8.4050  -8.3925  -8.0035  -7.9901   3.8079   3.8353   4.1879   4.2085
     5.8240   5.8367   6.7210   6.7607   6.8547   6.8820   7.0112   7.0235

          k = 0.2520-0.5010-0.5000 (  5144 PWs)   bands (ev):

   -64.8279 -64.8278 -64.8277 -64.8267 -31.6339 -31.6338 -31.6302 -31.6301
   -31.5846 -31.5843 -31.5825 -31.5824 -31.5756 -31.5755 -31.5751 -31.5750
    -8.1744  -8.1744  -8.1607  -8.1605   3.6252   3.6252   3.6558   3.6560
     6.5028   6.5029   6.5464   6.5466   7.0580   7.0583   7.0716   7.0716

          k = 0.2510-0.2510 0.0000 (  5159 PWs)   bands (ev):

   -64.8322 -64.8267 -64.8262 -64.8251 -31.6198 -31.6193 -31.6192 -31.6103
   -31.5949 -31.5946 -31.5945 -31.5882 -31.5881 -31.5862 -31.5761 -31.5674
    -8.9618  -8.0684  -8.0684  -7.8852   4.1636   4.1638   4.3331   5.0958
     5.8611   6.0492   6.0496   6.4935   6.4937   6.5432   7.1807   7.4777

          k = 0.2510-0.2510 0.2500 (  5154 PWs)   bands (ev):

   -64.8311 -64.8267 -64.8265 -64.8258 -31.6262 -31.6234 -31.6233 -31.6073
   -31.5962 -31.5958 -31.5954 -31.5838 -31.5838 -31.5825 -31.5723 -31.5700
    -8.7919  -8.0359  -8.0352  -8.0252   3.9959   3.9970   4.0164   5.1066
     5.8447   5.8510   5.8643   6.6666   6.7098   6.7099   7.3254   7.3593

          k = 0.2510-0.2510-0.5000 (  5148 PWs)   bands (ev):

   -64.8289 -64.8285 -64.8266 -64.8260 -31.6266 -31.6265 -31.6227 -31.6226
   -31.5963 -31.5960 -31.5802 -31.5801 -31.5791 -31.5790 -31.5764 -31.5761
    -8.3947  -8.3946  -8.0016  -8.0015   3.8135   3.8137   4.2164   4.2168
     5.8411   5.8413   6.7443   6.7445   6.8736   6.8737   6.9812   6.9813

          k =-0.4980-0.4980 0.0000 (  5188 PWs)   bands (ev):

   -64.8279 -64.8278 -64.8277 -64.8267 -31.6225 -31.6222 -31.6168 -31.6165
   -31.5973 -31.5972 -31.5971 -31.5969 -31.5775 -31.5772 -31.5748 -31.5746
    -8.2144  -8.2144  -8.1957  -8.1955   4.2878   4.2880   4.2988   4.2988
     5.7560   5.7564   5.7791   5.7795   7.0323   7.0324   7.0960   7.0961

          k =-0.4980-0.4980 0.2500 (  5140 PWs)   bands (ev):

   -64.8279 -64.8278 -64.8277 -64.8267 -31.6340 -31.6338 -31.6302 -31.6301
   -31.5840 -31.5839 -31.5823 -31.5823 -31.5776 -31.5773 -31.5735 -31.5733
    -8.1768  -8.1767  -8.1583  -8.1581   3.6285   3.6286   3.6523   3.6524
     6.5211   6.5214   6.5278   6.5281   7.0335   7.0336   7.0966   7.0968

          k =-0.4980-0.4980-0.5000 (  5136 PWs)   bands (ev):

   -64.8279 -64.8278 -64.8276 -64.8267 -31.6404 -31.6402 -31.6394 -31.6393
   -31.5768 -31.5765 -31.5758 -31.5757 -31.5747 -31.5747 -31.5740 -31.5737
    -8.1386  -8.1386  -8.1203  -8.1201   3.2030   3.2030   3.2323   3.2325
     7.0342   7.0343   7.0643   7.0646   7.0663   7.0665   7.0976   7.0977

          k = 0.2500-0.0010-0.2500 (  5156 PWs)   bands (ev):

   -64.8322 -64.8266 -64.8262 -64.8251 -31.6214 -31.6212 -31.6202 -31.6074
   -31.5948 -31.5941 -31.5934 -31.5877 -31.5867 -31.5864 -31.5758 -31.5689
    -8.9658  -8.0662  -8.0609  -7.8898   4.1572   4.1662   4.3290   5.0715
     5.8470   6.0481   6.0613   6.4832   6.4898   6.5839   7.1732   7.5063

          k = 0.2490 0.2490-0.2500 (  5146 PWs)   bands (ev):

   -64.8313 -64.8266 -64.8265 -64.8257 -31.6276 -31.6273 -31.6245 -31.6049
   -31.5923 -31.5920 -31.5916 -31.5860 -31.5841 -31.5840 -31.5736 -31.5707
    -8.8000  -8.0357  -8.0254  -8.0248   3.9848   4.0045   4.0053   5.0724
     5.8279   5.8414   5.8474   6.7017   6.7019   6.7455   7.3517   7.3861

          k =-0.5010 0.2520-0.2500 (  5138 PWs)   bands (ev):

   -64.8290 -64.8286 -64.8266 -64.8259 -31.6302 -31.6268 -31.6235 -31.6191
   -31.5936 -31.5931 -31.5821 -31.5799 -31.5798 -31.5786 -31.5773 -31.5757
    -8.4050  -8.3925  -8.0035  -7.9901   3.8079   3.8353   4.1879   4.2085
     5.8240   5.8367   6.7210   6.7607   6.8547   6.8820   7.0112   7.0235

     highest occupied level (ev):     7.7013

!    total energy              =    -608.39264208 Ry
     Harris-Foulkes estimate   =    -608.39264208 Ry
     estimated scf accuracy    <          2.1E-09 Ry

     The total energy is the sum of the following terms:

     one-electron contribution =    -303.55503597 Ry
     hartree contribution      =     168.06663543 Ry
     xc contribution           =     -97.84629428 Ry
     ewald contribution        =    -375.05794727 Ry

     convergence has been achieved in   3 iterations

     Forces acting on atoms (cartesian axes, Ry/au):

     atom    1 type  1   force =    -0.00080962   -0.00080962   -0.00000475
     atom    2 type  1   force =     0.00090783   -0.00086124    0.00000460
     atom    3 type  1   force =    -0.00086124    0.00090783    0.00000460
     atom    4 type  1   force =     0.00073829    0.00073829   -0.00000492
     atom    5 type  2   force =    -0.00099562    0.00103591   -0.00000641
     atom    6 type  2   force =     0.00103591   -0.00099562   -0.00000641
     atom    7 type  2   force =    -0.00096691   -0.00096691    0.00000657
     atom    8 type  2   force =     0.00095135    0.00095135    0.00000671

     Total force =     0.003653     Total SCF correction =     0.000106


     Computing stress (Cartesian axis) and pressure

          total   stress  (Ry/bohr**3)                   (kbar)     P=  -68.12
  -0.00046317  -0.00007551   0.00000000        -68.14    -11.11      0.00
  -0.00007551  -0.00046317   0.00000000        -11.11    -68.14      0.00
   0.00000000   0.00000000  -0.00046279          0.00      0.00    -68.08


     number of scf cycles    =   2
     number of bfgs steps    =   1

     energy   old            =    -608.3926256793 Ry
     energy   new            =    -608.3926420842 Ry

     CASE: energy  _new < energy  _old


     WARNING: bfgs curvature condition failed, Theta= 0.921
     new trust radius        =       0.0018743762 bohr
     new conv_thr            =       0.0000000002 Ry


ATOMIC_POSITIONS (alat)
Mg      -0.000240916  -0.000240916  -0.000001940
Mg       0.000275939   0.499741838   0.500001878
Mg       0.499741838   0.000275939   0.500001878
Mg       0.500213862   0.500213862  -0.000001964
O        0.499693466   0.000322304  -0.000002389
O        0.000322304   0.499693466  -0.000002389
O       -0.000298226  -0.000298226   0.500002452
O        0.500291732   0.500291732   0.500002474



     Writing output data file MgO.0.007857.70.4.save
     NEW-OLD atomic charge density approx. for the potential

     Check: negative/imaginary core charge=   -0.000007    0.000000

     total cpu time spent up to now is       15.4 secs

     per-process dynamical memory:    53.8 Mb

     Self-consistent Calculation

     iteration #  1     ecut=    70.00 Ry     beta=0.70
     Davidson diagonalization with overlap
     ethr =  1.00E-06,  avg # of iterations =  3.0

     Threshold (ethr) on eigenvalues was too large:
     Diagonalizing with lowered threshold

     Davidson diagonalization with overlap
     ethr =  2.11E-09,  avg # of iterations =  2.5

     total cpu time spent up to now is       17.7 secs

     total energy              =    -608.39265745 Ry
     Harris-Foulkes estimate   =    -608.39265823 Ry
     estimated scf accuracy    <       0.00000138 Ry

     iteration #  2     ecut=    70.00 Ry     beta=0.70
     Davidson diagonalization with overlap
     ethr =  2.15E-09,  avg # of iterations =  2.0

     total cpu time spent up to now is       18.7 secs

     total energy              =    -608.39265769 Ry
     Harris-Foulkes estimate   =    -608.39265769 Ry
     estimated scf accuracy    <       0.00000003 Ry

     iteration #  3     ecut=    70.00 Ry     beta=0.70
     Davidson diagonalization with overlap
     ethr =  5.35E-11,  avg # of iterations =  2.0

     total cpu time spent up to now is       19.7 secs

     total energy              =    -608.39265769 Ry
     Harris-Foulkes estimate   =    -608.39265769 Ry
     estimated scf accuracy    <          2.5E-09 Ry

     iteration #  4     ecut=    70.00 Ry     beta=0.70
     Davidson diagonalization with overlap
     ethr =  3.94E-12,  avg # of iterations =  2.6

     total cpu time spent up to now is       20.7 secs

     total energy              =    -608.39265769 Ry
     Harris-Foulkes estimate   =    -608.39265769 Ry
     estimated scf accuracy    <          7.8E-10 Ry

     iteration #  5     ecut=    70.00 Ry     beta=0.70
     Davidson diagonalization with overlap
     ethr =  1.21E-12,  avg # of iterations =  2.5

     total cpu time spent up to now is       21.7 secs

     End of self-consistent calculation

          k = 0.0000 0.0000 0.0000 (  5141 PWs)   bands (ev):

   -64.8348 -64.8253 -64.8253 -64.8245 -31.6311 -31.6311 -31.6310 -31.5947
   -31.5937 -31.5936 -31.5930 -31.5930 -31.5918 -31.5665 -31.5641 -31.5638
    -9.3645  -7.9136  -7.9133  -7.9133   3.7583   3.7588   3.7589   6.3347
     6.3801   6.3802   6.3803   6.3806   6.4263   7.6441   7.6724   7.7012

          k = 0.0000 0.0000 0.2500 (  5153 PWs)   bands (ev):

   -64.8334 -64.8266 -64.8253 -64.8247 -31.6253 -31.6252 -31.6206 -31.5981
   -31.5980 -31.5943 -31.5942 -31.5907 -31.5871 -31.5784 -31.5731 -31.5695
    -9.1560  -8.1285  -7.8849  -7.8848   4.0484   4.0489   4.0960   5.8581
     5.8583   6.1708   6.1711   6.4995   6.5875   6.6589   7.4189   7.4830

          k = 0.0000 0.0000-0.5000 (  5122 PWs)   bands (ev):

   -64.8302 -64.8297 -64.8253 -64.8247 -31.6137 -31.6134 -31.6073 -31.6070
   -31.6021 -31.6020 -31.5913 -31.5912 -31.5826 -31.5824 -31.5788 -31.5785
    -8.6458  -8.6457  -7.8561  -7.8560   4.8423   4.8426   4.8529   4.8532
     5.1228   5.1231   5.9737   5.9740   6.9302   6.9303   7.0075   7.0076

          k =-0.0010 0.2500 0.0000 (  5164 PWs)   bands (ev):

   -64.8334 -64.8266 -64.8253 -64.8247 -31.6251 -31.6246 -31.6215 -31.5995
   -31.5986 -31.5936 -31.5933 -31.5893 -31.5890 -31.5795 -31.5718 -31.5711
    -9.1560  -8.1282  -7.8851  -7.8849   4.0485   4.0487   4.0954   5.8535
     5.8583   6.1708   6.1757   6.5430   6.5432   6.6585   7.4503   7.4512

          k =-0.0010 0.2500 0.2500 (  5156 PWs)   bands (ev):

   -64.8322 -64.8265 -64.8262 -64.8251 -31.6213 -31.6211 -31.6201 -31.6073
   -31.5947 -31.5941 -31.5933 -31.5877 -31.5867 -31.5864 -31.5758 -31.5689
    -8.9659  -8.0657  -8.0615  -7.8899   4.1581   4.1652   4.3289   5.0715
     5.8470   6.0493   6.0600   6.4837   6.4892   6.5838   7.1732   7.5062

          k =-0.0010 0.2500-0.5000 (  5148 PWs)   bands (ev):

   -64.8295 -64.8290 -64.8260 -64.8254 -31.6181 -31.6179 -31.6104 -31.6104
   -31.6066 -31.6064 -31.5854 -31.5852 -31.5839 -31.5839 -31.5754 -31.5752
    -8.5094  -8.5094  -7.9466  -7.9465   4.4186   4.4187   4.7511   4.7513
     5.0965   5.0965   6.5481   6.5483   6.5754   6.5754   7.0955   7.0956

          k = 0.0020-0.5000 0.0000 (  5124 PWs)   bands (ev):

   -64.8302 -64.8297 -64.8253 -64.8248 -31.6110 -31.6106 -31.6101 -31.6099
   -31.6022 -31.6020 -31.5918 -31.5917 -31.5807 -31.5805 -31.5802 -31.5800
    -8.6457  -8.6456  -7.8563  -7.8561   4.8469   4.8478   4.8481   4.8482
     5.1230   5.1234   5.9734   5.9744   6.9684   6.9687   6.9689   6.9689

          k = 0.0020-0.5000 0.2500 (  5156 PWs)   bands (ev):

   -64.8295 -64.8290 -64.8260 -64.8254 -31.6178 -31.6177 -31.6106 -31.6105
   -31.6072 -31.6070 -31.5853 -31.5851 -31.5842 -31.5841 -31.5755 -31.5753
    -8.5094  -8.5092  -7.9467  -7.9466   4.4181   4.4184   4.7513   4.7516
     5.0965   5.0970   6.5479   6.5483   6.5761   6.5763   7.0942   7.0945

          k = 0.0020-0.5000-0.5000 (  5184 PWs)   bands (ev):

   -64.8278 -64.8277 -64.8277 -64.8267 -31.6196 -31.6194 -31.6192 -31.6192
   -31.5974 -31.5972 -31.5968 -31.5965 -31.5762 -31.5761 -31.5758 -31.5757
    -8.2080  -8.2079  -8.2022  -8.2022   4.2881   4.2882   4.2985   4.2988
     5.7610   5.7614   5.7747   5.7751   7.0607   7.0610   7.0667   7.0667

          k = 0.2490 0.2490 0.0000 (  5155 PWs)   bands (ev):

   -64.8322 -64.8265 -64.8261 -64.8252 -31.6235 -31.6233 -31.6199 -31.6055
   -31.5944 -31.5943 -31.5905 -31.5886 -31.5853 -31.5851 -31.5758 -31.5711
    -8.9698  -8.0586  -8.0585  -7.8948   4.1597   4.1597   4.3246   5.0471
     5.8337   6.0621   6.0624   6.4766   6.4767   6.6255   7.1656   7.5339

          k = 0.2490 0.2490 0.2500 (  5146 PWs)   bands (ev):

   -64.8312 -64.8266 -64.8265 -64.8257 -31.6275 -31.6273 -31.6245 -31.6048
   -31.5922 -31.5920 -31.5916 -31.5860 -31.5841 -31.5840 -31.5736 -31.5707
    -8.8000  -8.0355  -8.0255  -8.0251   3.9851   4.0044   4.0049   5.0723
     5.8294   5.8413   5.8457   6.7016   6.7018   6.7454   7.3516   7.3860

          k = 0.2490 0.2490-0.5000 (  5124 PWs)   bands (ev):

   -64.8290 -64.8286 -64.8265 -64.8258 -31.6302 -31.6300 -31.6202 -31.6201
   -31.5903 -31.5901 -31.5817 -31.5817 -31.5797 -31.5794 -31.5765 -31.5764
    -8.4031  -8.4031  -7.9920  -7.9920   3.8295   3.8297   4.1798   4.1799
     5.8200   5.8202   6.7365   6.7368   6.8644   6.8647   7.0517   7.0518

          k = 0.2520-0.5010 0.0000 (  5153 PWs)   bands (ev):

   -64.8295 -64.8290 -64.8260 -64.8254 -31.6204 -31.6151 -31.6131 -31.6077
   -31.6072 -31.6069 -31.5859 -31.5853 -31.5851 -31.5820 -31.5772 -31.5738
    -8.5156  -8.5030  -7.9536  -7.9397   4.4098   4.4271   4.7477   4.7550
     5.0894   5.1035   6.5210   6.5661   6.5759   6.5859   7.0740   7.1153

          k = 0.2520-0.5010 0.2500 (  5138 PWs)   bands (ev):

   -64.8290 -64.8285 -64.8265 -64.8259 -31.6302 -31.6268 -31.6235 -31.6191
   -31.5936 -31.5931 -31.5821 -31.5799 -31.5797 -31.5786 -31.5772 -31.5757
    -8.4051  -8.3925  -8.0036  -7.9902   3.8079   3.8353   4.1878   4.2084
     5.8240   5.8366   6.7209   6.7607   6.8547   6.8820   7.0111   7.0234

          k = 0.2520-0.5010-0.5000 (  5144 PWs)   bands (ev):

   -64.8278 -64.8277 -64.8276 -64.8267 -31.6339 -31.6337 -31.6302 -31.6301
   -31.5845 -31.5843 -31.5825 -31.5823 -31.5756 -31.5755 -31.5750 -31.5749
    -8.1743  -8.1742  -8.1609  -8.1608   3.6254   3.6254   3.6555   3.6557
     6.5031   6.5032   6.5460   6.5462   7.0581   7.0584   7.0713   7.0714

          k = 0.2510-0.2510 0.0000 (  5159 PWs)   bands (ev):

   -64.8321 -64.8266 -64.8262 -64.8251 -31.6198 -31.6192 -31.6191 -31.6103
   -31.5948 -31.5946 -31.5945 -31.5882 -31.5881 -31.5862 -31.5761 -31.5674
    -8.9618  -8.0685  -8.0684  -7.8853   4.1636   4.1638   4.3330   5.0958
     5.8611   6.0492   6.0496   6.4935   6.4936   6.5431   7.1807   7.4776

          k = 0.2510-0.2510 0.2500 (  5154 PWs)   bands (ev):

   -64.8311 -64.8266 -64.8265 -64.8257 -31.6262 -31.6234 -31.6233 -31.6073
   -31.5962 -31.5958 -31.5954 -31.5838 -31.5837 -31.5824 -31.5722 -31.5700
    -8.7920  -8.0357  -8.0353  -8.0255   3.9962   3.9969   4.0160   5.1065
     5.8463   5.8509   5.8626   6.6665   6.7097   6.7099   7.3253   7.3593

          k = 0.2510-0.2510-0.5000 (  5148 PWs)   bands (ev):

   -64.8289 -64.8285 -64.8266 -64.8260 -31.6266 -31.6265 -31.6227 -31.6226
   -31.5963 -31.5960 -31.5802 -31.5801 -31.5790 -31.5790 -31.5764 -31.5761
    -8.3947  -8.3947  -8.0016  -8.0016   3.8135   3.8136   4.2164   4.2166
     5.8411   5.8413   6.7442   6.7444   6.8736   6.8736   6.9811   6.9812

          k =-0.4980-0.4980 0.0000 (  5188 PWs)   bands (ev):

   -64.8279 -64.8277 -64.8276 -64.8267 -31.6224 -31.6222 -31.6167 -31.6165
   -31.5973 -31.5971 -31.5971 -31.5968 -31.5774 -31.5772 -31.5748 -31.5745
    -8.2145  -8.2144  -8.1957  -8.1956   4.2877   4.2880   4.2987   4.2988
     5.7559   5.7564   5.7791   5.7795   7.0322   7.0323   7.0959   7.0960

          k =-0.4980-0.4980 0.2500 (  5140 PWs)   bands (ev):

   -64.8279 -64.8277 -64.8276 -64.8267 -31.6339 -31.6337 -31.6302 -31.6300
   -31.5839 -31.5839 -31.5823 -31.5823 -31.5775 -31.5773 -31.5735 -31.5732
    -8.1769  -8.1768  -8.1583  -8.1582   3.6285   3.6286   3.6522   3.6523
     6.5210   6.5214   6.5278   6.5281   7.0334   7.0335   7.0966   7.0967

          k =-0.4980-0.4980-0.5000 (  5136 PWs)   bands (ev):

   -64.8279 -64.8277 -64.8276 -64.8267 -31.6404 -31.6402 -31.6394 -31.6393
   -31.5767 -31.5765 -31.5758 -31.5757 -31.5747 -31.5747 -31.5740 -31.5737
    -8.1386  -8.1386  -8.1203  -8.1202   3.2030   3.2030   3.2323   3.2324
     7.0341   7.0342   7.0643   7.0646   7.0663   7.0665   7.0976   7.0976

          k = 0.2500-0.0010-0.2500 (  5156 PWs)   bands (ev):

   -64.8322 -64.8265 -64.8262 -64.8251 -31.6213 -31.6211 -31.6201 -31.6073
   -31.5947 -31.5941 -31.5933 -31.5877 -31.5867 -31.5864 -31.5758 -31.5689
    -8.9659  -8.0657  -8.0615  -7.8899   4.1581   4.1652   4.3289   5.0715
     5.8470   6.0493   6.0600   6.4837   6.4892   6.5838   7.1732   7.5062

          k = 0.2490 0.2490-0.2500 (  5146 PWs)   bands (ev):

   -64.8312 -64.8266 -64.8265 -64.8257 -31.6275 -31.6273 -31.6245 -31.6048
   -31.5922 -31.5920 -31.5916 -31.5860 -31.5841 -31.5840 -31.5736 -31.5707
    -8.8000  -8.0355  -8.0255  -8.0251   3.9851   4.0044   4.0049   5.0723
     5.8294   5.8413   5.8457   6.7016   6.7018   6.7454   7.3516   7.3860

          k =-0.5010 0.2520-0.2500 (  5138 PWs)   bands (ev):

   -64.8290 -64.8285 -64.8265 -64.8259 -31.6302 -31.6268 -31.6235 -31.6191
   -31.5936 -31.5931 -31.5821 -31.5799 -31.5797 -31.5786 -31.5772 -31.5757
    -8.4051  -8.3925  -8.0036  -7.9902   3.8079   3.8353   4.1878   4.2084
     5.8240   5.8366   6.7209   6.7607   6.8547   6.8820   7.0111   7.0234

     highest occupied level (ev):     7.7012

!    total energy              =    -608.39265769 Ry
     Harris-Foulkes estimate   =    -608.39265769 Ry
     estimated scf accuracy    <          4.2E-11 Ry

     The total energy is the sum of the following terms:

     one-electron contribution =    -303.55536926 Ry
     hartree contribution      =     168.06686664 Ry
     xc contribution           =     -97.84633490 Ry
     ewald contribution        =    -375.05782017 Ry

     convergence has been achieved in   5 iterations

     Forces acting on atoms (cartesian axes, Ry/au):

     atom    1 type  1   force =    -0.00066974   -0.00066974   -0.00000387
     atom    2 type  1   force =     0.00074529   -0.00072756    0.00000405
     atom    3 type  1   force =    -0.00072756    0.00074529    0.00000405
     atom    4 type  1   force =     0.00064583    0.00064583   -0.00000413
     atom    5 type  2   force =    -0.00078831    0.00079931   -0.00000352
     atom    6 type  2   force =     0.00079931   -0.00078831   -0.00000352
     atom    7 type  2   force =    -0.00076902   -0.00076902    0.00000351
     atom    8 type  2   force =     0.00076420    0.00076420    0.00000342

     Total force =     0.002962     Total SCF correction =     0.000016


     Computing stress (Cartesian axis) and pressure

          total   stress  (Ry/bohr**3)                   (kbar)     P=  -68.10
  -0.00046308  -0.00007551  -0.00000000        -68.12    -11.11     -0.00
  -0.00007551  -0.00046308  -0.00000000        -11.11    -68.12     -0.00
  -0.00000000  -0.00000000  -0.00046263         -0.00     -0.00    -68.06


     number of scf cycles    =   3
     number of bfgs steps    =   2

     energy   old            =    -608.3926420842 Ry
     energy   new            =    -608.3926576903 Ry

     CASE: energy  _new < energy  _old

     new trust radius        =       0.0028115643 bohr
     new conv_thr            =       0.0000000002 Ry


ATOMIC_POSITIONS (alat)
Mg      -0.000444882  -0.000444882  -0.000003215
Mg       0.000504334   0.499520971   0.500003184
Mg       0.499520971   0.000504334   0.500003184
Mg       0.500407094   0.500407094  -0.000003307
O        0.499449137   0.000572195  -0.000003669
O        0.000572195   0.499449137  -0.000003669
O       -0.000536415  -0.000536415   0.500003742
O        0.500527566   0.500527566   0.500003748



     Writing output data file MgO.0.007857.70.4.save
     NEW-OLD atomic charge density approx. for the potential

     Check: negative/imaginary core charge=   -0.000007    0.000000

     total cpu time spent up to now is       22.4 secs

     per-process dynamical memory:    53.8 Mb

     Self-consistent Calculation

     iteration #  1     ecut=    70.00 Ry     beta=0.70
     Davidson diagonalization with overlap
     ethr =  1.00E-06,  avg # of iterations =  3.0

     Threshold (ethr) on eigenvalues was too large:
     Diagonalizing with lowered threshold

     Davidson diagonalization with overlap
     ethr =  4.84E-09,  avg # of iterations =  2.2

     total cpu time spent up to now is       24.7 secs

     total energy              =    -608.39267517 Ry
     Harris-Foulkes estimate   =    -608.39267692 Ry
     estimated scf accuracy    <       0.00000312 Ry

     iteration #  2     ecut=    70.00 Ry     beta=0.70
     Davidson diagonalization with overlap
     ethr =  4.87E-09,  avg # of iterations =  2.0

     total cpu time spent up to now is       25.7 secs

     total energy              =    -608.39267570 Ry
     Harris-Foulkes estimate   =    -608.39267571 Ry
     estimated scf accuracy    <       0.00000008 Ry

     iteration #  3     ecut=    70.00 Ry     beta=0.70
     Davidson diagonalization with overlap
     ethr =  1.20E-10,  avg # of iterations =  2.0

     total cpu time spent up to now is       26.7 secs

     total energy              =    -608.39267571 Ry
     Harris-Foulkes estimate   =    -608.39267571 Ry
     estimated scf accuracy    <          5.2E-09 Ry

     iteration #  4     ecut=    70.00 Ry     beta=0.70
     Davidson diagonalization with overlap
     ethr =  8.10E-12,  avg # of iterations =  2.3

     total cpu time spent up to now is       27.7 secs

     total energy              =    -608.39267571 Ry
     Harris-Foulkes estimate   =    -608.39267571 Ry
     estimated scf accuracy    <          9.1E-10 Ry

     iteration #  5     ecut=    70.00 Ry     beta=0.70
     Davidson diagonalization with overlap
     ethr =  1.41E-12,  avg # of iterations =  3.0

     total cpu time spent up to now is       28.8 secs

     End of self-consistent calculation

          k = 0.0000 0.0000 0.0000 (  5141 PWs)   bands (ev):

   -64.8348 -64.8253 -64.8253 -64.8245 -31.6311 -31.6310 -31.6310 -31.5947
   -31.5937 -31.5936 -31.5930 -31.5930 -31.5918 -31.5665 -31.5641 -31.5638
    -9.3645  -7.9136  -7.9134  -7.9133   3.7583   3.7588   3.7588   6.3347
     6.3802   6.3802   6.3802   6.3806   6.4263   7.6441   7.6724   7.7012

          k = 0.0000 0.0000 0.2500 (  5153 PWs)   bands (ev):

   -64.8334 -64.8265 -64.8253 -64.8247 -31.6252 -31.6251 -31.6206 -31.5980
   -31.5980 -31.5943 -31.5942 -31.5906 -31.5871 -31.5783 -31.5731 -31.5695
    -9.1561  -8.1285  -7.8849  -7.8848   4.0487   4.0489   4.0957   5.8582
     5.8583   6.1708   6.1711   6.4995   6.5874   6.6589   7.4188   7.4830

          k = 0.0000 0.0000-0.5000 (  5122 PWs)   bands (ev):

   -64.8302 -64.8297 -64.8253 -64.8247 -31.6136 -31.6134 -31.6073 -31.6070
   -31.6020 -31.6020 -31.5912 -31.5912 -31.5826 -31.5824 -31.5788 -31.5785
    -8.6458  -8.6457  -7.8561  -7.8560   4.8425   4.8425   4.8530   4.8532
     5.1227   5.1230   5.9737   5.9740   6.9302   6.9302   7.0074   7.0075

          k =-0.0010 0.2500 0.0000 (  5164 PWs)   bands (ev):

   -64.8334 -64.8265 -64.8253 -64.8247 -31.6251 -31.6246 -31.6215 -31.5995
   -31.5985 -31.5936 -31.5933 -31.5893 -31.5890 -31.5795 -31.5717 -31.5711
    -9.1560  -8.1282  -7.8851  -7.8849   4.0485   4.0487   4.0954   5.8536
     5.8583   6.1708   6.1755   6.5430   6.5432   6.6585   7.4503   7.4512

          k =-0.0010 0.2500 0.2500 (  5156 PWs)   bands (ev):

   -64.8322 -64.8265 -64.8261 -64.8251 -31.6213 -31.6211 -31.6201 -31.6073
   -31.5947 -31.5941 -31.5933 -31.5877 -31.5867 -31.5864 -31.5758 -31.5688
    -8.9659  -8.0650  -8.0623  -7.8899   4.1594   4.1639   4.3289   5.0715
     5.8469   6.0512   6.0581   6.4844   6.4884   6.5838   7.1731   7.5062

          k =-0.0010 0.2500-0.5000 (  5148 PWs)   bands (ev):

   -64.8295 -64.8290 -64.8260 -64.8254 -31.6180 -31.6179 -31.6104 -31.6103
   -31.6066 -31.6064 -31.5854 -31.5852 -31.5839 -31.5838 -31.5754 -31.5752
    -8.5095  -8.5094  -7.9466  -7.9465   4.4187   4.4187   4.7510   4.7513
     5.0965   5.0965   6.5481   6.5483   6.5753   6.5753   7.0955   7.0956

          k = 0.0020-0.5000 0.0000 (  5124 PWs)   bands (ev):

   -64.8302 -64.8297 -64.8253 -64.8247 -31.6109 -31.6106 -31.6101 -31.6098
   -31.6022 -31.6021 -31.5918 -31.5917 -31.5807 -31.5805 -31.5802 -31.5800
    -8.6458  -8.6455  -7.8563  -7.8562   4.8470   4.8477   4.8481   4.8483
     5.1230   5.1234   5.9735   5.9742   6.9684   6.9686   6.9689   6.9689

          k = 0.0020-0.5000 0.2500 (  5156 PWs)   bands (ev):

   -64.8294 -64.8290 -64.8260 -64.8254 -31.6178 -31.6176 -31.6105 -31.6105
   -31.6072 -31.6069 -31.5853 -31.5851 -31.5842 -31.5841 -31.5755 -31.5753
    -8.5095  -8.5092  -7.9467  -7.9466   4.4181   4.4185   4.7512   4.7516
     5.0964   5.0971   6.5480   6.5482   6.5760   6.5764   7.0942   7.0944

          k = 0.0020-0.5000-0.5000 (  5184 PWs)   bands (ev):

   -64.8278 -64.8277 -64.8277 -64.8267 -31.6195 -31.6194 -31.6192 -31.6192
   -31.5973 -31.5971 -31.5968 -31.5965 -31.5762 -31.5760 -31.5758 -31.5758
    -8.2070  -8.2068  -8.2033  -8.2033   4.2901   4.2901   4.2966   4.2968
     5.7634   5.7640   5.7721   5.7727   7.0618   7.0619   7.0655   7.0657

          k = 0.2490 0.2490 0.0000 (  5155 PWs)   bands (ev):

   -64.8322 -64.8265 -64.8261 -64.8251 -31.6234 -31.6232 -31.6199 -31.6054
   -31.5944 -31.5943 -31.5904 -31.5885 -31.5853 -31.5851 -31.5758 -31.5711
    -8.9699  -8.0587  -8.0585  -7.8949   4.1597   4.1597   4.3246   5.0471
     5.8337   6.0620   6.0624   6.4766   6.4766   6.6255   7.1656   7.5338

          k = 0.2490 0.2490 0.2500 (  5146 PWs)   bands (ev):

   -64.8312 -64.8265 -64.8265 -64.8257 -31.6275 -31.6273 -31.6245 -31.6048
   -31.5921 -31.5920 -31.5917 -31.5859 -31.5841 -31.5840 -31.5735 -31.5707
    -8.8000  -8.0353  -8.0255  -8.0254   3.9854   4.0044   4.0046   5.0723
     5.8317   5.8413   5.8434   6.7016   6.7018   6.7454   7.3516   7.3860

          k = 0.2490 0.2490-0.5000 (  5124 PWs)   bands (ev):

   -64.8290 -64.8286 -64.8264 -64.8258 -31.6302 -31.6300 -31.6202 -31.6201
   -31.5903 -31.5901 -31.5817 -31.5816 -31.5797 -31.5794 -31.5765 -31.5764
    -8.4032  -8.4030  -7.9921  -7.9920   3.8296   3.8297   4.1798   4.1798
     5.8200   5.8202   6.7365   6.7368   6.8644   6.8646   7.0517   7.0518

          k = 0.2520-0.5010 0.0000 (  5153 PWs)   bands (ev):

   -64.8295 -64.8290 -64.8260 -64.8254 -31.6204 -31.6151 -31.6131 -31.6077
   -31.6072 -31.6069 -31.5859 -31.5853 -31.5850 -31.5820 -31.5772 -31.5738
    -8.5156  -8.5030  -7.9536  -7.9398   4.4098   4.4271   4.7477   4.7550
     5.0893   5.1035   6.5209   6.5661   6.5759   6.5859   7.0739   7.1152

          k = 0.2520-0.5010 0.2500 (  5138 PWs)   bands (ev):

   -64.8290 -64.8285 -64.8265 -64.8259 -31.6302 -31.6267 -31.6234 -31.6190
   -31.5935 -31.5930 -31.5820 -31.5799 -31.5797 -31.5786 -31.5772 -31.5757
    -8.4051  -8.3926  -8.0036  -7.9902   3.8079   3.8353   4.1878   4.2084
     5.8240   5.8366   6.7209   6.7606   6.8546   6.8819   7.0111   7.0234

          k = 0.2520-0.5010-0.5000 (  5144 PWs)   bands (ev):

   -64.8278 -64.8277 -64.8276 -64.8267 -31.6339 -31.6337 -31.6302 -31.6301
   -31.5845 -31.5842 -31.5825 -31.5823 -31.5756 -31.5754 -31.5750 -31.5749
    -8.1741  -8.1740  -8.1611  -8.1610   3.6257   3.6257   3.6552   3.6553
     6.5034   6.5035   6.5457   6.5458   7.0583   7.0585   7.0711   7.0712

          k = 0.2510-0.2510 0.0000 (  5159 PWs)   bands (ev):

   -64.8321 -64.8266 -64.8262 -64.8250 -31.6198 -31.6192 -31.6191 -31.6102
   -31.5948 -31.5946 -31.5945 -31.5882 -31.5880 -31.5862 -31.5761 -31.5674
    -8.9618  -8.0686  -8.0684  -7.8853   4.1635   4.1638   4.3330   5.0958
     5.8610   6.0491   6.0496   6.4935   6.4936   6.5430   7.1807   7.4775

          k = 0.2510-0.2510 0.2500 (  5154 PWs)   bands (ev):

   -64.8311 -64.8266 -64.8265 -64.8257 -31.6262 -31.6234 -31.6232 -31.6073
   -31.5961 -31.5958 -31.5955 -31.5837 -31.5837 -31.5824 -31.5722 -31.5700
    -8.7920  -8.0355  -8.0353  -8.0258   3.9966   3.9969   4.0156   5.1065
     5.8486   5.8509   5.8603   6.6665   6.7097   6.7099   7.3253   7.3593

          k = 0.2510-0.2510-0.5000 (  5148 PWs)   bands (ev):

   -64.8289 -64.8285 -64.8266 -64.8259 -31.6266 -31.6264 -31.6227 -31.6225
   -31.5962 -31.5960 -31.5801 -31.5801 -31.5790 -31.5790 -31.5763 -31.5761
    -8.3948  -8.3947  -8.0017  -8.0016   3.8136   3.8136   4.2163   4.2165
     5.8412   5.8412   6.7442   6.7444   6.8735   6.8736   6.9811   6.9811

          k =-0.4980-0.4980 0.0000 (  5188 PWs)   bands (ev):

   -64.8279 -64.8277 -64.8276 -64.8267 -31.6224 -31.6221 -31.6167 -31.6165
   -31.5973 -31.5971 -31.5971 -31.5968 -31.5774 -31.5771 -31.5748 -31.5745
    -8.2146  -8.2144  -8.1958  -8.1956   4.2877   4.2881   4.2987   4.2988
     5.7559   5.7564   5.7791   5.7794   7.0322   7.0322   7.0958   7.0960

          k =-0.4980-0.4980 0.2500 (  5140 PWs)   bands (ev):

   -64.8279 -64.8277 -64.8276 -64.8267 -31.6339 -31.6337 -31.6302 -31.6300
   -31.5839 -31.5839 -31.5823 -31.5823 -31.5775 -31.5773 -31.5735 -31.5732
    -8.1769  -8.1768  -8.1584  -8.1582   3.6284   3.6287   3.6522   3.6523
     6.5210   6.5214   6.5278   6.5281   7.0334   7.0334   7.0965   7.0966

          k =-0.4980-0.4980-0.5000 (  5136 PWs)   bands (ev):

   -64.8278 -64.8277 -64.8276 -64.8267 -31.6403 -31.6402 -31.6394 -31.6393
   -31.5767 -31.5765 -31.5757 -31.5757 -31.5747 -31.5747 -31.5740 -31.5737
    -8.1387  -8.1386  -8.1203  -8.1202   3.2029   3.2030   3.2323   3.2324
     7.0341   7.0341   7.0643   7.0645   7.0663   7.0665   7.0975   7.0976

          k = 0.2500-0.0010-0.2500 (  5156 PWs)   bands (ev):

   -64.8322 -64.8265 -64.8261 -64.8251 -31.6213 -31.6211 -31.6201 -31.6073
   -31.5947 -31.5941 -31.5933 -31.5877 -31.5867 -31.5864 -31.5758 -31.5688
    -8.9659  -8.0650  -8.0623  -7.8899   4.1594   4.1639   4.3289   5.0715
     5.8469   6.0512   6.0581   6.4844   6.4884   6.5838   7.1731   7.5062

          k = 0.2490 0.2490-0.2500 (  5146 PWs)   bands (ev):

   -64.8312 -64.8265 -64.8265 -64.8257 -31.6275 -31.6273 -31.6245 -31.6048
   -31.5921 -31.5920 -31.5917 -31.5859 -31.5841 -31.5840 -31.5735 -31.5707
    -8.8000  -8.0353  -8.0255  -8.0254   3.9854   4.0044   4.0046   5.0723
     5.8317   5.8413   5.8434   6.7016   6.7018   6.7454   7.3516   7.3860

          k =-0.5010 0.2520-0.2500 (  5138 PWs)   bands (ev):

   -64.8290 -64.8285 -64.8265 -64.8259 -31.6302 -31.6267 -31.6234 -31.6190
   -31.5935 -31.5930 -31.5820 -31.5799 -31.5797 -31.5786 -31.5772 -31.5757
    -8.4051  -8.3926  -8.0036  -7.9902   3.8079   3.8353   4.1878   4.2084
     5.8240   5.8366   6.7209   6.7606   6.8546   6.8819   7.0111   7.0234

     highest occupied level (ev):     7.7012

!    total energy              =    -608.39267571 Ry
     Harris-Foulkes estimate   =    -608.39267571 Ry
     estimated scf accuracy    <          9.0E-11 Ry

     The total energy is the sum of the following terms:

     one-electron contribution =    -303.55568871 Ry
     hartree contribution      =     168.06702887 Ry
     xc contribution           =     -97.84634295 Ry
     ewald contribution        =    -375.05767292 Ry

     convergence has been achieved in   5 iterations

     Forces acting on atoms (cartesian axes, Ry/au):

     atom    1 type  1   force =    -0.00047439   -0.00047439   -0.00000077
     atom    2 type  1   force =     0.00050114   -0.00052375    0.00000108
     atom    3 type  1   force =    -0.00052375    0.00050114    0.00000108
     atom    4 type  1   force =     0.00051325    0.00051325   -0.00000116
     atom    5 type  2   force =    -0.00049137    0.00046830   -0.00000029
     atom    6 type  2   force =     0.00046830   -0.00049137   -0.00000029
     atom    7 type  2   force =    -0.00047917   -0.00047917    0.00000020
     atom    8 type  2   force =     0.00048598    0.00048598    0.00000015

     Total force =     0.001970     Total SCF correction =     0.000022


     Computing stress (Cartesian axis) and pressure

          total   stress  (Ry/bohr**3)                   (kbar)     P=  -68.10
  -0.00046312  -0.00007550   0.00000000        -68.13    -11.11      0.00
  -0.00007550  -0.00046312   0.00000000        -11.11    -68.13      0.00
   0.00000000   0.00000000  -0.00046260          0.00      0.00    -68.05


     number of scf cycles    =   4
     number of bfgs steps    =   3

     energy   old            =    -608.3926576903 Ry
     energy   new            =    -608.3926757070 Ry

     CASE: energy  _new < energy  _old

     new trust radius        =       0.0042173464 bohr
     new conv_thr            =       0.0000000002 Ry


ATOMIC_POSITIONS (alat)
Mg      -0.000770537  -0.000770537  -0.000004686
Mg       0.000861279   0.499165859   0.500004758
Mg       0.499165859   0.000861279   0.500004758
Mg       0.500731781   0.500731781  -0.000004944
O        0.499078416   0.000942852  -0.000005075
O        0.000942852   0.499078416  -0.000005075
O       -0.000897767  -0.000897767   0.500005141
O        0.500888116   0.500888116   0.500005123



     Writing output data file MgO.0.007857.70.4.save
     NEW-OLD atomic charge density approx. for the potential

     Check: negative/imaginary core charge=   -0.000007    0.000000

     total cpu time spent up to now is       29.4 secs

     per-process dynamical memory:    53.8 Mb

     Self-consistent Calculation

     iteration #  1     ecut=    70.00 Ry     beta=0.70
     Davidson diagonalization with overlap
     ethr =  1.00E-06,  avg # of iterations =  3.0

     Threshold (ethr) on eigenvalues was too large:
     Diagonalizing with lowered threshold

     Davidson diagonalization with overlap
     ethr =  1.09E-08,  avg # of iterations =  1.9

     total cpu time spent up to now is       31.8 secs

     total energy              =    -608.39268813 Ry
     Harris-Foulkes estimate   =    -608.39269198 Ry
     estimated scf accuracy    <       0.00000696 Ry

     iteration #  2     ecut=    70.00 Ry     beta=0.70
     Davidson diagonalization with overlap
     ethr =  1.09E-08,  avg # of iterations =  2.0

     total cpu time spent up to now is       32.8 secs

     total energy              =    -608.39268929 Ry
     Harris-Foulkes estimate   =    -608.39268933 Ry
     estimated scf accuracy    <       0.00000017 Ry

     iteration #  3     ecut=    70.00 Ry     beta=0.70
     Davidson diagonalization with overlap
     ethr =  2.71E-10,  avg # of iterations =  2.0

     total cpu time spent up to now is       33.7 secs

     total energy              =    -608.39268932 Ry
     Harris-Foulkes estimate   =    -608.39268932 Ry
     estimated scf accuracy    <       0.00000001 Ry

     iteration #  4     ecut=    70.00 Ry     beta=0.70
     Davidson diagonalization with overlap
     ethr =  1.85E-11,  avg # of iterations =  2.3

     total cpu time spent up to now is       34.8 secs

     total energy              =    -608.39268932 Ry
     Harris-Foulkes estimate   =    -608.39268932 Ry
     estimated scf accuracy    <          2.1E-09 Ry

     iteration #  5     ecut=    70.00 Ry     beta=0.70
     Davidson diagonalization with overlap
     ethr =  3.27E-12,  avg # of iterations =  2.9

     total cpu time spent up to now is       35.8 secs

     End of self-consistent calculation

          k = 0.0000 0.0000 0.0000 (  5141 PWs)   bands (ev):

   -64.8348 -64.8253 -64.8253 -64.8245 -31.6311 -31.6310 -31.6310 -31.5947
   -31.5937 -31.5936 -31.5930 -31.5930 -31.5918 -31.5664 -31.5641 -31.5637
    -9.3645  -7.9137  -7.9133  -7.9133   3.7583   3.7588   3.7588   6.3347
     6.3802   6.3802   6.3802   6.3805   6.4263   7.6440   7.6724   7.7012

          k = 0.0000 0.0000 0.2500 (  5153 PWs)   bands (ev):

   -64.8334 -64.8265 -64.8253 -64.8247 -31.6252 -31.6251 -31.6206 -31.5980
   -31.5980 -31.5943 -31.5942 -31.5906 -31.5871 -31.5783 -31.5731 -31.5695
    -9.1561  -8.1285  -7.8849  -7.8849   4.0488   4.0488   4.0955   5.8582
     5.8582   6.1708   6.1711   6.4995   6.5874   6.6589   7.4188   7.4830

          k = 0.0000 0.0000-0.5000 (  5122 PWs)   bands (ev):

   -64.8302 -64.8297 -64.8253 -64.8247 -31.6136 -31.6134 -31.6072 -31.6070
   -31.6020 -31.6020 -31.5912 -31.5912 -31.5826 -31.5823 -31.5787 -31.5785
    -8.6458  -8.6458  -7.8561  -7.8561   4.8425   4.8425   4.8531   4.8531
     5.1227   5.1229   5.9737   5.9740   6.9302   6.9302   7.0074   7.0075

          k =-0.0010 0.2500 0.0000 (  5164 PWs)   bands (ev):

   -64.8334 -64.8265 -64.8253 -64.8247 -31.6251 -31.6246 -31.6215 -31.5994
   -31.5985 -31.5935 -31.5933 -31.5893 -31.5890 -31.5794 -31.5717 -31.5711
    -9.1560  -8.1283  -7.8852  -7.8849   4.0485   4.0487   4.0954   5.8537
     5.8583   6.1708   6.1754   6.5430   6.5431   6.6584   7.4503   7.4511

          k =-0.0010 0.2500 0.2500 (  5156 PWs)   bands (ev):

   -64.8321 -64.8265 -64.8261 -64.8251 -31.6213 -31.6211 -31.6201 -31.6073
   -31.5946 -31.5941 -31.5933 -31.5877 -31.5866 -31.5863 -31.5758 -31.5688
    -8.9659  -8.0638  -8.0634  -7.8899   4.1613   4.1620   4.3289   5.0715
     5.8469   6.0535   6.0557   6.4851   6.4877   6.5838   7.1731   7.5062

          k =-0.0010 0.2500-0.5000 (  5148 PWs)   bands (ev):

   -64.8294 -64.8290 -64.8260 -64.8254 -31.6180 -31.6178 -31.6103 -31.6103
   -31.6066 -31.6064 -31.5854 -31.5851 -31.5839 -31.5838 -31.5753 -31.5752
    -8.5095  -8.5094  -7.9466  -7.9466   4.4187   4.4188   4.7510   4.7512
     5.0965   5.0965   6.5481   6.5483   6.5753   6.5753   7.0955   7.0955

          k = 0.0020-0.5000 0.0000 (  5124 PWs)   bands (ev):

   -64.8301 -64.8297 -64.8253 -64.8247 -31.6109 -31.6106 -31.6101 -31.6098
   -31.6021 -31.6021 -31.5918 -31.5917 -31.5807 -31.5804 -31.5802 -31.5800
    -8.6459  -8.6454  -7.8563  -7.8562   4.8470   4.8475   4.8480   4.8484
     5.1229   5.1234   5.9736   5.9740   6.9683   6.9685   6.9689   6.9690

          k = 0.0020-0.5000 0.2500 (  5156 PWs)   bands (ev):

   -64.8294 -64.8290 -64.8260 -64.8254 -31.6178 -31.6176 -31.6105 -31.6105
   -31.6071 -31.6069 -31.5853 -31.5851 -31.5842 -31.5841 -31.5754 -31.5753
    -8.5096  -8.5091  -7.9468  -7.9466   4.4181   4.4185   4.7512   4.7516
     5.0963   5.0972   6.5479   6.5482   6.5758   6.5764   7.0942   7.0944

          k = 0.0020-0.5000-0.5000 (  5184 PWs)   bands (ev):

   -64.8277 -64.8277 -64.8277 -64.8267 -31.6195 -31.6193 -31.6192 -31.6192
   -31.5971 -31.5969 -31.5969 -31.5966 -31.5761 -31.5760 -31.5758 -31.5758
    -8.2055  -8.2052  -8.2050  -8.2047   4.2930   4.2931   4.2937   4.2939
     5.7671   5.7678   5.7682   5.7690   7.0634   7.0635   7.0638   7.0642

          k = 0.2490 0.2490 0.0000 (  5155 PWs)   bands (ev):

   -64.8322 -64.8264 -64.8261 -64.8251 -31.6234 -31.6232 -31.6199 -31.6054
   -31.5943 -31.5943 -31.5904 -31.5885 -31.5853 -31.5851 -31.5758 -31.5710
    -8.9699  -8.0586  -8.0586  -7.8949   4.1597   4.1597   4.3245   5.0471
     5.8337   6.0621   6.0624   6.4765   6.4765   6.6254   7.1656   7.5338

          k = 0.2490 0.2490 0.2500 (  5146 PWs)   bands (ev):

   -64.8312 -64.8265 -64.8264 -64.8257 -31.6274 -31.6273 -31.6244 -31.6048
   -31.5921 -31.5920 -31.5917 -31.5859 -31.5840 -31.5840 -31.5735 -31.5707
    -8.8001  -8.0351  -8.0256  -8.0255   3.9857   4.0043   4.0044   5.0723
     5.8339   5.8412   5.8413   6.7016   6.7017   6.7454   7.3516   7.3859

          k = 0.2490 0.2490-0.5000 (  5124 PWs)   bands (ev):

   -64.8290 -64.8286 -64.8264 -64.8258 -31.6302 -31.6300 -31.6202 -31.6201
   -31.5903 -31.5900 -31.5816 -31.5816 -31.5796 -31.5794 -31.5765 -31.5764
    -8.4031  -8.4031  -7.9921  -7.9920   3.8296   3.8297   4.1797   4.1798
     5.8201   5.8201   6.7365   6.7367   6.8644   6.8645   7.0517   7.0517

          k = 0.2520-0.5010 0.0000 (  5153 PWs)   bands (ev):

   -64.8294 -64.8290 -64.8260 -64.8254 -31.6204 -31.6150 -31.6130 -31.6077
   -31.6072 -31.6069 -31.5858 -31.5853 -31.5850 -31.5820 -31.5772 -31.5738
    -8.5156  -8.5030  -7.9536  -7.9398   4.4098   4.4271   4.7477   4.7550
     5.0893   5.1035   6.5209   6.5661   6.5758   6.5859   7.0739   7.1152

          k = 0.2520-0.5010 0.2500 (  5138 PWs)   bands (ev):

   -64.8289 -64.8285 -64.8265 -64.8259 -31.6301 -31.6267 -31.6234 -31.6190
   -31.5935 -31.5930 -31.5820 -31.5799 -31.5797 -31.5785 -31.5772 -31.5757
    -8.4051  -8.3926  -8.0036  -7.9902   3.8079   3.8353   4.1878   4.2084
     5.8240   5.8366   6.7208   6.7606   6.8546   6.8819   7.0111   7.0234

          k = 0.2520-0.5010-0.5000 (  5144 PWs)   bands (ev):

   -64.8278 -64.8277 -64.8276 -64.8267 -31.6338 -31.6337 -31.6302 -31.6301
   -31.5844 -31.5842 -31.5825 -31.5823 -31.5756 -31.5754 -31.5750 -31.5749
    -8.1740  -8.1739  -8.1612  -8.1612   3.6258   3.6259   3.6550   3.6551
     6.5037   6.5037   6.5455   6.5456   7.0584   7.0586   7.0709   7.0711

          k = 0.2510-0.2510 0.0000 (  5159 PWs)   bands (ev):

   -64.8321 -64.8266 -64.8262 -64.8250 -31.6197 -31.6192 -31.6191 -31.6102
   -31.5948 -31.5945 -31.5945 -31.5881 -31.5880 -31.5862 -31.5761 -31.5673
    -8.9618  -8.0686  -8.0684  -7.8854   4.1635   4.1638   4.3330   5.0958
     5.8610   6.0491   6.0496   6.4935   6.4935   6.5430   7.1807   7.4775

          k = 0.2510-0.2510 0.2500 (  5154 PWs)   bands (ev):

   -64.8311 -64.8266 -64.8265 -64.8257 -31.6262 -31.6233 -31.6232 -31.6072
   -31.5960 -31.5958 -31.5955 -31.5837 -31.5837 -31.5824 -31.5722 -31.5700
    -8.7920  -8.0354  -8.0352  -8.0260   3.9968   3.9970   4.0154   5.1065
     5.8507   5.8511   5.8580   6.6664   6.7097   6.7098   7.3252   7.3593

          k = 0.2510-0.2510-0.5000 (  5148 PWs)   bands (ev):

   -64.8289 -64.8285 -64.8266 -64.8259 -31.6266 -31.6264 -31.6226 -31.6225
   -31.5962 -31.5960 -31.5801 -31.5801 -31.5790 -31.5789 -31.5763 -31.5761
    -8.3948  -8.3947  -8.0017  -8.0017   3.8136   3.8136   4.2163   4.2165
     5.8412   5.8412   6.7442   6.7444   6.8734   6.8736   6.9811   6.9811

          k =-0.4980-0.4980 0.0000 (  5188 PWs)   bands (ev):

   -64.8278 -64.8277 -64.8276 -64.8267 -31.6224 -31.6221 -31.6167 -31.6164
   -31.5973 -31.5971 -31.5970 -31.5968 -31.5774 -31.5771 -31.5748 -31.5745
    -8.2146  -8.2144  -8.1957  -8.1957   4.2876   4.2880   4.2987   4.2987
     5.7558   5.7564   5.7791   5.7794   7.0322   7.0322   7.0958   7.0960

          k =-0.4980-0.4980 0.2500 (  5140 PWs)   bands (ev):

   -64.8278 -64.8277 -64.8276 -64.8267 -31.6339 -31.6337 -31.6301 -31.6300
   -31.5839 -31.5838 -31.5823 -31.5822 -31.5775 -31.5772 -31.5734 -31.5732
    -8.1769  -8.1768  -8.1583  -8.1583   3.6284   3.6287   3.6522   3.6523
     6.5210   6.5214   6.5278   6.5280   7.0334   7.0334   7.0965   7.0966

          k =-0.4980-0.4980-0.5000 (  5136 PWs)   bands (ev):

   -64.8278 -64.8277 -64.8276 -64.8267 -31.6403 -31.6401 -31.6394 -31.6392
   -31.5767 -31.5765 -31.5757 -31.5756 -31.5747 -31.5746 -31.5739 -31.5737
    -8.1387  -8.1387  -8.1203  -8.1202   3.2029   3.2030   3.2323   3.2324
     7.0341   7.0341   7.0643   7.0645   7.0663   7.0665   7.0975   7.0975

          k = 0.2500-0.0010-0.2500 (  5156 PWs)   bands (ev):

   -64.8321 -64.8265 -64.8261 -64.8251 -31.6213 -31.6211 -31.6201 -31.6073
   -31.5946 -31.5941 -31.5933 -31.5877 -31.5866 -31.5863 -31.5758 -31.5688
    -8.9659  -8.0638  -8.0634  -7.8899   4.1613   4.1620   4.3289   5.0715
     5.8469   6.0535   6.0557   6.4851   6.4877   6.5838   7.1731   7.5062

          k = 0.2490 0.2490-0.2500 (  5146 PWs)   bands (ev):

   -64.8312 -64.8265 -64.8264 -64.8257 -31.6274 -31.6273 -31.6244 -31.6048
   -31.5921 -31.5920 -31.5917 -31.5859 -31.5840 -31.5840 -31.5735 -31.5707
    -8.8001  -8.0351  -8.0256  -8.0255   3.9857   4.0043   4.0044   5.0723
     5.8339   5.8412   5.8413   6.7016   6.7017   6.7454   7.3516   7.3859

          k =-0.5010 0.2520-0.2500 (  5138 PWs)   bands (ev):

   -64.8289 -64.8285 -64.8265 -64.8259 -31.6301 -31.6267 -31.6234 -31.6190
   -31.5935 -31.5930 -31.5820 -31.5799 -31.5797 -31.5785 -31.5772 -31.5757
    -8.4051  -8.3926  -8.0036  -7.9902   3.8079   3.8353   4.1878   4.2084
     5.8240   5.8366   6.7208   6.7606   6.8546   6.8819   7.0111   7.0234

     highest occupied level (ev):     7.7012

!    total energy              =    -608.39268932 Ry
     Harris-Foulkes estimate   =    -608.39268932 Ry
     estimated scf accuracy    <          1.5E-10 Ry

     The total energy is the sum of the following terms:

     one-electron contribution =    -303.55593404 Ry
     hartree contribution      =     168.06715741 Ry
     xc contribution           =     -97.84634965 Ry
     ewald contribution        =    -375.05756303 Ry

     convergence has been achieved in   5 iterations

     Forces acting on atoms (cartesian axes, Ry/au):

     atom    1 type  1   force =    -0.00015211   -0.00015211    0.00000286
     atom    2 type  1   force =     0.00012028   -0.00019209   -0.00000248
     atom    3 type  1   force =    -0.00019209    0.00012028   -0.00000248
     atom    4 type  1   force =     0.00026565    0.00026565    0.00000246
     atom    5 type  2   force =    -0.00004963   -0.00000728    0.00000317
     atom    6 type  2   force =    -0.00000728   -0.00004963    0.00000317
     atom    7 type  2   force =    -0.00004776   -0.00004776   -0.00000333
     atom    8 type  2   force =     0.00006294    0.00006294   -0.00000338

     Total force =     0.000555     Total SCF correction =     0.000034


     Computing stress (Cartesian axis) and pressure

          total   stress  (Ry/bohr**3)                   (kbar)     P=  -68.10
  -0.00046315  -0.00007551  -0.00000000        -68.13    -11.11     -0.00
  -0.00007551  -0.00046315  -0.00000000        -11.11    -68.13     -0.00
  -0.00000000  -0.00000000  -0.00046257         -0.00     -0.00    -68.05


     number of scf cycles    =   5
     number of bfgs steps    =   4

     energy   old            =    -608.3926757070 Ry
     energy   new            =    -608.3926893185 Ry

     CASE: energy  _new < energy  _old

     new trust radius        =       0.0013209747 bohr
     new conv_thr            =       0.0000000001 Ry


ATOMIC_POSITIONS (alat)
Mg      -0.000870436  -0.000870436  -0.000004632
Mg       0.000964184   0.499052981   0.500004783
Mg       0.499052981   0.000964184   0.500004783
Mg       0.500847891   0.500847891  -0.000004986
O        0.498982338   0.001030799  -0.000004973
O        0.001030799   0.498982338  -0.000004973
O       -0.000991314  -0.000991314   0.500005014
O        0.500983558   0.500983558   0.500004984



     Writing output data file MgO.0.007857.70.4.save
     NEW-OLD atomic charge density approx. for the potential

     Check: negative/imaginary core charge=   -0.000007    0.000000

     total cpu time spent up to now is       36.5 secs

     per-process dynamical memory:    53.8 Mb

     Self-consistent Calculation

     iteration #  1     ecut=    70.00 Ry     beta=0.70
     Davidson diagonalization with overlap
     ethr =  1.00E-06,  avg # of iterations =  2.4

     Threshold (ethr) on eigenvalues was too large:
     Diagonalizing with lowered threshold

     Davidson diagonalization with overlap
     ethr =  4.90E-10,  avg # of iterations =  3.0

     total cpu time spent up to now is       38.9 secs

     total energy              =    -608.39269007 Ry
     Harris-Foulkes estimate   =    -608.39269030 Ry
     estimated scf accuracy    <       0.00000042 Ry

     iteration #  2     ecut=    70.00 Ry     beta=0.70
     Davidson diagonalization with overlap
     ethr =  6.61E-10,  avg # of iterations =  2.0

     total cpu time spent up to now is       39.9 secs

     total energy              =    -608.39269014 Ry
     Harris-Foulkes estimate   =    -608.39269014 Ry
     estimated scf accuracy    <       0.00000001 Ry

     iteration #  3     ecut=    70.00 Ry     beta=0.70
     Davidson diagonalization with overlap
     ethr =  1.97E-11,  avg # of iterations =  2.2

     total cpu time spent up to now is       40.9 secs

     total energy              =    -608.39269014 Ry
     Harris-Foulkes estimate   =    -608.39269014 Ry
     estimated scf accuracy    <          2.1E-09 Ry

     iteration #  4     ecut=    70.00 Ry     beta=0.70
     Davidson diagonalization with overlap
     ethr =  3.34E-12,  avg # of iterations =  3.0

     total cpu time spent up to now is       42.0 secs

     total energy              =    -608.39269014 Ry
     Harris-Foulkes estimate   =    -608.39269014 Ry
     estimated scf accuracy    <          2.0E-09 Ry

     iteration #  5     ecut=    70.00 Ry     beta=0.70
     Davidson diagonalization with overlap
     ethr =  3.17E-12,  avg # of iterations =  2.4

     total cpu time spent up to now is       43.0 secs

     End of self-consistent calculation

          k = 0.0000 0.0000 0.0000 (  5141 PWs)   bands (ev):

   -64.8348 -64.8253 -64.8253 -64.8245 -31.6311 -31.6310 -31.6310 -31.5947
   -31.5937 -31.5936 -31.5930 -31.5929 -31.5918 -31.5664 -31.5641 -31.5637
    -9.3645  -7.9137  -7.9134  -7.9133   3.7583   3.7588   3.7588   6.3347
     6.3802   6.3802   6.3802   6.3806   6.4263   7.6440   7.6724   7.7012

          k = 0.0000 0.0000 0.2500 (  5153 PWs)   bands (ev):

   -64.8334 -64.8265 -64.8253 -64.8247 -31.6252 -31.6251 -31.6206 -31.5980
   -31.5980 -31.5943 -31.5942 -31.5906 -31.5871 -31.5783 -31.5731 -31.5695
    -9.1561  -8.1285  -7.8849  -7.8849   4.0488   4.0488   4.0955   5.8582
     5.8582   6.1708   6.1711   6.4995   6.5874   6.6589   7.4188   7.4830

          k = 0.0000 0.0000-0.5000 (  5122 PWs)   bands (ev):

   -64.8301 -64.8297 -64.8253 -64.8247 -31.6136 -31.6134 -31.6072 -31.6070
   -31.6020 -31.6020 -31.5912 -31.5912 -31.5826 -31.5823 -31.5787 -31.5785
    -8.6459  -8.6458  -7.8562  -7.8561   4.8425   4.8425   4.8531   4.8531
     5.1227   5.1229   5.9737   5.9740   6.9302   6.9302   7.0074   7.0075

          k =-0.0010 0.2500 0.0000 (  5164 PWs)   bands (ev):

   -64.8334 -64.8265 -64.8253 -64.8247 -31.6251 -31.6246 -31.6214 -31.5994
   -31.5985 -31.5935 -31.5933 -31.5893 -31.5890 -31.5794 -31.5717 -31.5711
    -9.1560  -8.1283  -7.8852  -7.8849   4.0485   4.0487   4.0954   5.8537
     5.8583   6.1708   6.1754   6.5430   6.5431   6.6584   7.4503   7.4511

          k =-0.0010 0.2500 0.2500 (  5156 PWs)   bands (ev):

   -64.8321 -64.8265 -64.8261 -64.8251 -31.6213 -31.6211 -31.6201 -31.6073
   -31.5946 -31.5941 -31.5933 -31.5877 -31.5866 -31.5863 -31.5758 -31.5688
    -8.9659  -8.0638  -8.0635  -7.8899   4.1612   4.1620   4.3289   5.0715
     5.8469   6.0535   6.0557   6.4851   6.4876   6.5838   7.1731   7.5062

          k =-0.0010 0.2500-0.5000 (  5148 PWs)   bands (ev):

   -64.8294 -64.8290 -64.8260 -64.8254 -31.6180 -31.6178 -31.6103 -31.6103
   -31.6066 -31.6064 -31.5854 -31.5851 -31.5839 -31.5838 -31.5753 -31.5752
    -8.5095  -8.5094  -7.9466  -7.9465   4.4187   4.4187   4.7510   4.7512
     5.0965   5.0965   6.5481   6.5483   6.5753   6.5753   7.0955   7.0955

          k = 0.0020-0.5000 0.0000 (  5124 PWs)   bands (ev):

   -64.8301 -64.8297 -64.8253 -64.8247 -31.6109 -31.6106 -31.6101 -31.6098
   -31.6021 -31.6021 -31.5918 -31.5917 -31.5807 -31.5804 -31.5802 -31.5800
    -8.6459  -8.6454  -7.8563  -7.8562   4.8471   4.8475   4.8480   4.8484
     5.1229   5.1233   5.9736   5.9740   6.9684   6.9685   6.9688   6.9690

          k = 0.0020-0.5000 0.2500 (  5156 PWs)   bands (ev):

   -64.8294 -64.8290 -64.8260 -64.8254 -31.6178 -31.6176 -31.6105 -31.6105
   -31.6071 -31.6069 -31.5853 -31.5851 -31.5842 -31.5841 -31.5754 -31.5753
    -8.5096  -8.5091  -7.9468  -7.9466   4.4181   4.4185   4.7512   4.7515
     5.0963   5.0972   6.5478   6.5482   6.5758   6.5764   7.0942   7.0944

          k = 0.0020-0.5000-0.5000 (  5184 PWs)   bands (ev):

   -64.8277 -64.8277 -64.8277 -64.8267 -31.6195 -31.6193 -31.6192 -31.6192
   -31.5971 -31.5969 -31.5969 -31.5966 -31.5761 -31.5759 -31.5758 -31.5758
    -8.2054  -8.2052  -8.2051  -8.2047   4.2929   4.2931   4.2937   4.2938
     5.7673   5.7678   5.7682   5.7688   7.0634   7.0637   7.0639   7.0639

          k = 0.2490 0.2490 0.0000 (  5155 PWs)   bands (ev):

   -64.8322 -64.8264 -64.8261 -64.8251 -31.6234 -31.6232 -31.6199 -31.6054
   -31.5943 -31.5943 -31.5904 -31.5885 -31.5853 -31.5851 -31.5758 -31.5710
    -8.9699  -8.0587  -8.0586  -7.8949   4.1596   4.1597   4.3245   5.0471
     5.8337   6.0620   6.0624   6.4765   6.4766   6.6254   7.1656   7.5338

          k = 0.2490 0.2490 0.2500 (  5146 PWs)   bands (ev):

   -64.8312 -64.8265 -64.8264 -64.8257 -31.6274 -31.6273 -31.6244 -31.6048
[...]
    -8.3948  -8.3947  -8.0017  -8.0016   3.8136   3.8136   4.2163   4.2165
     5.8412   5.8412   6.7442   6.7444   6.8734   6.8736   6.9811   6.9811

          k =-0.4980-0.4980 0.0000 (  5188 PWs)   bands (ev):

   -64.8278 -64.8277 -64.8276 -64.8267 -31.6223 -31.6221 -31.6167 -31.6164
   -31.5973 -31.5971 -31.5970 -31.5968 -31.5774 -31.5771 -31.5748 -31.5745
    -8.2145  -8.2145  -8.1957  -8.1957   4.2878   4.2879   4.2987   4.2987
     5.7559   5.7563   5.7791   5.7794   7.0322   7.0322   7.0959   7.0959

          k =-0.4980-0.4980 0.2500 (  5140 PWs)   bands (ev):

   -64.8278 -64.8277 -64.8276 -64.8267 -31.6339 -31.6337 -31.6301 -31.6300
   -31.5839 -31.5838 -31.5823 -31.5822 -31.5775 -31.5772 -31.5734 -31.5732
    -8.1769  -8.1768  -8.1583  -8.1583   3.6285   3.6286   3.6522   3.6523
     6.5211   6.5213   6.5278   6.5280   7.0334   7.0334   7.0965   7.0966

          k =-0.4980-0.4980-0.5000 (  5136 PWs)   bands (ev):

   -64.8278 -64.8277 -64.8276 -64.8267 -31.6403 -31.6401 -31.6394 -31.6392
   -31.5767 -31.5765 -31.5757 -31.5756 -31.5747 -31.5746 -31.5739 -31.5737
    -8.1387  -8.1386  -8.1203  -8.1202   3.2029   3.2030   3.2323   3.2324
     7.0341   7.0341   7.0643   7.0645   7.0662   7.0665   7.0975   7.0975

          k = 0.2500-0.0010-0.2500 (  5156 PWs)   bands (ev):

   -64.8321 -64.8265 -64.8261 -64.8251 -31.6213 -31.6211 -31.6201 -31.6073
   -31.5946 -31.5941 -31.5933 -31.5877 -31.5866 -31.5863 -31.5758 -31.5688
    -8.9659  -8.0638  -8.0635  -7.8899   4.1613   4.1620   4.3289   5.0715
     5.8469   6.0536   6.0557   6.4851   6.4876   6.5838   7.1731   7.5062

          k = 0.2490 0.2490-0.2500 (  5146 PWs)   bands (ev):

   -64.8312 -64.8265 -64.8264 -64.8257 -31.6274 -31.6273 -31.6244 -31.6048
   -31.5920 -31.5919 -31.5917 -31.5859 -31.5840 -31.5840 -31.5735 -31.5707
    -8.8001  -8.0351  -8.0256  -8.0255   3.9857   4.0043   4.0044   5.0723
     5.8339   5.8412   5.8413   6.7016   6.7017   6.7454   7.3516   7.3859

          k =-0.5010 0.2520-0.2500 (  5138 PWs)   bands (ev):

   -64.8289 -64.8285 -64.8265 -64.8259 -31.6301 -31.6267 -31.6234 -31.6190
   -31.5935 -31.5930 -31.5820 -31.5799 -31.5797 -31.5785 -31.5772 -31.5757
    -8.4051  -8.3926  -8.0036  -7.9902   3.8079   3.8353   4.1878   4.2084
     5.8240   5.8366   6.7208   6.7606   6.8546   6.8819   7.0111   7.0234

     highest occupied level (ev):     7.7012

!    total energy              =    -608.39269025 Ry
     Harris-Foulkes estimate   =    -608.39269025 Ry
     estimated scf accuracy    <          7.0E-11 Ry

     The total energy is the sum of the following terms:

     one-electron contribution =    -303.55591426 Ry
     hartree contribution      =     168.06715203 Ry
     xc contribution           =     -97.84635118 Ry
     ewald contribution        =    -375.05757684 Ry

     convergence has been achieved in   3 iterations

     Forces acting on atoms (cartesian axes, Ry/au):

     atom    1 type  1   force =    -0.00001680   -0.00001680    0.00000161
     atom    2 type  1   force =     0.00000105   -0.00005928   -0.00000138
     atom    3 type  1   force =    -0.00005928    0.00000105   -0.00000138
     atom    4 type  1   force =     0.00010812    0.00010812    0.00000144
     atom    5 type  2   force =     0.00005232   -0.00008553    0.00000208
     atom    6 type  2   force =    -0.00008553    0.00005232    0.00000208
     atom    7 type  2   force =     0.00004759    0.00004759   -0.00000232
     atom    8 type  2   force =    -0.00004747   -0.00004747   -0.00000212

     Total force =     0.000245     Total SCF correction =     0.000019


     Computing stress (Cartesian axis) and pressure

          total   stress  (Ry/bohr**3)                   (kbar)     P=  -68.10
  -0.00046315  -0.00007551   0.00000000        -68.13    -11.11      0.00
  -0.00007551  -0.00046315   0.00000000        -11.11    -68.13      0.00
   0.00000000   0.00000000  -0.00046256          0.00      0.00    -68.04


     number of scf cycles    =   7
     number of bfgs steps    =   6

     energy   old            =    -608.3926901436 Ry
     energy   new            =    -608.3926902462 Ry

     CASE: energy  _new < energy  _old

     new trust radius        =       0.0003805920 bohr
     new conv_thr            =            1.0E-10 Ry


ATOMIC_POSITIONS (alat)
Mg      -0.000893008  -0.000893008  -0.000003815
Mg       0.000978312   0.499012513   0.500004076
Mg       0.499012513   0.000978312   0.500004076
Mg       0.500911753   0.500911753  -0.000004260
O        0.498992734   0.001003749  -0.000004005
O        0.001003749   0.498992734  -0.000004005
O       -0.000981902  -0.000981902   0.500003970
O        0.500975848   0.500975848   0.500003965



     Writing output data file MgO.0.007857.70.4.save
     NEW-OLD atomic charge density approx. for the potential

     Check: negative/imaginary core charge=   -0.000007    0.000000

     total cpu time spent up to now is       48.8 secs

     per-process dynamical memory:    53.8 Mb

     Self-consistent Calculation

     iteration #  1     ecut=    70.00 Ry     beta=0.70
     Davidson diagonalization with overlap
     ethr =  1.00E-06,  avg # of iterations =  2.0

     Threshold (ethr) on eigenvalues was too large:
     Diagonalizing with lowered threshold

     Davidson diagonalization with overlap
     ethr =  1.89E-11,  avg # of iterations =  3.6

     total cpu time spent up to now is       51.3 secs

     total energy              =    -608.39269034 Ry
     Harris-Foulkes estimate   =    -608.39269036 Ry
     estimated scf accuracy    <       0.00000002 Ry

     iteration #  2     ecut=    70.00 Ry     beta=0.70
     Davidson diagonalization with overlap
     ethr =  3.63E-11,  avg # of iterations =  2.0

     total cpu time spent up to now is       52.3 secs

     total energy              =    -608.39269035 Ry
     Harris-Foulkes estimate   =    -608.39269035 Ry
     estimated scf accuracy    <          1.3E-09 Ry

     iteration #  3     ecut=    70.00 Ry     beta=0.70
     Davidson diagonalization with overlap
     ethr =  2.07E-12,  avg # of iterations =  3.0

     total cpu time spent up to now is       53.4 secs

     total energy              =    -608.39269035 Ry
     Harris-Foulkes estimate   =    -608.39269035 Ry
     estimated scf accuracy    <          6.5E-10 Ry

     iteration #  4     ecut=    70.00 Ry     beta=0.70
     Davidson diagonalization with overlap
     ethr =  1.02E-12,  avg # of iterations =  3.0

     total cpu time spent up to now is       54.5 secs

     End of self-consistent calculation

          k = 0.0000 0.0000 0.0000 (  5141 PWs)   bands (ev):

   -64.8348 -64.8253 -64.8253 -64.8245 -31.6311 -31.6310 -31.6310 -31.5947
   -31.5936 -31.5936 -31.5930 -31.5929 -31.5918 -31.5664 -31.5641 -31.5637
    -9.3645  -7.9137  -7.9134  -7.9133   3.7583   3.7588   3.7588   6.3347
     6.3802   6.3802   6.3802   6.3805   6.4263   7.6440   7.6724   7.7012

          k = 0.0000 0.0000 0.2500 (  5153 PWs)   bands (ev):

   -64.8334 -64.8265 -64.8253 -64.8247 -31.6252 -31.6251 -31.6206 -31.5980
   -31.5980 -31.5943 -31.5942 -31.5906 -31.5871 -31.5783 -31.5731 -31.5695
    -9.1561  -8.1285  -7.8849  -7.8849   4.0488   4.0488   4.0955   5.8582
     5.8582   6.1708   6.1711   6.4995   6.5874   6.6589   7.4188   7.4830

          k = 0.0000 0.0000-0.5000 (  5122 PWs)   bands (ev):

   -64.8301 -64.8297 -64.8253 -64.8247 -31.6136 -31.6134 -31.6072 -31.6070
   -31.6020 -31.6020 -31.5912 -31.5912 -31.5826 -31.5823 -31.5787 -31.5785
    -8.6458  -8.6458  -7.8561  -7.8561   4.8425   4.8425   4.8531   4.8531
     5.1227   5.1229   5.9737   5.9740   6.9302   6.9302   7.0074   7.0075

          k =-0.0010 0.2500 0.0000 (  5164 PWs)   bands (ev):

   -64.8334 -64.8265 -64.8253 -64.8247 -31.6251 -31.6246 -31.6214 -31.5994
   -31.5985 -31.5935 -31.5933 -31.5893 -31.5890 -31.5794 -31.5717 -31.5711
    -9.1560  -8.1283  -7.8852  -7.8849   4.0485   4.0487   4.0954   5.8537
     5.8583   6.1708   6.1754   6.5430   6.5431   6.6584   7.4503   7.4511

          k =-0.0010 0.2500 0.2500 (  5156 PWs)   bands (ev):

   -64.8321 -64.8265 -64.8261 -64.8251 -31.6213 -31.6211 -31.6201 -31.6073
   -31.5946 -31.5941 -31.5933 -31.5877 -31.5866 -31.5863 -31.5758 -31.5688
    -8.9659  -8.0638  -8.0635  -7.8899   4.1613   4.1619   4.3289   5.0715
     5.8469   6.0536   6.0557   6.4851   6.4876   6.5838   7.1731   7.5062

          k =-0.0010 0.2500-0.5000 (  5148 PWs)   bands (ev):

   -64.8294 -64.8290 -64.8260 -64.8254 -31.6180 -31.6178 -31.6103 -31.6103
   -31.6066 -31.6064 -31.5854 -31.5851 -31.5839 -31.5838 -31.5753 -31.5752
    -8.5095  -8.5094  -7.9466  -7.9466   4.4187   4.4187   4.7510   4.7512
     5.0965   5.0965   6.5481   6.5483   6.5753   6.5753   7.0955   7.0955

          k = 0.0020-0.5000 0.0000 (  5124 PWs)   bands (ev):

   -64.8301 -64.8297 -64.8253 -64.8247 -31.6109 -31.6106 -31.6101 -31.6098
   -31.6021 -31.6021 -31.5918 -31.5917 -31.5807 -31.5804 -31.5802 -31.5800
    -8.6459  -8.6455  -7.8563  -7.8562   4.8472   4.8476   4.8479   4.8483
     5.1230   5.1233   5.9736   5.9740   6.9684   6.9685   6.9688   6.9689

          k = 0.0020-0.5000 0.2500 (  5156 PWs)   bands (ev):

   -64.8294 -64.8290 -64.8260 -64.8254 -31.6178 -31.6176 -31.6105 -31.6105
   -31.6071 -31.6069 -31.5853 -31.5851 -31.5842 -31.5841 -31.5754 -31.5753
    -8.5095  -8.5091  -7.9468  -7.9466   4.4181   4.4185   4.7512   4.7515
     5.0964   5.0971   6.5479   6.5482   6.5759   6.5764   7.0942   7.0943

          k = 0.0020-0.5000-0.5000 (  5184 PWs)   bands (ev):

   -64.8277 -64.8277 -64.8277 -64.8267 -31.6195 -31.6193 -31.6192 -31.6192
   -31.5971 -31.5969 -31.5969 -31.5966 -31.5761 -31.5759 -31.5758 -31.5758
    -8.2053  -8.2052  -8.2050  -8.2049   4.2931   4.2933   4.2935   4.2936
     5.7675   5.7678   5.7682   5.7685   7.0635   7.0637   7.0638   7.0639

          k = 0.2490 0.2490 0.0000 (  5155 PWs)   bands (ev):

   -64.8322 -64.8264 -64.8261 -64.8251 -31.6234 -31.6232 -31.6199 -31.6054
   -31.5943 -31.5943 -31.5904 -31.5885 -31.5853 -31.5851 -31.5758 -31.5710
    -8.9699  -8.0587  -8.0586  -7.8949   4.1596   4.1597   4.3245   5.0471
     5.8337   6.0621   6.0624   6.4765   6.4765   6.6254   7.1656   7.5338

          k = 0.2490 0.2490 0.2500 (  5146 PWs)   bands (ev):

   -64.8312 -64.8265 -64.8264 -64.8257 -31.6274 -31.6273 -31.6244 -31.6048
   -31.5920 -31.5919 -31.5917 -31.5859 -31.5840 -31.5840 -31.5735 -31.5707
    -8.8001  -8.0351  -8.0256  -8.0255   3.9857   4.0043   4.0044   5.0723
     5.8340   5.8412   5.8413   6.7016   6.7017   6.7454   7.3516   7.3859

          k = 0.2490 0.2490-0.5000 (  5124 PWs)   bands (ev):

   -64.8290 -64.8286 -64.8264 -64.8258 -31.6302 -31.6300 -31.6202 -31.6201
   -31.5903 -31.5900 -31.5816 -31.5816 -31.5796 -31.5794 -31.5765 -31.5764
    -8.4031  -8.4031  -7.9921  -7.9920   3.8296   3.8297   4.1797   4.1798
     5.8201   5.8201   6.7365   6.7367   6.8644   6.8645   7.0517   7.0517

          k = 0.2520-0.5010 0.0000 (  5153 PWs)   bands (ev):

   -64.8294 -64.8290 -64.8260 -64.8254 -31.6204 -31.6150 -31.6130 -31.6077
   -31.6072 -31.6069 -31.5858 -31.5853 -31.5850 -31.5820 -31.5772 -31.5737
    -8.5156  -8.5030  -7.9536  -7.9398   4.4098   4.4271   4.7477   4.7550
     5.0893   5.1035   6.5209   6.5661   6.5758   6.5859   7.0739   7.1152

          k = 0.2520-0.5010 0.2500 (  5138 PWs)   bands (ev):

   -64.8289 -64.8285 -64.8265 -64.8259 -31.6301 -31.6267 -31.6234 -31.6190
   -31.5935 -31.5930 -31.5820 -31.5799 -31.5797 -31.5785 -31.5772 -31.5757
    -8.4051  -8.3926  -8.0036  -7.9902   3.8079   3.8353   4.1878   4.2084
     5.8240   5.8366   6.7208   6.7606   6.8546   6.8819   7.0111   7.0234

          k = 0.2520-0.5010-0.5000 (  5144 PWs)   bands (ev):

   -64.8278 -64.8277 -64.8276 -64.8267 -31.6338 -31.6337 -31.6302 -31.6300
   -31.5844 -31.5842 -31.5825 -31.5823 -31.5756 -31.5754 -31.5750 -31.5749
    -8.1740  -8.1739  -8.1612  -8.1612   3.6259   3.6259   3.6550   3.6551
     6.5037   6.5037   6.5455   6.5455   7.0584   7.0586   7.0709   7.0711

          k = 0.2510-0.2510 0.0000 (  5159 PWs)   bands (ev):

   -64.8321 -64.8266 -64.8262 -64.8250 -31.6197 -31.6192 -31.6191 -31.6102
   -31.5948 -31.5945 -31.5945 -31.5881 -31.5880 -31.5862 -31.5761 -31.5673
    -8.9618  -8.0685  -8.0685  -7.8854   4.1636   4.1636   4.3330   5.0958
     5.8610   6.0492   6.0495   6.4935   6.4935   6.5430   7.1807   7.4775

          k = 0.2510-0.2510 0.2500 (  5154 PWs)   bands (ev):

   -64.8311 -64.8266 -64.8265 -64.8257 -31.6262 -31.6233 -31.6232 -31.6072
   -31.5959 -31.5958 -31.5955 -31.5837 -31.5837 -31.5824 -31.5722 -31.5700
    -8.7920  -8.0353  -8.0353  -8.0260   3.9968   3.9969   4.0154   5.1065
     5.8509   5.8510   5.8579   6.6664   6.7097   6.7098   7.3252   7.3592

          k = 0.2510-0.2510-0.5000 (  5148 PWs)   bands (ev):

   -64.8289 -64.8285 -64.8265 -64.8259 -31.6266 -31.6264 -31.6226 -31.6225
   -31.5962 -31.5960 -31.5801 -31.5800 -31.5790 -31.5789 -31.5763 -31.5761
    -8.3948  -8.3947  -8.0017  -8.0016   3.8136   3.8136   4.2163   4.2165
     5.8412   5.8412   6.7442   6.7444   6.8734   6.8736   6.9811   6.9811

          k =-0.4980-0.4980 0.0000 (  5188 PWs)   bands (ev):

   -64.8278 -64.8277 -64.8276 -64.8267 -31.6223 -31.6221 -31.6167 -31.6164
   -31.5973 -31.5971 -31.5970 -31.5968 -31.5774 -31.5771 -31.5748 -31.5745
    -8.2145  -8.2145  -8.1957  -8.1957   4.2878   4.2879   4.2987   4.2987
     5.7560   5.7563   5.7791   5.7794   7.0322   7.0322   7.0959   7.0959

          k =-0.4980-0.4980 0.2500 (  5140 PWs)   bands (ev):

   -64.8278 -64.8277 -64.8276 -64.8267 -31.6339 -31.6337 -31.6301 -31.6300
   -31.5839 -31.5838 -31.5823 -31.5822 -31.5775 -31.5772 -31.5734 -31.5732
    -8.1769  -8.1768  -8.1583  -8.1583   3.6285   3.6285   3.6522   3.6523
     6.5211   6.5213   6.5278   6.5280   7.0334   7.0334   7.0965   7.0965

          k =-0.4980-0.4980-0.5000 (  5136 PWs)   bands (ev):

   -64.8278 -64.8277 -64.8276 -64.8267 -31.6403 -31.6401 -31.6394 -31.6392
   -31.5767 -31.5765 -31.5757 -31.5756 -31.5747 -31.5746 -31.5739 -31.5737
    -8.1387  -8.1386  -8.1203  -8.1202   3.2029   3.2030   3.2323   3.2324
     7.0341   7.0341   7.0643   7.0645   7.0662   7.0665   7.0975   7.0975

          k = 0.2500-0.0010-0.2500 (  5156 PWs)   bands (ev):

   -64.8321 -64.8265 -64.8261 -64.8251 -31.6213 -31.6211 -31.6201 -31.6073
   -31.5946 -31.5941 -31.5933 -31.5877 -31.5866 -31.5863 -31.5758 -31.5688
    -8.9659  -8.0638  -8.0635  -7.8899   4.1613   4.1619   4.3289   5.0715
     5.8469   6.0536   6.0557   6.4851   6.4876   6.5838   7.1731   7.5062

          k = 0.2490 0.2490-0.2500 (  5146 PWs)   bands (ev):

   -64.8312 -64.8265 -64.8264 -64.8257 -31.6274 -31.6273 -31.6244 -31.6048
   -31.5920 -31.5919 -31.5917 -31.5859 -31.5840 -31.5840 -31.5735 -31.5707
    -8.8001  -8.0351  -8.0256  -8.0255   3.9857   4.0043   4.0044   5.0723
     5.8340   5.8412   5.8413   6.7016   6.7017   6.7454   7.3516   7.3859

          k =-0.5010 0.2520-0.2500 (  5138 PWs)   bands (ev):

   -64.8289 -64.8285 -64.8265 -64.8259 -31.6301 -31.6267 -31.6234 -31.6190
   -31.5935 -31.5930 -31.5820 -31.5799 -31.5797 -31.5785 -31.5772 -31.5757
    -8.4051  -8.3926  -8.0036  -7.9902   3.8079   3.8353   4.1878   4.2084
     5.8240   5.8366   6.7208   6.7606   6.8546   6.8819   7.0111   7.0234

     highest occupied level (ev):     7.7012

!    total energy              =    -608.39269035 Ry
     Harris-Foulkes estimate   =    -608.39269035 Ry
     estimated scf accuracy    <          5.9E-11 Ry

     The total energy is the sum of the following terms:

     one-electron contribution =    -303.55589514 Ry
     hartree contribution      =     168.06714237 Ry
     xc contribution           =     -97.84635089 Ry
     ewald contribution        =    -375.05758668 Ry

     convergence has been achieved in   4 iterations

     Forces acting on atoms (cartesian axes, Ry/au):

     atom    1 type  1   force =     0.00000158    0.00000158    0.00000082
     atom    2 type  1   force =    -0.00000669   -0.00003141   -0.00000077
     atom    3 type  1   force =    -0.00003141   -0.00000669   -0.00000077
     atom    4 type  1   force =     0.00005596    0.00005596    0.00000083
     atom    5 type  2   force =     0.00002809   -0.00003751    0.00000040
     atom    6 type  2   force =    -0.00003751    0.00002809    0.00000040
     atom    7 type  2   force =     0.00002372    0.00002372   -0.00000038
     atom    8 type  2   force =    -0.00003375   -0.00003375   -0.00000054

     Total force =     0.000127     Total SCF correction =     0.000013
     SCF correction compared to forces is large: reduce conv_thr to get better values


     Computing stress (Cartesian axis) and pressure

          total   stress  (Ry/bohr**3)                   (kbar)     P=  -68.10
  -0.00046315  -0.00007551  -0.00000000        -68.13    -11.11     -0.00
  -0.00007551  -0.00046315  -0.00000000        -11.11    -68.13     -0.00
  -0.00000000  -0.00000000  -0.00046256         -0.00     -0.00    -68.04


     bfgs converged in   8 scf cycles and   7 bfgs steps
     (criteria: energy <  1.0E-05 Ry, force <  1.0E-04 Ry/Bohr)

     End of BFGS Geometry Optimization

     Final energy   =    -608.3926903464 Ry
Begin final coordinates

ATOMIC_POSITIONS (alat)
Mg      -0.000893008  -0.000893008  -0.000003815
Mg       0.000978312   0.499012513   0.500004076
Mg       0.499012513   0.000978312   0.500004076
Mg       0.500911753   0.500911753  -0.000004260
O        0.498992734   0.001003749  -0.000004005
O        0.001003749   0.498992734  -0.000004005
O       -0.000981902  -0.000981902   0.500003970
O        0.500975848   0.500975848   0.500003965
End final coordinates



     Writing output data file MgO.0.007857.70.4.save
 
     init_run     :      0.45s CPU      0.48s WALL (       1 calls)
     electrons    :     48.56s CPU     49.31s WALL (       8 calls)
     update_pot   :      0.79s CPU      0.80s WALL (       7 calls)
     forces       :      1.13s CPU      1.14s WALL (       8 calls)
     stress       :      2.62s CPU      2.62s WALL (       8 calls)

     Called by init_run:
     wfcinit      :      0.33s CPU      0.35s WALL (       1 calls)
     potinit      :      0.05s CPU      0.05s WALL (       1 calls)

     Called by electrons:
     c_bands      :     42.43s CPU     43.05s WALL (      46 calls)
     sum_band     :      5.85s CPU      5.96s WALL (      46 calls)
     v_of_rho     :      0.24s CPU      0.25s WALL (      47 calls)
     mix_rho      :      0.03s CPU      0.03s WALL (      46 calls)

     Called by c_bands:
     init_us_2    :      0.64s CPU      0.65s WALL (    2616 calls)
     cegterg      :     39.49s CPU     40.08s WALL (    1104 calls)

     Called by sum_band:

     Called by *egterg:
     h_psi        :     28.85s CPU     29.42s WALL (    3766 calls)
     g_psi        :      0.22s CPU      0.22s WALL (    2638 calls)
     cdiaghg      :      5.65s CPU      5.66s WALL (    3406 calls)

     Called by h_psi:
     h_psi:pot    :     28.73s CPU     29.27s WALL (    3766 calls)
     h_psi:calbec :      1.62s CPU      1.62s WALL (    3766 calls)
     vloc_psi     :     25.75s CPU     26.27s WALL (    3766 calls)
     add_vuspsi   :      1.35s CPU      1.36s WALL (    3766 calls)

     General routines
     calbec       :      2.15s CPU      2.15s WALL (    4726 calls)
     fft          :      0.26s CPU      0.27s WALL (     730 calls)
     fftw         :     28.56s CPU     28.75s WALL (  222722 calls)
     davcio       :      0.00s CPU      0.00s WALL (      24 calls)
 
     Parallel routines
     fft_scatter  :      8.05s CPU      7.78s WALL (  223452 calls)
 
     PWSCF        :    54.07s CPU        55.02s WALL

 
   This run was terminated on:  19:13:12  22Apr2018            

=------------------------------------------------------------------------------=
   JOB DONE.
=------------------------------------------------------------------------------=
