
     Program PWSCF v.6.1 (svn rev. 13369) starts on 22Apr2018 at 19: 9:36 

     This program is part of the open-source Quantum ESPRESSO suite
     for quantum simulation of materials; please cite
         "P. Giannozzi et al., J. Phys.:Condens. Matter 21 395502 (2009);
          URL http://www.quantum-espresso.org", 
     in publications or presentations arising from this work. More details at
     http://www.quantum-espresso.org/quote

     Parallel version (MPI), running on     8 processors
     R & G space division:  proc/nbgrp/npool/nimage =       8
     Waiting for input...
     Reading input from standard input
Warning: card       &CELL ignored
Warning: card          CELL_DYNAMICS = 'BFGS' ignored
Warning: card          PRESS = 0.0D0 ignored
Warning: card          PRESS_CONV_THR = 0.01D0 ignored
Warning: card       / ignored

     Current dimensions of program PWSCF are:
     Max number of different atomic species (ntypx) = 10
     Max number of k-points (npk) =  40000
     Max angular momentum in pseudopotentials (lmaxx) =  3

     Subspace diagonalization in iterative solution of the eigenvalue problem:
     a serial algorithm will be used

 
     Parallelization info
     --------------------
     sticks:   dense  smooth     PW     G-vecs:    dense   smooth      PW
     Min         181     181     52                 5155     5155     816
     Max         182     182     53                 5157     5157     819
     Sum        1449    1449    421                41251    41251    6543
 


     bravais-lattice index     =            0
     lattice parameter (alat)  =       8.0448  a.u.
     unit-cell volume          =     520.6402 (a.u.)^3
     number of atoms/cell      =            8
     number of atomic types    =            2
     number of electrons       =        64.00
     number of Kohn-Sham states=           32
     kinetic-energy cutoff     =      70.0000  Ry
     charge density cutoff     =     280.0000  Ry
     convergence threshold     =      1.0E-08
     mixing beta               =       0.7000
     number of iterations used =            8  plain     mixing
     Exchange-correlation      = PBE ( 1  4  3  4 0 0)
     nstep                     =           50


     celldm(1)=   8.044750  celldm(2)=   0.000000  celldm(3)=   0.000000
     celldm(4)=   0.000000  celldm(5)=   0.000000  celldm(6)=   0.000000

     crystal axes: (cart. coord. in units of alat)
               a(1) = (   1.000000   0.001071   0.000000 )  
               a(2) = (   0.001071   1.000000   0.000000 )  
               a(3) = (   0.000000   0.000000   1.000001 )  

     reciprocal axes: (cart. coord. in units 2 pi/alat)
               b(1) = (  1.000001 -0.001072  0.000000 )  
               b(2) = ( -0.001072  1.000001  0.000000 )  
               b(3) = (  0.000000  0.000000  0.999999 )  


     PseudoPot. # 1 for Mg read from file:
     ../pseudo/Mg.pbe.UPF
     MD5 check sum: 4c04d8c6e0476e83eaecaf72fa8acc4d
     Pseudo is Norm-conserving, Zval = 10.0
     Generated using ONCVPSP code by D. R. Hamann
     Using radial grid of 1510 points,  4 beta functions with: 
                l(1) =   0
                l(2) =   0
                l(3) =   1
                l(4) =   1

     PseudoPot. # 2 for O  read from file:
     ../pseudo/O.pbe.UPF
     MD5 check sum: 3e3f909f7470e8921608ab6b1f57bbae
     Pseudo is Norm-conserving + core correction, Zval =  6.0
     Generated using ONCVPSP code by D. R. Hamann
     Using radial grid of  936 points,  5 beta functions with: 
                l(1) =   0
                l(2) =   0
                l(3) =   1
                l(4) =   1
                l(5) =   2

     atomic species   valence    mass     pseudopotential
        Mg            10.00    24.30500     Mg( 1.00)
        O              6.00    15.99940     O ( 1.00)

      4 Sym. Ops. (no inversion) found



   Cartesian axes

     site n.     atom                  positions (alat units)
         1           Mg  tau(   1) = (   0.0000000   0.0000000   0.0000000  )
         2           Mg  tau(   2) = (   0.0000000   0.5000000   0.5000000  )
         3           Mg  tau(   3) = (   0.5000000   0.0000000   0.5000000  )
         4           Mg  tau(   4) = (   0.5000000   0.5000000   0.0000000  )
         5           O   tau(   5) = (   0.5000000   0.0000000   0.0000000  )
         6           O   tau(   6) = (   0.0000000   0.5000000   0.0000000  )
         7           O   tau(   7) = (   0.0000000   0.0000000   0.5000000  )
         8           O   tau(   8) = (   0.5000000   0.5000000   0.5000000  )

     number of k points=    21
                       cart. coord. in units 2pi/alat
        k(    1) = (   0.0000000   0.0000000   0.0000000), wk =   0.0312500
        k(    2) = (   0.0000000   0.0000000   0.2499997), wk =   0.0625000
        k(    3) = (   0.0000000   0.0000000  -0.4999994), wk =   0.0312500
        k(    4) = (  -0.0002679   0.2500003   0.0000000), wk =   0.1250000
        k(    5) = (  -0.0002679   0.2500003   0.2499997), wk =   0.2500000
        k(    6) = (  -0.0002679   0.2500003  -0.4999994), wk =   0.1250000
        k(    7) = (   0.0005358  -0.5000006   0.0000000), wk =   0.0625000
        k(    8) = (   0.0005358  -0.5000006   0.2499997), wk =   0.1250000
        k(    9) = (   0.0005358  -0.5000006  -0.4999994), wk =   0.0625000
        k(   10) = (   0.2497324   0.2497324   0.0000000), wk =   0.0625000
        k(   11) = (   0.2497324   0.2497324   0.2499997), wk =   0.1250000
        k(   12) = (   0.2497324   0.2497324  -0.4999994), wk =   0.0625000
        k(   13) = (   0.2505360  -0.5002684   0.0000000), wk =   0.1250000
        k(   14) = (   0.2505360  -0.5002684   0.2499997), wk =   0.2500000
        k(   15) = (   0.2505360  -0.5002684  -0.4999994), wk =   0.1250000
        k(   16) = (   0.2502682  -0.2502682   0.0000000), wk =   0.0625000
        k(   17) = (   0.2502682  -0.2502682   0.2499997), wk =   0.1250000
        k(   18) = (   0.2502682  -0.2502682  -0.4999994), wk =   0.0625000
        k(   19) = (  -0.4994648  -0.4994648   0.0000000), wk =   0.0312500
        k(   20) = (  -0.4994648  -0.4994648   0.2499997), wk =   0.0625000
        k(   21) = (  -0.4994648  -0.4994648  -0.4999994), wk =   0.0312500

     Dense  grid:    41251 G-vectors     FFT dimensions: (  45,  45,  45)

     Estimated max dynamical RAM per process >      12.51MB

     Estimated total allocated dynamical RAM >     100.05MB

     Check: negative/imaginary core charge=   -0.000008    0.000000

     Initial potential from superposition of free atoms

     starting charge   63.99678, renormalised to   64.00000
     Starting wfc are   36 randomized atomic wfcs

     total cpu time spent up to now is        0.6 secs

     per-process dynamical memory:    48.0 Mb

     Self-consistent Calculation

     iteration #  1     ecut=    70.00 Ry     beta=0.70
     Davidson diagonalization with overlap
     ethr =  1.00E-02,  avg # of iterations =  2.0

     total cpu time spent up to now is        1.4 secs

     total energy              =    -607.71823271 Ry
     Harris-Foulkes estimate   =    -608.84359532 Ry
     estimated scf accuracy    <       1.56346048 Ry

     iteration #  2     ecut=    70.00 Ry     beta=0.70
     Davidson diagonalization with overlap
     ethr =  2.44E-03,  avg # of iterations =  2.9

     total cpu time spent up to now is        2.4 secs

     total energy              =    -608.10524955 Ry
     Harris-Foulkes estimate   =    -608.80483153 Ry
     estimated scf accuracy    <       1.45287013 Ry

     iteration #  3     ecut=    70.00 Ry     beta=0.70
     Davidson diagonalization with overlap
     ethr =  2.27E-03,  avg # of iterations =  2.0

     total cpu time spent up to now is        3.3 secs

     total energy              =    -608.39139168 Ry
     Harris-Foulkes estimate   =    -608.39203354 Ry
     estimated scf accuracy    <       0.00673783 Ry

     iteration #  4     ecut=    70.00 Ry     beta=0.70
     Davidson diagonalization with overlap
     ethr =  1.05E-05,  avg # of iterations =  2.0

     total cpu time spent up to now is        4.2 secs

     total energy              =    -608.39286664 Ry
     Harris-Foulkes estimate   =    -608.39291225 Ry
     estimated scf accuracy    <       0.00011316 Ry

     iteration #  5     ecut=    70.00 Ry     beta=0.70
     Davidson diagonalization with overlap
     ethr =  1.77E-07,  avg # of iterations =  1.4

     total cpu time spent up to now is        4.9 secs

     total energy              =    -608.39287394 Ry
     Harris-Foulkes estimate   =    -608.39287254 Ry
     estimated scf accuracy    <       0.00001062 Ry

     iteration #  6     ecut=    70.00 Ry     beta=0.70
     Davidson diagonalization with overlap
     ethr =  1.66E-08,  avg # of iterations =  2.0

     total cpu time spent up to now is        5.9 secs

     total energy              =    -608.39287560 Ry
     Harris-Foulkes estimate   =    -608.39287610 Ry
     estimated scf accuracy    <       0.00000129 Ry

     iteration #  7     ecut=    70.00 Ry     beta=0.70
     Davidson diagonalization with overlap
     ethr =  2.02E-09,  avg # of iterations =  2.0

     total cpu time spent up to now is        6.7 secs

     total energy              =    -608.39287561 Ry
     Harris-Foulkes estimate   =    -608.39287574 Ry
     estimated scf accuracy    <       0.00000032 Ry

     iteration #  8     ecut=    70.00 Ry     beta=0.70
     Davidson diagonalization with overlap
     ethr =  5.08E-10,  avg # of iterations =  2.0

     total cpu time spent up to now is        7.5 secs

     total energy              =    -608.39287562 Ry
     Harris-Foulkes estimate   =    -608.39287565 Ry
     estimated scf accuracy    <       0.00000005 Ry

     iteration #  9     ecut=    70.00 Ry     beta=0.70
     Davidson diagonalization with overlap
     ethr =  7.94E-11,  avg # of iterations =  2.0

     total cpu time spent up to now is        8.5 secs

     End of self-consistent calculation

          k = 0.0000 0.0000 0.0000 (  5137 PWs)   bands (ev):

   -64.8343 -64.8248 -64.8248 -64.8240 -31.6308 -31.6308 -31.6308 -31.5937
   -31.5933 -31.5932 -31.5932 -31.5932 -31.5927 -31.5638 -31.5631 -31.5624
    -9.3647  -7.9138  -7.9137  -7.9137   3.7581   3.7581   3.7581   6.3676
     6.3799   6.3800   6.3801   6.3802   6.3926   7.6648   7.6725   7.6802

          k = 0.0000 0.0000 0.2500 (  5157 PWs)   bands (ev):

   -64.8329 -64.8260 -64.8248 -64.8242 -31.6240 -31.6240 -31.6203 -31.5979
   -31.5979 -31.5938 -31.5937 -31.5894 -31.5883 -31.5780 -31.5719 -31.5707
    -9.1562  -8.1286  -7.8853  -7.8853   4.0485   4.0486   4.0955   5.8581
     5.8581   6.1705   6.1708   6.5308   6.5547   6.6589   7.4416   7.4589

          k = 0.0000 0.0000-0.5000 (  5110 PWs)   bands (ev):

   -64.8297 -64.8292 -64.8248 -64.8242 -31.6103 -31.6101 -31.6082 -31.6079
   -31.6018 -31.6017 -31.5906 -31.5905 -31.5810 -31.5807 -31.5798 -31.5796
    -8.6460  -8.6459  -7.8565  -7.8565   4.8464   4.8465   4.8494   4.8494
     5.1227   5.1229   5.9734   5.9737   6.9578   6.9579   6.9788   6.9789

          k =-0.0003 0.2500 0.0000 (  5159 PWs)   bands (ev):

   -64.8329 -64.8260 -64.8248 -64.8242 -31.6242 -31.6242 -31.6203 -31.5981
   -31.5981 -31.5937 -31.5934 -31.5889 -31.5888 -31.5781 -31.5713 -31.5712
    -9.1562  -8.1286  -7.8853  -7.8852   4.0484   4.0484   4.0955   5.8577
     5.8581   6.1706   6.1711   6.5427   6.5427   6.6589   7.4502   7.4503

          k =-0.0003 0.2500 0.2500 (  5162 PWs)   bands (ev):

   -64.8317 -64.8260 -64.8256 -64.8246 -31.6212 -31.6208 -31.6194 -31.6069
   -31.5940 -31.5938 -31.5928 -31.5877 -31.5867 -31.5864 -31.5752 -31.5682
    -8.9661  -8.0647  -8.0630  -7.8903   4.1598   4.1627   4.3287   5.0713
     5.8470   6.0533   6.0576   6.4838   6.4858   6.5834   7.1733   7.5056

          k =-0.0003 0.2500-0.5000 (  5152 PWs)   bands (ev):

   -64.8289 -64.8285 -64.8255 -64.8249 -31.6172 -31.6170 -31.6099 -31.6099
   -31.6066 -31.6064 -31.5849 -31.5846 -31.5836 -31.5835 -31.5753 -31.5751
    -8.5096  -8.5096  -7.9469  -7.9469   4.4184   4.4185   4.7511   4.7513
     5.0962   5.0963   6.5478   6.5480   6.5757   6.5758   7.0941   7.0942

          k = 0.0005-0.5000 0.0000 (  5110 PWs)   bands (ev):

   -64.8297 -64.8292 -64.8248 -64.8242 -31.6093 -31.6092 -31.6090 -31.6090
   -31.6018 -31.6017 -31.5905 -31.5904 -31.5804 -31.5804 -31.5802 -31.5801
    -8.6460  -8.6459  -7.8565  -7.8564   4.8479   4.8479   4.8479   4.8480
     5.1227   5.1229   5.9734   5.9738   6.9683   6.9683   6.9683   6.9683

          k = 0.0005-0.5000 0.2500 (  5150 PWs)   bands (ev):

   -64.8289 -64.8285 -64.8255 -64.8249 -31.6171 -31.6170 -31.6099 -31.6099
   -31.6066 -31.6064 -31.5848 -31.5846 -31.5836 -31.5836 -31.5751 -31.5749
    -8.5096  -8.5095  -7.9470  -7.9469   4.4183   4.4184   4.7511   4.7513
     5.0963   5.0963   6.5477   6.5480   6.5758   6.5758   7.0941   7.0942

          k = 0.0005-0.5000-0.5000 (  5216 PWs)   bands (ev):

   -64.8272 -64.8272 -64.8272 -64.8262 -31.6193 -31.6191 -31.6189 -31.6189
   -31.5973 -31.5971 -31.5970 -31.5968 -31.5767 -31.5765 -31.5764 -31.5764
    -8.2065  -8.2065  -8.2042  -8.2042   4.2911   4.2912   4.2953   4.2955
     5.7644   5.7644   5.7699   5.7699   7.0620   7.0622   7.0644   7.0645

          k = 0.2497 0.2497 0.0000 (  5161 PWs)   bands (ev):

   -64.8317 -64.8260 -64.8256 -64.8246 -31.6212 -31.6210 -31.6193 -31.6062
   -31.5942 -31.5942 -31.5920 -31.5882 -31.5863 -31.5862 -31.5752 -31.5689
    -8.9672  -8.0625  -8.0625  -7.8916   4.1610   4.1610   4.3275   5.0647
     5.8434   6.0569   6.0572   6.4823   6.4824   6.5946   7.1712   7.5132

          k = 0.2497 0.2497 0.2500 (  5154 PWs)   bands (ev):

   -64.8307 -64.8260 -64.8260 -64.8252 -31.6255 -31.6253 -31.6247 -31.6056
   -31.5932 -31.5929 -31.5926 -31.5842 -31.5840 -31.5840 -31.5714 -31.5710
    -8.7973  -8.0322  -8.0294  -8.0291   3.9960   4.0015   4.0018   5.0845
     5.8403   5.8445   5.8465   6.7041   6.7043   6.7163   7.3542   7.3636

          k = 0.2497 0.2497-0.5000 (  5128 PWs)   bands (ev):

   -64.8285 -64.8280 -64.8260 -64.8254 -31.6280 -31.6278 -31.6205 -31.6204
   -31.5918 -31.5916 -31.5805 -31.5805 -31.5783 -31.5780 -31.5772 -31.5771
    -8.4003  -8.4002  -7.9958  -7.9958   3.8237   3.8238   4.1929   4.1930
     5.8276   5.8276   6.7392   6.7394   6.8675   6.8676   7.0255   7.0256

          k = 0.2505-0.5003 0.0000 (  5148 PWs)   bands (ev):

   -64.8289 -64.8285 -64.8255 -64.8249 -31.6178 -31.6161 -31.6106 -31.6091
   -31.6066 -31.6064 -31.5848 -31.5844 -31.5839 -31.5830 -31.5756 -31.5747
    -8.5113  -8.5079  -7.9488  -7.9450   4.4161   4.4207   4.7502   4.7522
     5.0944   5.0982   6.5404   6.5554   6.5731   6.5785   7.0885   7.0997

          k = 0.2505-0.5003 0.2500 (  5134 PWs)   bands (ev):

   -64.8284 -64.8280 -64.8260 -64.8254 -31.6279 -31.6272 -31.6215 -31.6202
   -31.5927 -31.5925 -31.5807 -31.5801 -31.5782 -31.5778 -31.5773 -31.5769
    -8.4008  -8.3974  -7.9990  -7.9953   3.8177   3.8253   4.1951   4.2007
     5.8287   5.8321   6.7349   6.7457   6.8650   6.8725   7.0144   7.0177

          k = 0.2505-0.5003-0.5000 (  5138 PWs)   bands (ev):

   -64.8272 -64.8272 -64.8272 -64.8262 -31.6319 -31.6317 -31.6307 -31.6306
   -31.5830 -31.5828 -31.5824 -31.5822 -31.5753 -31.5752 -31.5749 -31.5749
    -8.1697  -8.1697  -8.1659  -8.1659   3.6360   3.6361   3.6446   3.6447
     6.5183   6.5184   6.5304   6.5305   7.0624   7.0626   7.0662   7.0664

          k = 0.2503-0.2503 0.0000 (  5161 PWs)   bands (ev):

   -64.8316 -64.8260 -64.8257 -64.8246 -31.6204 -31.6203 -31.6193 -31.6077
   -31.5942 -31.5941 -31.5935 -31.5872 -31.5868 -31.5867 -31.5752 -31.5676
    -8.9650  -8.0652  -8.0652  -7.8890   4.1619   4.1619   4.3298   5.0779
     5.8508   6.0535   6.0538   6.4870   6.4871   6.5723   7.1754   7.4980

          k = 0.2503-0.2503 0.2500 (  5158 PWs)   bands (ev):

   -64.8306 -64.8260 -64.8260 -64.8252 -31.6250 -31.6244 -31.6242 -31.6063
   -31.5942 -31.5940 -31.5938 -31.5839 -31.5839 -31.5835 -31.5712 -31.5708
    -8.7951  -8.0323  -8.0321  -8.0292   3.9991   3.9994   4.0048   5.0938
     5.8449   5.8470   5.8511   6.6946   6.7063   6.7065   7.3471   7.3564

          k = 0.2503-0.2503-0.5000 (  5140 PWs)   bands (ev):

   -64.8284 -64.8280 -64.8260 -64.8254 -31.6274 -31.6273 -31.6212 -31.6211
   -31.5935 -31.5932 -31.5803 -31.5803 -31.5779 -31.5779 -31.5771 -31.5769
    -8.3980  -8.3979  -7.9985  -7.9985   3.8193   3.8193   4.2029   4.2030
     5.8332   5.8333   6.7412   6.7414   6.8700   6.8701   7.0064   7.0065

          k =-0.4995-0.4995 0.0000 (  5216 PWs)   bands (ev):

   -64.8273 -64.8272 -64.8272 -64.8262 -31.6201 -31.6199 -31.6182 -31.6179
   -31.5973 -31.5971 -31.5971 -31.5968 -31.5772 -31.5770 -31.5760 -31.5758
    -8.2079  -8.2079  -8.2028  -8.2028   4.2918   4.2919   4.2947   4.2947
     5.7638   5.7640   5.7702   5.7704   7.0546   7.0547   7.0719   7.0720

          k =-0.4995-0.4995 0.2500 (  5136 PWs)   bands (ev):

   -64.8272 -64.8272 -64.8272 -64.8262 -31.6317 -31.6315 -31.6306 -31.6305
   -31.5829 -31.5828 -31.5824 -31.5823 -31.5759 -31.5756 -31.5747 -31.5744
    -8.1703  -8.1703  -8.1653  -8.1653   3.6371   3.6372   3.6435   3.6436
     6.5233   6.5235   6.5252   6.5254   7.0558   7.0559   7.0730   7.0730

          k =-0.4995-0.4995-0.5000 (  5136 PWs)   bands (ev):

   -64.8272 -64.8272 -64.8272 -64.8262 -31.6405 -31.6404 -31.6381 -31.6379
   -31.5752 -31.5751 -31.5751 -31.5748 -31.5745 -31.5744 -31.5743 -31.5742
    -8.1323  -8.1323  -8.1271  -8.1271   3.2132   3.2133   3.2217   3.2218
     7.0564   7.0565   7.0651   7.0653   7.0653   7.0654   7.0742   7.0742

     highest occupied level (ev):     7.6802

!    total energy              =    -608.39287563 Ry
     Harris-Foulkes estimate   =    -608.39287563 Ry
     estimated scf accuracy    <          1.6E-09 Ry

     The total energy is the sum of the following terms:

     one-electron contribution =    -303.55790880 Ry
     hartree contribution      =     168.06817262 Ry
     xc contribution           =     -97.84640965 Ry
     ewald contribution        =    -375.05672980 Ry

     convergence has been achieved in   9 iterations

     Forces acting on atoms (cartesian axes, Ry/au):

     atom    1 type  1   force =    -0.00024862   -0.00024862    0.00000000
     atom    2 type  1   force =     0.00027709   -0.00025535    0.00000000
     atom    3 type  1   force =    -0.00025535    0.00027709    0.00000000
     atom    4 type  1   force =     0.00021750    0.00021750    0.00000000
     atom    5 type  2   force =    -0.00031733    0.00033654    0.00000000
     atom    6 type  2   force =     0.00033654   -0.00031733    0.00000000
     atom    7 type  2   force =    -0.00031359   -0.00031359    0.00000000
     atom    8 type  2   force =     0.00030376    0.00030376    0.00000000

     Total force =     0.001145     Total SCF correction =     0.000006


     Computing stress (Cartesian axis) and pressure

          total   stress  (Ry/bohr**3)                   (kbar)     P=  -68.03
  -0.00046278  -0.00002038   0.00000000        -68.08     -3.00      0.00
  -0.00002038  -0.00046278   0.00000000         -3.00    -68.08      0.00
   0.00000000   0.00000000  -0.00046175          0.00      0.00    -67.93


     BFGS Geometry Optimization

     number of scf cycles    =   1
     number of bfgs steps    =   0

     energy   new            =    -608.3928756296 Ry

     new trust radius        =       0.0004625486 bohr
     new conv_thr            =       0.0000000100 Ry


ATOMIC_POSITIONS (alat)
Mg      -0.000030905  -0.000030905   0.000000000
Mg       0.000034444   0.499968259   0.500000000
Mg       0.499968259   0.000034444   0.500000000
Mg       0.500027037   0.500027037   0.000000000
O        0.499960555   0.000041833   0.000000000
O        0.000041833   0.499960555   0.000000000
O       -0.000038981  -0.000038981   0.500000000
O        0.500037758   0.500037758   0.500000000



     Writing output data file MgO.0.002143.70.4.save
     NEW-OLD atomic charge density approx. for the potential

     Check: negative/imaginary core charge=   -0.000008    0.000000

     total cpu time spent up to now is        9.2 secs

     per-process dynamical memory:    48.5 Mb

     Self-consistent Calculation

     iteration #  1     ecut=    70.00 Ry     beta=0.70
     Davidson diagonalization with overlap
     ethr =  1.00E-06,  avg # of iterations =  2.0

     Threshold (ethr) on eigenvalues was too large:
     Diagonalizing with lowered threshold

     Davidson diagonalization with overlap
     ethr =  8.31E-11,  avg # of iterations =  3.1

     total cpu time spent up to now is       11.3 secs

     total energy              =    -608.39287683 Ry
     Harris-Foulkes estimate   =    -608.39287688 Ry
     estimated scf accuracy    <       0.00000009 Ry

     iteration #  2     ecut=    70.00 Ry     beta=0.70
     Davidson diagonalization with overlap
     ethr =  1.41E-10,  avg # of iterations =  2.0

     total cpu time spent up to now is       12.1 secs

     End of self-consistent calculation

          k = 0.0000 0.0000 0.0000 (  5137 PWs)   bands (ev):

   -64.8345 -64.8250 -64.8250 -64.8242 -31.6309 -31.6309 -31.6309 -31.5938
   -31.5934 -31.5934 -31.5933 -31.5933 -31.5929 -31.5639 -31.5633 -31.5626
    -9.3647  -7.9139  -7.9138  -7.9136   3.7581   3.7581   3.7581   6.3676
     6.3800   6.3800   6.3800   6.3801   6.3925   7.6648   7.6725   7.6802

          k = 0.0000 0.0000 0.2500 (  5157 PWs)   bands (ev):

   -64.8330 -64.8262 -64.8250 -64.8244 -31.6241 -31.6241 -31.6204 -31.5981
   -31.5981 -31.5939 -31.5939 -31.5895 -31.5885 -31.5782 -31.5720 -31.5708
    -9.1562  -8.1286  -7.8854  -7.8852   4.0485   4.0486   4.0955   5.8581
     5.8581   6.1706   6.1707   6.5307   6.5547   6.6589   7.4416   7.4589

          k = 0.0000 0.0000-0.5000 (  5110 PWs)   bands (ev):

   -64.8298 -64.8294 -64.8250 -64.8244 -31.6104 -31.6102 -31.6083 -31.6081
   -31.6019 -31.6019 -31.5907 -31.5906 -31.5811 -31.5809 -31.5800 -31.5798
    -8.6461  -8.6459  -7.8566  -7.8564   4.8464   4.8466   4.8493   4.8494
     5.1227   5.1228   5.9735   5.9736   6.9577   6.9580   6.9787   6.9790

          k =-0.0003 0.2500 0.0000 (  5159 PWs)   bands (ev):

   -64.8330 -64.8262 -64.8250 -64.8244 -31.6244 -31.6243 -31.6204 -31.5983
   -31.5982 -31.5939 -31.5935 -31.5890 -31.5890 -31.5782 -31.5714 -31.5713
    -9.1562  -8.1286  -7.8853  -7.8853   4.0484   4.0484   4.0955   5.8577
     5.8581   6.1706   6.1711   6.5427   6.5427   6.6588   7.4502   7.4503

          k =-0.0003 0.2500 0.2500 (  5162 PWs)   bands (ev):

   -64.8318 -64.8262 -64.8258 -64.8248 -31.6213 -31.6209 -31.6195 -31.6071
   -31.5941 -31.5940 -31.5929 -31.5878 -31.5868 -31.5866 -31.5753 -31.5684
    -8.9661  -8.0646  -8.0632  -7.8903   4.1600   4.1625   4.3287   5.0713
     5.8470   6.0536   6.0572   6.4840   6.4856   6.5834   7.1733   7.5056

          k =-0.0003 0.2500-0.5000 (  5152 PWs)   bands (ev):

   -64.8291 -64.8287 -64.8257 -64.8251 -31.6173 -31.6172 -31.6100 -31.6100
   -31.6068 -31.6065 -31.5850 -31.5848 -31.5837 -31.5837 -31.5754 -31.5752
    -8.5097  -8.5095  -7.9470  -7.9468   4.4183   4.4185   4.7511   4.7512
     5.0961   5.0963   6.5478   6.5479   6.5756   6.5758   7.0940   7.0942

          k = 0.0005-0.5000 0.0000 (  5110 PWs)   bands (ev):

   -64.8298 -64.8294 -64.8250 -64.8244 -31.6094 -31.6094 -31.6092 -31.6092
   -31.6019 -31.6019 -31.5907 -31.5906 -31.5806 -31.5805 -31.5803 -31.5803
    -8.6460  -8.6459  -7.8565  -7.8565   4.8478   4.8479   4.8479   4.8480
     5.1227   5.1229   5.9734   5.9737   6.9683   6.9683   6.9683   6.9683

          k = 0.0005-0.5000 0.2500 (  5150 PWs)   bands (ev):

   -64.8291 -64.8287 -64.8257 -64.8251 -31.6173 -31.6171 -31.6100 -31.6100
   -31.6067 -31.6065 -31.5850 -31.5847 -31.5838 -31.5837 -31.5752 -31.5750
    -8.5096  -8.5096  -7.9470  -7.9469   4.4183   4.4184   4.7511   4.7513
     5.0963   5.0963   6.5477   6.5480   6.5758   6.5758   7.0941   7.0941

          k = 0.0005-0.5000-0.5000 (  5216 PWs)   bands (ev):

   -64.8274 -64.8274 -64.8274 -64.8264 -31.6194 -31.6192 -31.6191 -31.6191
   -31.5974 -31.5973 -31.5972 -31.5969 -31.5768 -31.5767 -31.5765 -31.5765
    -8.2065  -8.2062  -8.2045  -8.2043   4.2914   4.2915   4.2950   4.2951
     5.7647   5.7649   5.7693   5.7696   7.0622   7.0623   7.0642   7.0643

          k = 0.2497 0.2497 0.0000 (  5161 PWs)   bands (ev):

   -64.8318 -64.8262 -64.8258 -64.8248 -31.6213 -31.6211 -31.6195 -31.6063
   -31.5944 -31.5943 -31.5922 -31.5883 -31.5864 -31.5863 -31.5754 -31.5690
    -8.9672  -8.0626  -8.0624  -7.8916   4.1610   4.1611   4.3275   5.0647
     5.8433   6.0570   6.0571   6.4823   6.4824   6.5946   7.1712   7.5131

          k = 0.2497 0.2497 0.2500 (  5154 PWs)   bands (ev):

   -64.8308 -64.8262 -64.8262 -64.8254 -31.6256 -31.6255 -31.6249 -31.6058
   -31.5933 -31.5930 -31.5928 -31.5843 -31.5841 -31.5841 -31.5715 -31.5711
    -8.7973  -8.0322  -8.0295  -8.0291   3.9961   4.0015   4.0016   5.0845
     5.8407   5.8444   5.8462   6.7042   6.7042   6.7163   7.3542   7.3636

          k = 0.2497 0.2497-0.5000 (  5128 PWs)   bands (ev):

   -64.8286 -64.8282 -64.8262 -64.8255 -31.6281 -31.6280 -31.6206 -31.6206
   -31.5919 -31.5917 -31.5807 -31.5806 -31.5784 -31.5782 -31.5773 -31.5772
    -8.4004  -8.4002  -7.9960  -7.9958   3.8236   3.8238   4.1929   4.1930
     5.8275   5.8277   6.7392   6.7393   6.8674   6.8676   7.0254   7.0257

          k = 0.2505-0.5003 0.0000 (  5148 PWs)   bands (ev):

   -64.8291 -64.8287 -64.8257 -64.8251 -31.6180 -31.6163 -31.6108 -31.6092
   -31.6068 -31.6065 -31.5849 -31.5846 -31.5840 -31.5832 -31.5757 -31.5748
    -8.5113  -8.5079  -7.9488  -7.9451   4.4161   4.4207   4.7502   4.7522
     5.0944   5.0982   6.5404   6.5554   6.5731   6.5785   7.0884   7.0997

          k = 0.2505-0.5003 0.2500 (  5134 PWs)   bands (ev):

   -64.8286 -64.8282 -64.8262 -64.8256 -31.6280 -31.6274 -31.6216 -31.6203
   -31.5929 -31.5926 -31.5808 -31.5802 -31.5783 -31.5780 -31.5775 -31.5770
    -8.4008  -8.3974  -7.9990  -7.9953   3.8177   3.8253   4.1951   4.2007
     5.8287   5.8321   6.7349   6.7457   6.8650   6.8724   7.0144   7.0177

          k = 0.2505-0.5003-0.5000 (  5138 PWs)   bands (ev):

   -64.8274 -64.8274 -64.8274 -64.8264 -31.6320 -31.6319 -31.6308 -31.6307
   -31.5832 -31.5830 -31.5825 -31.5823 -31.5755 -31.5753 -31.5751 -31.5750
    -8.1698  -8.1696  -8.1661  -8.1659   3.6361   3.6362   3.6444   3.6446
     6.5183   6.5185   6.5302   6.5305   7.0625   7.0626   7.0662   7.0663

          k = 0.2503-0.2503 0.0000 (  5161 PWs)   bands (ev):

   -64.8318 -64.8262 -64.8258 -64.8247 -31.6205 -31.6204 -31.6195 -31.6079
   -31.5943 -31.5943 -31.5936 -31.5873 -31.5869 -31.5868 -31.5753 -31.5677
    -8.9650  -8.0654  -8.0651  -7.8890   4.1618   4.1619   4.3298   5.0779
     5.8508   6.0536   6.0537   6.4870   6.4871   6.5723   7.1754   7.4980

          k = 0.2503-0.2503 0.2500 (  5158 PWs)   bands (ev):

   -64.8308 -64.8262 -64.8262 -64.8254 -31.6252 -31.6245 -31.6244 -31.6064
   -31.5943 -31.5942 -31.5939 -31.5840 -31.5840 -31.5836 -31.5713 -31.5709
    -8.7951  -8.0324  -8.0320  -8.0293   3.9992   3.9993   4.0047   5.0938
     5.8453   5.8470   5.8507   6.6946   6.7064   6.7064   7.3470   7.3564

          k = 0.2503-0.2503-0.5000 (  5140 PWs)   bands (ev):

   -64.8286 -64.8282 -64.8262 -64.8256 -31.6275 -31.6274 -31.6213 -31.6212
   -31.5936 -31.5934 -31.5804 -31.5804 -31.5781 -31.5780 -31.5773 -31.5770
    -8.3981  -8.3979  -7.9986  -7.9984   3.8192   3.8193   4.2029   4.2030
     5.8331   5.8334   6.7412   6.7413   6.8699   6.8701   7.0063   7.0065

          k =-0.4995-0.4995 0.0000 (  5216 PWs)   bands (ev):

   -64.8274 -64.8274 -64.8274 -64.8264 -31.6203 -31.6200 -31.6183 -31.6181
   -31.5974 -31.5973 -31.5972 -31.5970 -31.5773 -31.5771 -31.5762 -31.5760
    -8.2080  -8.2078  -8.2029  -8.2027   4.2917   4.2919   4.2946   4.2948
     5.7639   5.7640   5.7702   5.7703   7.0545   7.0548   7.0718   7.0720

          k =-0.4995-0.4995 0.2500 (  5136 PWs)   bands (ev):

   -64.8274 -64.8274 -64.8273 -64.8264 -31.6318 -31.6317 -31.6307 -31.6306
   -31.5830 -31.5829 -31.5825 -31.5825 -31.5760 -31.5758 -31.5748 -31.5746
    -8.1705  -8.1702  -8.1654  -8.1652   3.6371   3.6372   3.6435   3.6437
     6.5233   6.5235   6.5252   6.5253   7.0557   7.0559   7.0729   7.0731

          k =-0.4995-0.4995-0.5000 (  5136 PWs)   bands (ev):

   -64.8274 -64.8274 -64.8273 -64.8264 -31.6406 -31.6405 -31.6382 -31.6381
   -31.5753 -31.5752 -31.5752 -31.5750 -31.5747 -31.5745 -31.5744 -31.5744
    -8.1324  -8.1322  -8.1272  -8.1270   3.2132   3.2133   3.2216   3.2218
     7.0563   7.0566   7.0651   7.0652   7.0653   7.0654   7.0740   7.0743

     highest occupied level (ev):     7.6802

!    total energy              =    -608.39287685 Ry
     Harris-Foulkes estimate   =    -608.39287685 Ry
     estimated scf accuracy    <          6.7E-09 Ry

     The total energy is the sum of the following terms:

     one-electron contribution =    -303.55813932 Ry
     hartree contribution      =     168.06845623 Ry
     xc contribution           =     -97.84647390 Ry
     ewald contribution        =    -375.05671986 Ry

     convergence has been achieved in   2 iterations

     Forces acting on atoms (cartesian axes, Ry/au):

     atom    1 type  1   force =    -0.00020196   -0.00020196    0.00000000
     atom    2 type  1   force =     0.00022790   -0.00021169    0.00000000
     atom    3 type  1   force =    -0.00021169    0.00022790    0.00000000
     atom    4 type  1   force =     0.00018273    0.00018273    0.00000000
     atom    5 type  2   force =    -0.00024782    0.00025896    0.00000000
     atom    6 type  2   force =     0.00025896   -0.00024782    0.00000000
     atom    7 type  2   force =    -0.00026013   -0.00026013    0.00000000
     atom    8 type  2   force =     0.00025202    0.00025202    0.00000000

     Total force =     0.000928     Total SCF correction =     0.000239
     SCF correction compared to forces is large: reduce conv_thr to get better values


     Computing stress (Cartesian axis) and pressure

          total   stress  (Ry/bohr**3)                   (kbar)     P=  -67.94
  -0.00046219  -0.00002037   0.00000000        -67.99     -3.00      0.00
  -0.00002037  -0.00046219   0.00000000         -3.00    -67.99      0.00
   0.00000000   0.00000000  -0.00046115          0.00      0.00    -67.84


     number of scf cycles    =   2
     number of bfgs steps    =   1

     energy   old            =    -608.3928756296 Ry
     energy   new            =    -608.3928768468 Ry

     CASE: energy  _new < energy  _old


     WARNING: bfgs curvature condition failed, Theta= 0.988
     new trust radius        =       0.0005088035 bohr
     new conv_thr            =            1.0E-10 Ry


ATOMIC_POSITIONS (alat)
Mg      -0.000065636  -0.000065636   0.000000000
Mg       0.000073630   0.499931864   0.500000000
Mg       0.499931864   0.000073630   0.500000000
Mg       0.500058446   0.500058446   0.000000000
O        0.499917913   0.000086402   0.000000000
O        0.000086402   0.499917913   0.000000000
O       -0.000083703  -0.000083703   0.500000000
O        0.500081085   0.500081085   0.500000000



     Writing output data file MgO.0.002143.70.4.save
     NEW-OLD atomic charge density approx. for the potential

     Check: negative/imaginary core charge=   -0.000008    0.000000

     total cpu time spent up to now is       12.8 secs

     per-process dynamical memory:    48.5 Mb

     Self-consistent Calculation

     iteration #  1     ecut=    70.00 Ry     beta=0.70
     Davidson diagonalization with overlap
     ethr =  1.00E-06,  avg # of iterations =  2.0

     Threshold (ethr) on eigenvalues was too large:
     Diagonalizing with lowered threshold

     Davidson diagonalization with overlap
     ethr =  1.36E-10,  avg # of iterations =  3.0

     total cpu time spent up to now is       14.8 secs

     total energy              =    -608.39287797 Ry
     Harris-Foulkes estimate   =    -608.39287805 Ry
     estimated scf accuracy    <       0.00000014 Ry

     iteration #  2     ecut=    70.00 Ry     beta=0.70
     Davidson diagonalization with overlap
     ethr =  2.19E-10,  avg # of iterations =  3.0

     total cpu time spent up to now is       15.8 secs

     total energy              =    -608.39287798 Ry
     Harris-Foulkes estimate   =    -608.39287801 Ry
     estimated scf accuracy    <       0.00000005 Ry

     iteration #  3     ecut=    70.00 Ry     beta=0.70
     Davidson diagonalization with overlap
     ethr =  7.57E-11,  avg # of iterations =  3.0

     total cpu time spent up to now is       16.7 secs

     total energy              =    -608.39287800 Ry
     Harris-Foulkes estimate   =    -608.39287801 Ry
     estimated scf accuracy    <       0.00000002 Ry

     iteration #  4     ecut=    70.00 Ry     beta=0.70
     Davidson diagonalization with overlap
     ethr =  2.85E-11,  avg # of iterations =  2.4

     total cpu time spent up to now is       17.6 secs

     total energy              =    -608.39287800 Ry
     Harris-Foulkes estimate   =    -608.39287800 Ry
     estimated scf accuracy    <          1.6E-10 Ry

     iteration #  5     ecut=    70.00 Ry     beta=0.70
     Davidson diagonalization with overlap
     ethr =  2.49E-13,  avg # of iterations =  3.0

     total cpu time spent up to now is       18.6 secs

     End of self-consistent calculation

          k = 0.0000 0.0000 0.0000 (  5137 PWs)   bands (ev):

   -64.8345 -64.8250 -64.8250 -64.8242 -31.6309 -31.6309 -31.6309 -31.5939
   -31.5934 -31.5934 -31.5933 -31.5933 -31.5929 -31.5639 -31.5633 -31.5626
    -9.3646  -7.9138  -7.9137  -7.9137   3.7581   3.7581   3.7581   6.3676
     6.3799   6.3801   6.3801   6.3803   6.3926   7.6648   7.6725   7.6803

          k = 0.0000 0.0000 0.2500 (  5157 PWs)   bands (ev):

   -64.8331 -64.8262 -64.8250 -64.8244 -31.6241 -31.6241 -31.6204 -31.5981
   -31.5981 -31.5939 -31.5939 -31.5895 -31.5885 -31.5782 -31.5720 -31.5708
    -9.1562  -8.1286  -7.8853  -7.8852   4.0486   4.0486   4.0955   5.8581
     5.8581   6.1705   6.1709   6.5308   6.5547   6.6589   7.4416   7.4589

          k = 0.0000 0.0000-0.5000 (  5110 PWs)   bands (ev):

   -64.8299 -64.8294 -64.8250 -64.8244 -31.6105 -31.6102 -31.6083 -31.6081
   -31.6019 -31.6019 -31.5907 -31.5907 -31.5811 -31.5809 -31.5800 -31.5798
    -8.6460  -8.6459  -7.8565  -7.8564   4.8465   4.8465   4.8494   4.8494
     5.1227   5.1230   5.9734   5.9737   6.9578   6.9579   6.9788   6.9789

          k =-0.0003 0.2500 0.0000 (  5159 PWs)   bands (ev):

   -64.8331 -64.8262 -64.8250 -64.8244 -31.6244 -31.6243 -31.6204 -31.5983
   -31.5982 -31.5939 -31.5935 -31.5890 -31.5890 -31.5782 -31.5714 -31.5714
    -9.1562  -8.1286  -7.8853  -7.8852   4.0484   4.0484   4.0955   5.8578
     5.8581   6.1706   6.1711   6.5427   6.5427   6.6589   7.4502   7.4503

          k =-0.0003 0.2500 0.2500 (  5162 PWs)   bands (ev):

   -64.8318 -64.8262 -64.8258 -64.8248 -31.6213 -31.6210 -31.6195 -31.6071
   -31.5941 -31.5940 -31.5929 -31.5878 -31.5868 -31.5866 -31.5754 -31.5684
    -8.9661  -8.0644  -8.0633  -7.8902   4.1603   4.1622   4.3287   5.0713
     5.8471   6.0540   6.0569   6.4841   6.4855   6.5835   7.1733   7.5056

          k =-0.0003 0.2500-0.5000 (  5152 PWs)   bands (ev):

   -64.8291 -64.8287 -64.8257 -64.8251 -31.6173 -31.6172 -31.6100 -31.6100
   -31.6068 -31.6065 -31.5850 -31.5848 -31.5837 -31.5837 -31.5754 -31.5753
    -8.5096  -8.5095  -7.9469  -7.9468   4.4184   4.4185   4.7511   4.7513
     5.0962   5.0963   6.5478   6.5480   6.5757   6.5758   7.0942   7.0942

          k = 0.0005-0.5000 0.0000 (  5110 PWs)   bands (ev):

   -64.8299 -64.8294 -64.8250 -64.8244 -31.6094 -31.6094 -31.6092 -31.6092
   -31.6019 -31.6019 -31.5907 -31.5906 -31.5806 -31.5805 -31.5803 -31.5803
    -8.6460  -8.6459  -7.8565  -7.8564   4.8479   4.8479   4.8480   4.8480
     5.1227   5.1230   5.9734   5.9738   6.9683   6.9683   6.9684   6.9684

          k = 0.0005-0.5000 0.2500 (  5150 PWs)   bands (ev):

   -64.8291 -64.8287 -64.8257 -64.8251 -31.6173 -31.6172 -31.6100 -31.6100
   -31.6068 -31.6065 -31.5850 -31.5847 -31.5838 -31.5837 -31.5752 -31.5751
    -8.5096  -8.5095  -7.9470  -7.9469   4.4183   4.4184   4.7511   4.7513
     5.0963   5.0964   6.5478   6.5480   6.5758   6.5758   7.0941   7.0942

          k = 0.0005-0.5000-0.5000 (  5216 PWs)   bands (ev):

   -64.8274 -64.8274 -64.8274 -64.8264 -31.6194 -31.6192 -31.6191 -31.6191
   -31.5975 -31.5973 -31.5972 -31.5969 -31.5769 -31.5767 -31.5765 -31.5765
    -8.2062  -8.2061  -8.2046  -8.2045   4.2918   4.2919   4.2947   4.2948
     5.7652   5.7653   5.7690   5.7690   7.0624   7.0626   7.0640   7.0642

          k = 0.2497 0.2497 0.0000 (  5161 PWs)   bands (ev):

   -64.8319 -64.8262 -64.8258 -64.8248 -31.6213 -31.6211 -31.6195 -31.6064
   -31.5944 -31.5944 -31.5922 -31.5883 -31.5865 -31.5863 -31.5754 -31.5690
    -8.9671  -8.0626  -8.0625  -7.8915   4.1610   4.1610   4.3275   5.0647
     5.8434   6.0569   6.0573   6.4824   6.4824   6.5946   7.1712   7.5132

          k = 0.2497 0.2497 0.2500 (  5154 PWs)   bands (ev):

   -64.8309 -64.8262 -64.8262 -64.8254 -31.6256 -31.6255 -31.6249 -31.6058
   -31.5933 -31.5930 -31.5928 -31.5843 -31.5841 -31.5841 -31.5716 -31.5711
    -8.7973  -8.0321  -8.0293  -8.0293   3.9962   4.0015   4.0016   5.0845
     5.8412   5.8446   5.8457   6.7041   6.7043   6.7163   7.3543   7.3636

          k = 0.2497 0.2497-0.5000 (  5128 PWs)   bands (ev):

   -64.8286 -64.8282 -64.8262 -64.8256 -31.6281 -31.6280 -31.6207 -31.6206
   -31.5919 -31.5917 -31.5807 -31.5806 -31.5784 -31.5782 -31.5773 -31.5772
    -8.4003  -8.4002  -7.9959  -7.9958   3.8237   3.8238   4.1929   4.1930
     5.8276   5.8276   6.7392   6.7394   6.8675   6.8676   7.0255   7.0256

          k = 0.2505-0.5003 0.0000 (  5148 PWs)   bands (ev):

   -64.8291 -64.8287 -64.8257 -64.8251 -31.6180 -31.6163 -31.6108 -31.6093
   -31.6068 -31.6065 -31.5849 -31.5846 -31.5841 -31.5832 -31.5757 -31.5748
    -8.5113  -8.5079  -7.9488  -7.9450   4.4161   4.4207   4.7502   4.7522
     5.0944   5.0982   6.5404   6.5554   6.5731   6.5785   7.0885   7.0998

          k = 0.2505-0.5003 0.2500 (  5134 PWs)   bands (ev):

   -64.8286 -64.8282 -64.8262 -64.8256 -31.6280 -31.6274 -31.6216 -31.6203
   -31.5929 -31.5926 -31.5808 -31.5802 -31.5783 -31.5780 -31.5775 -31.5770
    -8.4008  -8.3974  -7.9990  -7.9953   3.8177   3.8253   4.1952   4.2008
     5.8287   5.8321   6.7349   6.7457   6.8650   6.8725   7.0144   7.0177

          k = 0.2505-0.5003-0.5000 (  5138 PWs)   bands (ev):

   -64.8274 -64.8274 -64.8274 -64.8264 -31.6320 -31.6319 -31.6309 -31.6308
   -31.5832 -31.5830 -31.5825 -31.5823 -31.5755 -31.5753 -31.5751 -31.5751
    -8.1697  -8.1696  -8.1660  -8.1659   3.6362   3.6363   3.6444   3.6445
     6.5185   6.5185   6.5303   6.5303   7.0625   7.0627   7.0662   7.0663

          k = 0.2503-0.2503 0.0000 (  5161 PWs)   bands (ev):

   -64.8318 -64.8262 -64.8258 -64.8248 -31.6206 -31.6204 -31.6195 -31.6079
   -31.5943 -31.5943 -31.5937 -31.5873 -31.5870 -31.5868 -31.5753 -31.5677
    -8.9650  -8.0653  -8.0652  -7.8890   4.1618   4.1619   4.3298   5.0780
     5.8508   6.0535   6.0539   6.4870   6.4871   6.5723   7.1754   7.4980

          k = 0.2503-0.2503 0.2500 (  5158 PWs)   bands (ev):

   -64.8308 -64.8262 -64.8262 -64.8254 -31.6252 -31.6245 -31.6244 -31.6064
   -31.5943 -31.5942 -31.5940 -31.5840 -31.5840 -31.5836 -31.5713 -31.5709
    -8.7951  -8.0321  -8.0321  -8.0293   3.9992   3.9994   4.0047   5.0938
     5.8458   5.8469   5.8503   6.6946   6.7063   6.7065   7.3471   7.3564

          k = 0.2503-0.2503-0.5000 (  5140 PWs)   bands (ev):

   -64.8286 -64.8282 -64.8262 -64.8256 -31.6276 -31.6274 -31.6214 -31.6213
   -31.5936 -31.5934 -31.5805 -31.5804 -31.5781 -31.5780 -31.5773 -31.5771
    -8.3980  -8.3979  -7.9985  -7.9984   3.8193   3.8193   4.2029   4.2030
     5.8333   5.8333   6.7412   6.7414   6.8700   6.8701   7.0064   7.0065

          k =-0.4995-0.4995 0.0000 (  5216 PWs)   bands (ev):

   -64.8274 -64.8274 -64.8274 -64.8264 -31.6203 -31.6200 -31.6183 -31.6181
   -31.5974 -31.5973 -31.5972 -31.5970 -31.5774 -31.5771 -31.5762 -31.5760
    -8.2079  -8.2078  -8.2028  -8.2027   4.2918   4.2919   4.2947   4.2948
     5.7638   5.7641   5.7701   5.7705   7.0547   7.0547   7.0719   7.0720

          k =-0.4995-0.4995 0.2500 (  5136 PWs)   bands (ev):

   -64.8274 -64.8274 -64.8274 -64.8264 -31.6319 -31.6317 -31.6307 -31.6306
   -31.5831 -31.5829 -31.5825 -31.5825 -31.5760 -31.5758 -31.5748 -31.5746
    -8.1704  -8.1703  -8.1653  -8.1652   3.6371   3.6372   3.6436   3.6436
     6.5233   6.5236   6.5252   6.5254   7.0558   7.0558   7.0730   7.0730

          k =-0.4995-0.4995-0.5000 (  5136 PWs)   bands (ev):

   -64.8274 -64.8274 -64.8274 -64.8264 -31.6407 -31.6405 -31.6382 -31.6381
   -31.5753 -31.5753 -31.5753 -31.5750 -31.5747 -31.5746 -31.5745 -31.5744
    -8.1323  -8.1322  -8.1272  -8.1271   3.2133   3.2133   3.2217   3.2218
     7.0564   7.0565   7.0651   7.0653   7.0653   7.0655   7.0742   7.0742

     highest occupied level (ev):     7.6803

!    total energy              =    -608.39287800 Ry
     Harris-Foulkes estimate   =    -608.39287800 Ry
     estimated scf accuracy    <          6.8E-11 Ry

     The total energy is the sum of the following terms:

     one-electron contribution =    -303.55809902 Ry
     hartree contribution      =     168.06837239 Ry
     xc contribution           =     -97.84644101 Ry
     ewald contribution        =    -375.05671037 Ry

     convergence has been achieved in   5 iterations

     Forces acting on atoms (cartesian axes, Ry/au):

     atom    1 type  1   force =    -0.00018732   -0.00018732    0.00000000
     atom    2 type  1   force =     0.00020231   -0.00019805    0.00000000
     atom    3 type  1   force =    -0.00019805    0.00020231    0.00000000
     atom    4 type  1   force =     0.00018101    0.00018101    0.00000000
     atom    5 type  2   force =    -0.00021685    0.00021986    0.00000000
     atom    6 type  2   force =     0.00021986   -0.00021685    0.00000000
     atom    7 type  2   force =    -0.00020602   -0.00020602    0.00000000
     atom    8 type  2   force =     0.00020507    0.00020507    0.00000000

     Total force =     0.000810     Total SCF correction =     0.000004


     Computing stress (Cartesian axis) and pressure

          total   stress  (Ry/bohr**3)                   (kbar)     P=  -67.96
  -0.00046235  -0.00002038   0.00000000        -68.01     -3.00      0.00
  -0.00002038  -0.00046235   0.00000000         -3.00    -68.01      0.00
   0.00000000   0.00000000  -0.00046131          0.00      0.00    -67.86


     number of scf cycles    =   3
     number of bfgs steps    =   2

     energy   old            =    -608.3928768468 Ry
     energy   new            =    -608.3928780007 Ry

     CASE: energy  _new < energy  _old

     new trust radius        =       0.0007632053 bohr
     new conv_thr            =            1.0E-10 Ry


ATOMIC_POSITIONS (alat)
Mg      -0.000121937  -0.000121937   0.000000000
Mg       0.000135187   0.499872498   0.500000000
Mg       0.499872498   0.000135187   0.500000000
Mg       0.500111855   0.500111855   0.000000000
O        0.499851603   0.000154249   0.000000000
O        0.000154249   0.499851603   0.000000000
O       -0.000148567  -0.000148567   0.500000000
O        0.500145111   0.500145111   0.500000000



     Writing output data file MgO.0.002143.70.4.save
     NEW-OLD atomic charge density approx. for the potential

     Check: negative/imaginary core charge=   -0.000008    0.000000

     total cpu time spent up to now is       19.2 secs

     per-process dynamical memory:    48.5 Mb

     Self-consistent Calculation

     iteration #  1     ecut=    70.00 Ry     beta=0.70
     Davidson diagonalization with overlap
     ethr =  1.00E-06,  avg # of iterations =  2.0

     Threshold (ethr) on eigenvalues was too large:
     Diagonalizing with lowered threshold

     Davidson diagonalization with overlap
     ethr =  2.57E-10,  avg # of iterations =  3.1

     total cpu time spent up to now is       21.3 secs

     total energy              =    -608.39287930 Ry
     Harris-Foulkes estimate   =    -608.39287943 Ry
     estimated scf accuracy    <       0.00000023 Ry

     iteration #  2     ecut=    70.00 Ry     beta=0.70
     Davidson diagonalization with overlap
     ethr =  3.64E-10,  avg # of iterations =  2.0

     total cpu time spent up to now is       22.2 secs

     total energy              =    -608.39287934 Ry
     Harris-Foulkes estimate   =    -608.39287934 Ry
     estimated scf accuracy    <          6.1E-09 Ry

     iteration #  3     ecut=    70.00 Ry     beta=0.70
     Davidson diagonalization with overlap
     ethr =  9.52E-12,  avg # of iterations =  2.0

     total cpu time spent up to now is       23.0 secs

     total energy              =    -608.39287934 Ry
     Harris-Foulkes estimate   =    -608.39287934 Ry
     estimated scf accuracy    <          4.6E-10 Ry

     iteration #  4     ecut=    70.00 Ry     beta=0.70
     Davidson diagonalization with overlap
     ethr =  7.17E-13,  avg # of iterations =  2.7

     total cpu time spent up to now is       24.0 secs

     total energy              =    -608.39287934 Ry
     Harris-Foulkes estimate   =    -608.39287934 Ry
     estimated scf accuracy    <          1.6E-10 Ry

     iteration #  5     ecut=    70.00 Ry     beta=0.70
     Davidson diagonalization with overlap
     ethr =  2.48E-13,  avg # of iterations =  2.0

     total cpu time spent up to now is       24.8 secs

     End of self-consistent calculation

          k = 0.0000 0.0000 0.0000 (  5137 PWs)   bands (ev):

   -64.8345 -64.8250 -64.8250 -64.8242 -31.6309 -31.6309 -31.6309 -31.5939
   -31.5934 -31.5934 -31.5934 -31.5933 -31.5929 -31.5639 -31.5633 -31.5626
    -9.3646  -7.9138  -7.9137  -7.9137   3.7581   3.7581   3.7581   6.3676
     6.3799   6.3801   6.3801   6.3803   6.3926   7.6648   7.6725   7.6803

          k = 0.0000 0.0000 0.2500 (  5157 PWs)   bands (ev):

   -64.8331 -64.8262 -64.8250 -64.8244 -31.6241 -31.6241 -31.6204 -31.5981
   -31.5981 -31.5939 -31.5939 -31.5895 -31.5885 -31.5782 -31.5720 -31.5708
    -9.1562  -8.1286  -7.8853  -7.8852   4.0486   4.0486   4.0955   5.8581
     5.8581   6.1705   6.1709   6.5308   6.5547   6.6589   7.4416   7.4590

          k = 0.0000 0.0000-0.5000 (  5110 PWs)   bands (ev):

   -64.8299 -64.8294 -64.8250 -64.8244 -31.6105 -31.6102 -31.6083 -31.6081
   -31.6019 -31.6019 -31.5907 -31.5907 -31.5811 -31.5809 -31.5800 -31.5798
    -8.6460  -8.6459  -7.8565  -7.8564   4.8465   4.8465   4.8494   4.8494
     5.1227   5.1230   5.9734   5.9738   6.9578   6.9579   6.9789   6.9789

          k =-0.0003 0.2500 0.0000 (  5159 PWs)   bands (ev):

   -64.8331 -64.8262 -64.8250 -64.8244 -31.6244 -31.6244 -31.6204 -31.5983
   -31.5982 -31.5939 -31.5935 -31.5890 -31.5890 -31.5782 -31.5714 -31.5714
    -9.1562  -8.1285  -7.8853  -7.8852   4.0484   4.0484   4.0955   5.8578
     5.8581   6.1706   6.1711   6.5427   6.5427   6.6589   7.4503   7.4503

          k =-0.0003 0.2500 0.2500 (  5162 PWs)   bands (ev):

   -64.8318 -64.8262 -64.8258 -64.8248 -31.6213 -31.6210 -31.6195 -31.6071
   -31.5941 -31.5940 -31.5929 -31.5878 -31.5868 -31.5866 -31.5754 -31.5684
    -8.9660  -8.0642  -8.0635  -7.8902   4.1607   4.1619   4.3287   5.0713
     5.8471   6.0546   6.0564   6.4844   6.4853   6.5835   7.1733   7.5056

          k =-0.0003 0.2500-0.5000 (  5152 PWs)   bands (ev):

   -64.8291 -64.8287 -64.8257 -64.8251 -31.6173 -31.6172 -31.6100 -31.6100
   -31.6068 -31.6066 -31.5850 -31.5848 -31.5837 -31.5837 -31.5754 -31.5753
    -8.5096  -8.5095  -7.9469  -7.9468   4.4184   4.4185   4.7511   4.7513
     5.0963   5.0963   6.5478   6.5480   6.5757   6.5758   7.0942   7.0942

          k = 0.0005-0.5000 0.0000 (  5110 PWs)   bands (ev):

   -64.8299 -64.8294 -64.8250 -64.8244 -31.6094 -31.6094 -31.6092 -31.6092
   -31.6019 -31.6019 -31.5907 -31.5906 -31.5806 -31.5805 -31.5803 -31.5803
    -8.6460  -8.6458  -7.8565  -7.8564   4.8479   4.8479   4.8480   4.8480
     5.1227   5.1230   5.9734   5.9738   6.9683   6.9683   6.9684   6.9684

          k = 0.0005-0.5000 0.2500 (  5150 PWs)   bands (ev):

   -64.8291 -64.8287 -64.8257 -64.8251 -31.6173 -31.6172 -31.6100 -31.6100
   -31.6068 -31.6065 -31.5850 -31.5848 -31.5838 -31.5837 -31.5752 -31.5751
    -8.5096  -8.5095  -7.9469  -7.9469   4.4184   4.4184   4.7511   4.7513
     5.0963   5.0964   6.5478   6.5480   6.5758   6.5759   7.0941   7.0942

          k = 0.0005-0.5000-0.5000 (  5216 PWs)   bands (ev):

   -64.8274 -64.8274 -64.8274 -64.8264 -31.6194 -31.6192 -31.6191 -31.6191
   -31.5975 -31.5973 -31.5972 -31.5970 -31.5769 -31.5767 -31.5765 -31.5765
    -8.2059  -8.2058  -8.2048  -8.2048   4.2923   4.2925   4.2941   4.2943
     5.7659   5.7660   5.7683   5.7684   7.0627   7.0629   7.0637   7.0639

          k = 0.2497 0.2497 0.0000 (  5161 PWs)   bands (ev):

   -64.8319 -64.8262 -64.8258 -64.8248 -31.6213 -31.6212 -31.6195 -31.6064
   -31.5944 -31.5944 -31.5922 -31.5883 -31.5865 -31.5863 -31.5754 -31.5690
    -8.9671  -8.0625  -8.0624  -7.8915   4.1610   4.1610   4.3275   5.0647
     5.8434   6.0569   6.0573   6.4824   6.4824   6.5946   7.1712   7.5132

          k = 0.2497 0.2497 0.2500 (  5154 PWs)   bands (ev):

   -64.8309 -64.8262 -64.8262 -64.8254 -31.6256 -31.6255 -31.6249 -31.6058
   -31.5933 -31.5930 -31.5928 -31.5843 -31.5841 -31.5841 -31.5716 -31.5711
    -8.7973  -8.0320  -8.0293  -8.0293   3.9963   4.0015   4.0015   5.0845
     5.8418   5.8446   5.8451   6.7042   6.7043   6.7163   7.3543   7.3636

          k = 0.2497 0.2497-0.5000 (  5128 PWs)   bands (ev):

   -64.8286 -64.8282 -64.8262 -64.8256 -31.6281 -31.6280 -31.6207 -31.6206
   -31.5920 -31.5917 -31.5807 -31.5806 -31.5784 -31.5782 -31.5773 -31.5772
    -8.4003  -8.4002  -7.9958  -7.9958   3.8237   3.8238   4.1929   4.1930
     5.8276   5.8276   6.7392   6.7394   6.8675   6.8677   7.0256   7.0256

          k = 0.2505-0.5003 0.0000 (  5148 PWs)   bands (ev):

   -64.8291 -64.8287 -64.8257 -64.8251 -31.6180 -31.6163 -31.6108 -31.6093
   -31.6068 -31.6065 -31.5849 -31.5846 -31.5841 -31.5832 -31.5757 -31.5748
    -8.5113  -8.5078  -7.9488  -7.9450   4.4161   4.4207   4.7502   4.7522
     5.0944   5.0982   6.5404   6.5554   6.5731   6.5785   7.0885   7.0998

          k = 0.2505-0.5003 0.2500 (  5134 PWs)   bands (ev):

   -64.8286 -64.8282 -64.8262 -64.8256 -31.6280 -31.6274 -31.6216 -31.6203
   -31.5929 -31.5926 -31.5808 -31.5802 -31.5783 -31.5780 -31.5775 -31.5770
    -8.4008  -8.3974  -7.9990  -7.9953   3.8177   3.8253   4.1952   4.2008
     5.8287   5.8321   6.7349   6.7458   6.8650   6.8725   7.0144   7.0177

          k = 0.2505-0.5003-0.5000 (  5138 PWs)   bands (ev):

   -64.8274 -64.8274 -64.8274 -64.8264 -31.6320 -31.6319 -31.6309 -31.6308
   -31.5832 -31.5830 -31.5825 -31.5823 -31.5755 -31.5753 -31.5751 -31.5751
    -8.1696  -8.1695  -8.1660  -8.1660   3.6363   3.6364   3.6443   3.6444
     6.5186   6.5186   6.5302   6.5302   7.0626   7.0628   7.0661   7.0663

          k = 0.2503-0.2503 0.0000 (  5161 PWs)   bands (ev):

   -64.8318 -64.8262 -64.8258 -64.8248 -31.6206 -31.6204 -31.6195 -31.6079
   -31.5943 -31.5943 -31.5937 -31.5873 -31.5870 -31.5868 -31.5753 -31.5677
    -8.9649  -8.0652  -8.0651  -7.8889   4.1618   4.1619   4.3298   5.0780
     5.8508   6.0535   6.0539   6.4871   6.4871   6.5723   7.1754   7.4980

          k = 0.2503-0.2503 0.2500 (  5158 PWs)   bands (ev):

   -64.8308 -64.8262 -64.8262 -64.8254 -31.6252 -31.6245 -31.6244 -31.6064
   -31.5943 -31.5942 -31.5940 -31.5841 -31.5840 -31.5836 -31.5713 -31.5709
    -8.7951  -8.0321  -8.0320  -8.0294   3.9993   3.9994   4.0046   5.0938
     5.8464   5.8470   5.8497   6.6946   6.7064   6.7065   7.3471   7.3564

          k = 0.2503-0.2503-0.5000 (  5140 PWs)   bands (ev):

   -64.8286 -64.8282 -64.8262 -64.8256 -31.6276 -31.6274 -31.6214 -31.6213
   -31.5936 -31.5934 -31.5805 -31.5804 -31.5781 -31.5780 -31.5773 -31.5771
    -8.3980  -8.3979  -7.9985  -7.9984   3.8193   3.8193   4.2029   4.2030
     5.8333   5.8333   6.7412   6.7414   6.8700   6.8701   7.0064   7.0065

          k =-0.4995-0.4995 0.0000 (  5216 PWs)   bands (ev):

   -64.8275 -64.8274 -64.8274 -64.8264 -31.6203 -31.6201 -31.6183 -31.6181
   -31.5975 -31.5973 -31.5972 -31.5970 -31.5774 -31.5771 -31.5762 -31.5760
    -8.2079  -8.2078  -8.2028  -8.2027   4.2918   4.2919   4.2947   4.2948
     5.7638   5.7641   5.7702   5.7705   7.0547   7.0547   7.0719   7.0720

          k =-0.4995-0.4995 0.2500 (  5136 PWs)   bands (ev):

   -64.8274 -64.8274 -64.8274 -64.8264 -31.6319 -31.6317 -31.6308 -31.6306
   -31.5831 -31.5830 -31.5825 -31.5825 -31.5760 -31.5758 -31.5748 -31.5746
    -8.1703  -8.1702  -8.1653  -8.1652   3.6371   3.6372   3.6436   3.6436
     6.5233   6.5236   6.5252   6.5254   7.0558   7.0559   7.0730   7.0731

          k =-0.4995-0.4995-0.5000 (  5136 PWs)   bands (ev):

   -64.8274 -64.8274 -64.8274 -64.8264 -31.6407 -31.6405 -31.6382 -31.6381
   -31.5753 -31.5753 -31.5753 -31.5750 -31.5747 -31.5746 -31.5745 -31.5744
    -8.1323  -8.1322  -8.1271  -8.1270   3.2133   3.2133   3.2217   3.2218
     7.0565   7.0565   7.0651   7.0653   7.0653   7.0655   7.0742   7.0742

     highest occupied level (ev):     7.6803

!    total energy              =    -608.39287934 Ry
     Harris-Foulkes estimate   =    -608.39287934 Ry
     estimated scf accuracy    <          7.1E-12 Ry

     The total energy is the sum of the following terms:

     one-electron contribution =    -303.55809629 Ry
     hartree contribution      =     168.06834317 Ry
     xc contribution           =     -97.84642664 Ry
     ewald contribution        =    -375.05669958 Ry

     convergence has been achieved in   5 iterations

     Forces acting on atoms (cartesian axes, Ry/au):

     atom    1 type  1   force =    -0.00013046   -0.00013046    0.00000000
     atom    2 type  1   force =     0.00013828   -0.00014543    0.00000000
     atom    3 type  1   force =    -0.00014543    0.00013828    0.00000000
     atom    4 type  1   force =     0.00014125    0.00014125    0.00000000
     atom    5 type  2   force =    -0.00013735    0.00013088    0.00000000
     atom    6 type  2   force =     0.00013088   -0.00013735    0.00000000
     atom    7 type  2   force =    -0.00012642   -0.00012642    0.00000000
     atom    8 type  2   force =     0.00012924    0.00012924    0.00000000

     Total force =     0.000540     Total SCF correction =     0.000006


     Computing stress (Cartesian axis) and pressure

          total   stress  (Ry/bohr**3)                   (kbar)     P=  -67.97
  -0.00046241  -0.00002037   0.00000000        -68.02     -3.00      0.00
  -0.00002037  -0.00046241   0.00000000         -3.00    -68.02      0.00
   0.00000000   0.00000000  -0.00046137          0.00      0.00    -67.87


     number of scf cycles    =   4
     number of bfgs steps    =   3

     energy   old            =    -608.3928780007 Ry
     energy   new            =    -608.3928793414 Ry

     CASE: energy  _new < energy  _old

     new trust radius        =       0.0011448079 bohr
     new conv_thr            =            1.0E-10 Ry


ATOMIC_POSITIONS (alat)
Mg      -0.000210702  -0.000210702   0.000000000
Mg       0.000231498   0.499776748   0.500000000
Mg       0.499776748   0.000231498   0.500000000
Mg       0.500200411   0.500200411   0.000000000
O        0.499750966   0.000254862   0.000000000
O        0.000254862   0.499750966   0.000000000
O       -0.000245972  -0.000245972   0.500000000
O        0.500242189   0.500242189   0.500000000



     Writing output data file MgO.0.002143.70.4.save
     NEW-OLD atomic charge density approx. for the potential

     Check: negative/imaginary core charge=   -0.000008    0.000000

     total cpu time spent up to now is       25.4 secs

     per-process dynamical memory:    48.5 Mb

     Self-consistent Calculation

     iteration #  1     ecut=    70.00 Ry     beta=0.70
     Davidson diagonalization with overlap
     ethr =  1.00E-06,  avg # of iterations =  2.5

     Threshold (ethr) on eigenvalues was too large:
     Diagonalizing with lowered threshold

     Davidson diagonalization with overlap
     ethr =  5.95E-10,  avg # of iterations =  3.0

     total cpu time spent up to now is       27.5 secs

     total energy              =    -608.39288027 Ry
     Harris-Foulkes estimate   =    -608.39288056 Ry
     estimated scf accuracy    <       0.00000052 Ry

     iteration #  2     ecut=    70.00 Ry     beta=0.70
     Davidson diagonalization with overlap
     ethr =  8.05E-10,  avg # of iterations =  2.0

     total cpu time spent up to now is       28.4 secs

     total energy              =    -608.39288036 Ry
     Harris-Foulkes estimate   =    -608.39288036 Ry
     estimated scf accuracy    <       0.00000001 Ry

     iteration #  3     ecut=    70.00 Ry     beta=0.70
     Davidson diagonalization with overlap
     ethr =  2.04E-11,  avg # of iterations =  2.0

     total cpu time spent up to now is       29.2 secs

     total energy              =    -608.39288036 Ry
     Harris-Foulkes estimate   =    -608.39288036 Ry
     estimated scf accuracy    <          8.6E-10 Ry

     iteration #  4     ecut=    70.00 Ry     beta=0.70
     Davidson diagonalization with overlap
     ethr =  1.35E-12,  avg # of iterations =  2.5

     total cpu time spent up to now is       30.1 secs

     total energy              =    -608.39288036 Ry
     Harris-Foulkes estimate   =    -608.39288036 Ry
     estimated scf accuracy    <          1.7E-10 Ry

     iteration #  5     ecut=    70.00 Ry     beta=0.70
     Davidson diagonalization with overlap
     ethr =  2.66E-13,  avg # of iterations =  3.0

     total cpu time spent up to now is       31.1 secs

     End of self-consistent calculation

          k = 0.0000 0.0000 0.0000 (  5137 PWs)   bands (ev):

   -64.8345 -64.8250 -64.8250 -64.8242 -31.6309 -31.6309 -31.6309 -31.5939
   -31.5934 -31.5934 -31.5933 -31.5933 -31.5929 -31.5639 -31.5633 -31.5626
    -9.3646  -7.9138  -7.9137  -7.9136   3.7581   3.7581   3.7581   6.3676
     6.3799   6.3801   6.3801   6.3803   6.3926   7.6648   7.6725   7.6803

          k = 0.0000 0.0000 0.2500 (  5157 PWs)   bands (ev):

   -64.8331 -64.8262 -64.8250 -64.8244 -31.6241 -31.6241 -31.6204 -31.5981
   -31.5981 -31.5939 -31.5939 -31.5895 -31.5885 -31.5782 -31.5720 -31.5708
    -9.1562  -8.1286  -7.8853  -7.8852   4.0486   4.0486   4.0955   5.8581
     5.8581   6.1705   6.1709   6.5308   6.5547   6.6589   7.4416   7.4590

          k = 0.0000 0.0000-0.5000 (  5110 PWs)   bands (ev):

   -64.8299 -64.8294 -64.8250 -64.8244 -31.6105 -31.6102 -31.6083 -31.6081
   -31.6019 -31.6019 -31.5907 -31.5907 -31.5811 -31.5809 -31.5800 -31.5798
    -8.6460  -8.6459  -7.8565  -7.8564   4.8465   4.8465   4.8494   4.8494
     5.1227   5.1230   5.9734   5.9738   6.9578   6.9579   6.9788   6.9789

          k =-0.0003 0.2500 0.0000 (  5159 PWs)   bands (ev):

   -64.8331 -64.8262 -64.8250 -64.8244 -31.6244 -31.6243 -31.6204 -31.5983
   -31.5982 -31.5939 -31.5935 -31.5890 -31.5890 -31.5782 -31.5714 -31.5714
    -9.1562  -8.1286  -7.8853  -7.8852   4.0484   4.0484   4.0955   5.8578
     5.8581   6.1706   6.1711   6.5427   6.5427   6.6589   7.4503   7.4503

          k =-0.0003 0.2500 0.2500 (  5162 PWs)   bands (ev):

   -64.8318 -64.8262 -64.8258 -64.8248 -31.6213 -31.6210 -31.6195 -31.6071
   -31.5941 -31.5940 -31.5929 -31.5878 -31.5868 -31.5866 -31.5754 -31.5684
    -8.9660  -8.0639  -8.0638  -7.8902   4.1612   4.1614   4.3287   5.0713
     5.8471   6.0553   6.0557   6.4847   6.4850   6.5835   7.1733   7.5056

          k =-0.0003 0.2500-0.5000 (  5152 PWs)   bands (ev):

   -64.8291 -64.8287 -64.8257 -64.8251 -31.6173 -31.6172 -31.6100 -31.6100
   -31.6068 -31.6065 -31.5850 -31.5848 -31.5837 -31.5837 -31.5754 -31.5753
    -8.5096  -8.5095  -7.9469  -7.9468   4.4184   4.4185   4.7511   4.7513
     5.0962   5.0963   6.5478   6.5480   6.5757   6.5758   7.0942   7.0942

          k = 0.0005-0.5000 0.0000 (  5110 PWs)   bands (ev):

   -64.8299 -64.8294 -64.8250 -64.8244 -31.6094 -31.6094 -31.6092 -31.6092
   -31.6019 -31.6019 -31.5907 -31.5906 -31.5806 -31.5805 -31.5803 -31.5803
    -8.6460  -8.6458  -7.8565  -7.8564   4.8478   4.8479   4.8481   4.8481
     5.1227   5.1230   5.9734   5.9738   6.9683   6.9683   6.9684   6.9684

          k = 0.0005-0.5000 0.2500 (  5150 PWs)   bands (ev):

   -64.8291 -64.8287 -64.8257 -64.8251 -31.6173 -31.6172 -31.6100 -31.6100
   -31.6068 -31.6065 -31.5850 -31.5848 -31.5838 -31.5837 -31.5752 -31.5751
    -8.5096  -8.5095  -7.9469  -7.9468   4.4183   4.4185   4.7511   4.7513
     5.0963   5.0965   6.5478   6.5480   6.5758   6.5759   7.0941   7.0942

          k = 0.0005-0.5000-0.5000 (  5216 PWs)   bands (ev):

   -64.8274 -64.8274 -64.8274 -64.8264 -31.6194 -31.6192 -31.6191 -31.6191
   -31.5974 -31.5972 -31.5972 -31.5970 -31.5769 -31.5767 -31.5765 -31.5765
    -8.2055  -8.2053  -8.2052  -8.2052   4.2931   4.2932   4.2933   4.2935
     5.7668   5.7670   5.7673   5.7674   7.0631   7.0632   7.0633   7.0635

          k = 0.2497 0.2497 0.0000 (  5161 PWs)   bands (ev):

   -64.8319 -64.8262 -64.8258 -64.8248 -31.6213 -31.6212 -31.6195 -31.6064
   -31.5944 -31.5944 -31.5922 -31.5883 -31.5865 -31.5863 -31.5754 -31.5690
    -8.9671  -8.0625  -8.0624  -7.8915   4.1610   4.1611   4.3275   5.0647
     5.8434   6.0569   6.0573   6.4824   6.4824   6.5946   7.1712   7.5132

          k = 0.2497 0.2497 0.2500 (  5154 PWs)   bands (ev):

   -64.8309 -64.8262 -64.8262 -64.8254 -31.6256 -31.6255 -31.6249 -31.6058
   -31.5933 -31.5930 -31.5928 -31.5843 -31.5841 -31.5841 -31.5716 -31.5711
    -8.7973  -8.0320  -8.0294  -8.0293   3.9964   4.0014   4.0015   5.0845
     5.8424   5.8444   5.8446   6.7042   6.7043   6.7163   7.3543   7.3636

          k = 0.2497 0.2497-0.5000 (  5128 PWs)   bands (ev):

   -64.8286 -64.8282 -64.8262 -64.8256 -31.6281 -31.6280 -31.6207 -31.6206
   -31.5919 -31.5917 -31.5807 -31.5806 -31.5784 -31.5782 -31.5773 -31.5772
    -8.4003  -8.4002  -7.9959  -7.9958   3.8237   3.8238   4.1929   4.1930
     5.8276   5.8276   6.7392   6.7394   6.8675   6.8677   7.0256   7.0256

          k = 0.2505-0.5003 0.0000 (  5148 PWs)   bands (ev):

   -64.8291 -64.8287 -64.8257 -64.8251 -31.6180 -31.6163 -31.6108 -31.6093
   -31.6068 -31.6065 -31.5849 -31.5846 -31.5841 -31.5832 -31.5757 -31.5748
    -8.5113  -8.5078  -7.9488  -7.9450   4.4161   4.4207   4.7502   4.7522
     5.0944   5.0982   6.5404   6.5554   6.5731   6.5785   7.0885   7.0998

          k = 0.2505-0.5003 0.2500 (  5134 PWs)   bands (ev):

   -64.8286 -64.8282 -64.8262 -64.8256 -31.6280 -31.6274 -31.6216 -31.6203
   -31.5929 -31.5926 -31.5808 -31.5802 -31.5783 -31.5780 -31.5775 -31.5770
    -8.4008  -8.3974  -7.9990  -7.9953   3.8177   3.8253   4.1952   4.2008
     5.8287   5.8321   6.7349   6.7458   6.8650   6.8725   7.0144   7.0177

          k = 0.2505-0.5003-0.5000 (  5138 PWs)   bands (ev):

   -64.8274 -64.8274 -64.8274 -64.8264 -31.6320 -31.6319 -31.6309 -31.6308
   -31.5832 -31.5830 -31.5825 -31.5823 -31.5755 -31.5753 -31.5751 -31.5751
    -8.1696  -8.1695  -8.1661  -8.1660   3.6364   3.6364   3.6443   3.6444
     6.5187   6.5187   6.5301   6.5302   7.0627   7.0628   7.0661   7.0662

          k = 0.2503-0.2503 0.0000 (  5161 PWs)   bands (ev):

   -64.8318 -64.8262 -64.8258 -64.8248 -31.6206 -31.6204 -31.6195 -31.6079
   -31.5943 -31.5943 -31.5937 -31.5873 -31.5870 -31.5868 -31.5753 -31.5677
    -8.9649  -8.0652  -8.0651  -7.8889   4.1618   4.1619   4.3298   5.0780
     5.8508   6.0535   6.0539   6.4871   6.4871   6.5723   7.1754   7.4980

          k = 0.2503-0.2503 0.2500 (  5158 PWs)   bands (ev):

   -64.8308 -64.8262 -64.8262 -64.8254 -31.6252 -31.6245 -31.6244 -31.6064
   -31.5943 -31.5942 -31.5940 -31.5841 -31.5840 -31.5836 -31.5713 -31.5709
    -8.7951  -8.0321  -8.0320  -8.0295   3.9994   3.9994   4.0045   5.0938
     5.8469   5.8471   5.8491   6.6946   6.7064   6.7065   7.3471   7.3564

          k = 0.2503-0.2503-0.5000 (  5140 PWs)   bands (ev):

   -64.8286 -64.8282 -64.8262 -64.8256 -31.6276 -31.6274 -31.6214 -31.6213
   -31.5936 -31.5934 -31.5805 -31.5804 -31.5781 -31.5780 -31.5773 -31.5771
    -8.3980  -8.3979  -7.9985  -7.9984   3.8193   3.8193   4.2029   4.2030
     5.8333   5.8333   6.7412   6.7414   6.8700   6.8701   7.0064   7.0065

          k =-0.4995-0.4995 0.0000 (  5216 PWs)   bands (ev):

   -64.8274 -64.8274 -64.8274 -64.8264 -31.6203 -31.6201 -31.6183 -31.6181
   -31.5975 -31.5973 -31.5972 -31.5970 -31.5774 -31.5771 -31.5762 -31.5760
    -8.2079  -8.2078  -8.2028  -8.2027   4.2918   4.2919   4.2947   4.2948
     5.7638   5.7641   5.7702   5.7705   7.0547   7.0547   7.0719   7.0720

          k =-0.4995-0.4995 0.2500 (  5136 PWs)   bands (ev):

   -64.8274 -64.8274 -64.8274 -64.8264 -31.6319 -31.6317 -31.6308 -31.6306
   -31.5831 -31.5830 -31.5825 -31.5825 -31.5760 -31.5758 -31.5748 -31.5746
    -8.1703  -8.1702  -8.1653  -8.1652   3.6371   3.6372   3.6436   3.6436
     6.5233   6.5236   6.5252   6.5254   7.0558   7.0559   7.0730   7.0731

          k =-0.4995-0.4995-0.5000 (  5136 PWs)   bands (ev):

   -64.8274 -64.8274 -64.8274 -64.8264 -31.6407 -31.6405 -31.6382 -31.6381
   -31.5753 -31.5753 -31.5753 -31.5750 -31.5747 -31.5746 -31.5745 -31.5744
    -8.1323  -8.1322  -8.1271  -8.1270   3.2133   3.2133   3.2217   3.2218
     7.0564   7.0565   7.0651   7.0653   7.0653   7.0655   7.0742   7.0742

     highest occupied level (ev):     7.6803

!    total energy              =    -608.39288036 Ry
     Harris-Foulkes estimate   =    -608.39288036 Ry
     estimated scf accuracy    <          1.3E-11 Ry

     The total energy is the sum of the following terms:

     one-electron contribution =    -303.55811652 Ry
     hartree contribution      =     168.06835622 Ry
     xc contribution           =     -97.84642844 Ry
     ewald contribution        =    -375.05669162 Ry

     convergence has been achieved in   5 iterations

     Forces acting on atoms (cartesian axes, Ry/au):

     atom    1 type  1   force =    -0.00003891   -0.00003891    0.00000000
     atom    2 type  1   force =     0.00003818   -0.00005918    0.00000000
     atom    3 type  1   force =    -0.00005918    0.00003818    0.00000000
     atom    4 type  1   force =     0.00007027    0.00007027    0.00000000
     atom    5 type  2   force =    -0.00001812    0.00000229    0.00000000
     atom    6 type  2   force =     0.00000229   -0.00001812    0.00000000
     atom    7 type  2   force =    -0.00000966   -0.00000966    0.00000000
     atom    8 type  2   force =     0.00001513    0.00001513    0.00000000

     Total force =     0.000155     Total SCF correction =     0.000010


     Computing stress (Cartesian axis) and pressure

          total   stress  (Ry/bohr**3)                   (kbar)     P=  -67.97
  -0.00046241  -0.00002037   0.00000000        -68.02     -3.00      0.00
  -0.00002037  -0.00046241   0.00000000         -3.00    -68.02      0.00
   0.00000000   0.00000000  -0.00046136          0.00      0.00    -67.87


     bfgs converged in   5 scf cycles and   4 bfgs steps
     (criteria: energy <  1.0E-05 Ry, force <  1.0E-04 Ry/Bohr)

     End of BFGS Geometry Optimization

     Final energy   =    -608.3928803601 Ry
Begin final coordinates

ATOMIC_POSITIONS (alat)
Mg      -0.000210702  -0.000210702   0.000000000
Mg       0.000231498   0.499776748   0.500000000
Mg       0.499776748   0.000231498   0.500000000
Mg       0.500200411   0.500200411   0.000000000
O        0.499750966   0.000254862   0.000000000
O        0.000254862   0.499750966   0.000000000
O       -0.000245972  -0.000245972   0.500000000
O        0.500242189   0.500242189   0.500000000
End final coordinates



     Writing output data file MgO.0.002143.70.4.save
 
     init_run     :      0.42s CPU      0.44s WALL (       1 calls)
     electrons    :     27.33s CPU     28.02s WALL (       5 calls)
     update_pot   :      0.44s CPU      0.44s WALL (       4 calls)
     forces       :      0.71s CPU      0.72s WALL (       5 calls)
     stress       :      1.54s CPU      1.55s WALL (       5 calls)

     Called by init_run:
     wfcinit      :      0.29s CPU      0.31s WALL (       1 calls)
     potinit      :      0.05s CPU      0.05s WALL (       1 calls)

     Called by electrons:
     c_bands      :     23.80s CPU     24.41s WALL (      30 calls)
     sum_band     :      3.35s CPU      3.40s WALL (      30 calls)
     v_of_rho     :      0.16s CPU      0.16s WALL (      31 calls)
     mix_rho      :      0.02s CPU      0.02s WALL (      30 calls)

     Called by c_bands:
     init_us_2    :      0.35s CPU      0.37s WALL (    1491 calls)
     cegterg      :     22.22s CPU     22.78s WALL (     630 calls)

     Called by sum_band:

     Called by *egterg:
     h_psi        :     16.38s CPU     16.72s WALL (    2135 calls)
     g_psi        :      0.12s CPU      0.12s WALL (    1484 calls)
     cdiaghg      :      3.13s CPU      3.13s WALL (    1946 calls)

     Called by h_psi:
     h_psi:pot    :     16.33s CPU     16.64s WALL (    2135 calls)
     h_psi:calbec :      0.94s CPU      0.94s WALL (    2135 calls)
     vloc_psi     :     14.62s CPU     14.92s WALL (    2135 calls)
     add_vuspsi   :      0.77s CPU      0.77s WALL (    2135 calls)

     General routines
     calbec       :      1.25s CPU      1.24s WALL (    2660 calls)
     fft          :      0.10s CPU      0.11s WALL (     473 calls)
     fftw         :     16.64s CPU     16.32s WALL (  127130 calls)
     davcio       :      0.00s CPU      0.01s WALL (      21 calls)
 
     Parallel routines
     fft_scatter  :      4.33s CPU      4.29s WALL (  127603 calls)
 
     PWSCF        :    30.80s CPU        31.62s WALL

 
   This run was terminated on:  19:10: 8  22Apr2018            

=------------------------------------------------------------------------------=
   JOB DONE.
=------------------------------------------------------------------------------=
