
     Program PWSCF v.6.1 (svn rev. 13369) starts on 22Apr2018 at 19:10:47 

     This program is part of the open-source Quantum ESPRESSO suite
     for quantum simulation of materials; please cite
         "P. Giannozzi et al., J. Phys.:Condens. Matter 21 395502 (2009);
          URL http://www.quantum-espresso.org", 
     in publications or presentations arising from this work. More details at
     http://www.quantum-espresso.org/quote

     Parallel version (MPI), running on     8 processors
     R & G space division:  proc/nbgrp/npool/nimage =       8
     Waiting for input...
     Reading input from standard input
Warning: card       &CELL ignored
Warning: card          CELL_DYNAMICS = 'BFGS' ignored
Warning: card          PRESS = 0.0D0 ignored
Warning: card          PRESS_CONV_THR = 0.01D0 ignored
Warning: card       / ignored

     Current dimensions of program PWSCF are:
     Max number of different atomic species (ntypx) = 10
     Max number of k-points (npk) =  40000
     Max angular momentum in pseudopotentials (lmaxx) =  3

     Subspace diagonalization in iterative solution of the eigenvalue problem:
     a serial algorithm will be used

 
     Parallelization info
     --------------------
     sticks:   dense  smooth     PW     G-vecs:    dense   smooth      PW
     Min         180     180     52                 5150     5150     816
     Max         181     181     53                 5153     5153     819
     Sum        1445    1445    421                41207    41207    6535
 


     bravais-lattice index     =            0
     lattice parameter (alat)  =       8.0448  a.u.
     unit-cell volume          =     520.6402 (a.u.)^3
     number of atoms/cell      =            8
     number of atomic types    =            2
     number of electrons       =        64.00
     number of Kohn-Sham states=           32
     kinetic-energy cutoff     =      70.0000  Ry
     charge density cutoff     =     280.0000  Ry
     convergence threshold     =      1.0E-08
     mixing beta               =       0.7000
     number of iterations used =            8  plain     mixing
     Exchange-correlation      = PBE ( 1  4  3  4 0 0)
     nstep                     =           50


     celldm(1)=   8.044750  celldm(2)=   0.000000  celldm(3)=   0.000000
     celldm(4)=   0.000000  celldm(5)=   0.000000  celldm(6)=   0.000000

     crystal axes: (cart. coord. in units of alat)
               a(1) = (   1.000000   0.002500   0.000000 )  
               a(2) = (   0.002500   1.000000   0.000000 )  
               a(3) = (   0.000000   0.000000   1.000006 )  

     reciprocal axes: (cart. coord. in units 2 pi/alat)
               b(1) = (  1.000006 -0.002500  0.000000 )  
               b(2) = ( -0.002500  1.000006  0.000000 )  
               b(3) = (  0.000000  0.000000  0.999994 )  


     PseudoPot. # 1 for Mg read from file:
     ../pseudo/Mg.pbe.UPF
     MD5 check sum: 4c04d8c6e0476e83eaecaf72fa8acc4d
     Pseudo is Norm-conserving, Zval = 10.0
     Generated using ONCVPSP code by D. R. Hamann
     Using radial grid of 1510 points,  4 beta functions with: 
                l(1) =   0
                l(2) =   0
                l(3) =   1
                l(4) =   1

     PseudoPot. # 2 for O  read from file:
     ../pseudo/O.pbe.UPF
     MD5 check sum: 3e3f909f7470e8921608ab6b1f57bbae
     Pseudo is Norm-conserving + core correction, Zval =  6.0
     Generated using ONCVPSP code by D. R. Hamann
     Using radial grid of  936 points,  5 beta functions with: 
                l(1) =   0
                l(2) =   0
                l(3) =   1
                l(4) =   1
                l(5) =   2

     atomic species   valence    mass     pseudopotential
        Mg            10.00    24.30500     Mg( 1.00)
        O              6.00    15.99940     O ( 1.00)

      4 Sym. Ops. (no inversion) found



   Cartesian axes

     site n.     atom                  positions (alat units)
         1           Mg  tau(   1) = (   0.0000000   0.0000000   0.0000000  )
         2           Mg  tau(   2) = (   0.0000000   0.5000000   0.5000000  )
         3           Mg  tau(   3) = (   0.5000000   0.0000000   0.5000000  )
         4           Mg  tau(   4) = (   0.5000000   0.5000000   0.0000000  )
         5           O   tau(   5) = (   0.5000000   0.0000000   0.0000000  )
         6           O   tau(   6) = (   0.0000000   0.5000000   0.0000000  )
         7           O   tau(   7) = (   0.0000000   0.0000000   0.5000000  )
         8           O   tau(   8) = (   0.5000000   0.5000000   0.5000000  )

     number of k points=    21
                       cart. coord. in units 2pi/alat
        k(    1) = (   0.0000000   0.0000000   0.0000000), wk =   0.0312500
        k(    2) = (   0.0000000   0.0000000   0.2499984), wk =   0.0625000
        k(    3) = (   0.0000000   0.0000000  -0.4999969), wk =   0.0312500
        k(    4) = (  -0.0006250   0.2500016   0.0000000), wk =   0.1250000
        k(    5) = (  -0.0006250   0.2500016   0.2499984), wk =   0.2500000
        k(    6) = (  -0.0006250   0.2500016  -0.4999969), wk =   0.1250000
        k(    7) = (   0.0012500  -0.5000031   0.0000000), wk =   0.0625000
        k(    8) = (   0.0012500  -0.5000031   0.2499984), wk =   0.1250000
        k(    9) = (   0.0012500  -0.5000031  -0.4999969), wk =   0.0625000
        k(   10) = (   0.2493766   0.2493766   0.0000000), wk =   0.0625000
        k(   11) = (   0.2493766   0.2493766   0.2499984), wk =   0.1250000
        k(   12) = (   0.2493766   0.2493766  -0.4999969), wk =   0.0625000
        k(   13) = (   0.2512516  -0.5006281   0.0000000), wk =   0.1250000
        k(   14) = (   0.2512516  -0.5006281   0.2499984), wk =   0.2500000
        k(   15) = (   0.2512516  -0.5006281  -0.4999969), wk =   0.1250000
        k(   16) = (   0.2506266  -0.2506266   0.0000000), wk =   0.0625000
        k(   17) = (   0.2506266  -0.2506266   0.2499984), wk =   0.1250000
        k(   18) = (   0.2506266  -0.2506266  -0.4999969), wk =   0.0625000
        k(   19) = (  -0.4987531  -0.4987531   0.0000000), wk =   0.0312500
        k(   20) = (  -0.4987531  -0.4987531   0.2499984), wk =   0.0625000
        k(   21) = (  -0.4987531  -0.4987531  -0.4999969), wk =   0.0312500

     Dense  grid:    41207 G-vectors     FFT dimensions: (  45,  45,  45)

     Estimated max dynamical RAM per process >      12.51MB

     Estimated total allocated dynamical RAM >     100.04MB

     Check: negative/imaginary core charge=   -0.000007    0.000000

     Initial potential from superposition of free atoms

     starting charge   63.99678, renormalised to   64.00000
     Starting wfc are   36 randomized atomic wfcs

     total cpu time spent up to now is        0.6 secs

     per-process dynamical memory:    48.1 Mb

     Self-consistent Calculation

     iteration #  1     ecut=    70.00 Ry     beta=0.70
     Davidson diagonalization with overlap
     ethr =  1.00E-02,  avg # of iterations =  2.0

     total cpu time spent up to now is        1.4 secs

     total energy              =    -607.72079868 Ry
     Harris-Foulkes estimate   =    -608.84386180 Ry
     estimated scf accuracy    <       1.56065703 Ry

     iteration #  2     ecut=    70.00 Ry     beta=0.70
     Davidson diagonalization with overlap
     ethr =  2.44E-03,  avg # of iterations =  2.9

     total cpu time spent up to now is        2.4 secs

     total energy              =    -608.10606030 Ry
     Harris-Foulkes estimate   =    -608.80295631 Ry
     estimated scf accuracy    <       1.44663912 Ry

     iteration #  3     ecut=    70.00 Ry     beta=0.70
     Davidson diagonalization with overlap
     ethr =  2.26E-03,  avg # of iterations =  2.0

     total cpu time spent up to now is        3.3 secs

     total energy              =    -608.39129593 Ry
     Harris-Foulkes estimate   =    -608.39196363 Ry
     estimated scf accuracy    <       0.00675921 Ry

     iteration #  4     ecut=    70.00 Ry     beta=0.70
     Davidson diagonalization with overlap
     ethr =  1.06E-05,  avg # of iterations =  2.0

     total cpu time spent up to now is        4.1 secs

     total energy              =    -608.39277396 Ry
     Harris-Foulkes estimate   =    -608.39281762 Ry
     estimated scf accuracy    <       0.00010944 Ry

     iteration #  5     ecut=    70.00 Ry     beta=0.70
     Davidson diagonalization with overlap
     ethr =  1.71E-07,  avg # of iterations =  1.5

     total cpu time spent up to now is        4.9 secs

     total energy              =    -608.39278138 Ry
     Harris-Foulkes estimate   =    -608.39277979 Ry
     estimated scf accuracy    <       0.00001023 Ry

     iteration #  6     ecut=    70.00 Ry     beta=0.70
     Davidson diagonalization with overlap
     ethr =  1.60E-08,  avg # of iterations =  2.0

     total cpu time spent up to now is        5.9 secs

     total energy              =    -608.39278295 Ry
     Harris-Foulkes estimate   =    -608.39278334 Ry
     estimated scf accuracy    <       0.00000097 Ry

     iteration #  7     ecut=    70.00 Ry     beta=0.70
     Davidson diagonalization with overlap
     ethr =  1.51E-09,  avg # of iterations =  2.0

     total cpu time spent up to now is        6.7 secs

     total energy              =    -608.39278294 Ry
     Harris-Foulkes estimate   =    -608.39278303 Ry
     estimated scf accuracy    <       0.00000023 Ry

     iteration #  8     ecut=    70.00 Ry     beta=0.70
     Davidson diagonalization with overlap
     ethr =  3.59E-10,  avg # of iterations =  2.0

     total cpu time spent up to now is        7.6 secs

     total energy              =    -608.39278295 Ry
     Harris-Foulkes estimate   =    -608.39278297 Ry
     estimated scf accuracy    <       0.00000004 Ry

     iteration #  9     ecut=    70.00 Ry     beta=0.70
     Davidson diagonalization with overlap
     ethr =  6.03E-11,  avg # of iterations =  2.0

     total cpu time spent up to now is        8.6 secs

     End of self-consistent calculation

          k = 0.0000 0.0000 0.0000 (  5153 PWs)   bands (ev):

   -64.8344 -64.8250 -64.8249 -64.8242 -31.6311 -31.6310 -31.6309 -31.5945
   -31.5934 -31.5933 -31.5932 -31.5932 -31.5922 -31.5652 -31.5643 -31.5638
    -9.3646  -7.9137  -7.9136  -7.9135   3.7581   3.7582   3.7583   6.3511
     6.3800   6.3800   6.3801   6.3804   6.4093   7.6542   7.6724   7.6906

          k = 0.0000 0.0000 0.2500 (  5157 PWs)   bands (ev):

   -64.8330 -64.8262 -64.8249 -64.8243 -31.6246 -31.6245 -31.6203 -31.5980
   -31.5980 -31.5940 -31.5939 -31.5896 -31.5875 -31.5781 -31.5728 -31.5700
    -9.1562  -8.1286  -7.8851  -7.8851   4.0483   4.0487   4.0959   5.8580
     5.8582   6.1706   6.1709   6.5152   6.5713   6.6589   7.4302   7.4707

          k = 0.0000 0.0000-0.5000 (  5118 PWs)   bands (ev):

   -64.8298 -64.8293 -64.8249 -64.8244 -31.6119 -31.6116 -31.6077 -31.6075
   -31.6019 -31.6018 -31.5907 -31.5906 -31.5818 -31.5816 -31.5792 -31.5789
    -8.6460  -8.6458  -7.8563  -7.8563   4.8442   4.8445   4.8510   4.8512
     5.1228   5.1231   5.9735   5.9738   6.9439   6.9441   6.9929   6.9931

          k =-0.0006 0.2500 0.0000 (  5165 PWs)   bands (ev):

   -64.8330 -64.8262 -64.8249 -64.8243 -31.6248 -31.6243 -31.6206 -31.5988
   -31.5983 -31.5938 -31.5934 -31.5890 -31.5888 -31.5787 -31.5714 -31.5712
    -9.1562  -8.1285  -7.8852  -7.8851   4.0484   4.0485   4.0955   5.8559
     5.8582   6.1706   6.1728   6.5428   6.5431   6.6587   7.4502   7.4506

          k =-0.0006 0.2500 0.2500 (  5159 PWs)   bands (ev):

   -64.8318 -64.8262 -64.8258 -64.8247 -31.6211 -31.6208 -31.6198 -31.6071
   -31.5942 -31.5938 -31.5929 -31.5877 -31.5865 -31.5863 -31.5755 -31.5683
    -8.9660  -8.0658  -8.0618  -7.8901   4.1580   4.1648   4.3288   5.0713
     5.8470   6.0503   6.0602   6.4832   6.4878   6.5835   7.1732   7.5058

          k =-0.0006 0.2500-0.5000 (  5150 PWs)   bands (ev):

   -64.8291 -64.8286 -64.8256 -64.8250 -31.6175 -31.6173 -31.6100 -31.6100
   -31.6064 -31.6062 -31.5851 -31.5848 -31.5836 -31.5836 -31.5753 -31.5751
    -8.5097  -8.5094  -7.9468  -7.9467   4.4184   4.4186   4.7511   4.7513
     5.0962   5.0965   6.5479   6.5481   6.5755   6.5757   7.0946   7.0947

          k = 0.0013-0.5000 0.0000 (  5110 PWs)   bands (ev):

   -64.8298 -64.8293 -64.8249 -64.8244 -31.6098 -31.6095 -31.6094 -31.6092
   -31.6018 -31.6017 -31.5907 -31.5906 -31.5805 -31.5803 -31.5802 -31.5800
    -8.6459  -8.6458  -7.8564  -7.8563   4.8475   4.8479   4.8480   4.8480
     5.1229   5.1231   5.9735   5.9741   6.9683   6.9685   6.9685   6.9685

          k = 0.0013-0.5000 0.2500 (  5152 PWs)   bands (ev):

   -64.8291 -64.8286 -64.8256 -64.8251 -31.6174 -31.6172 -31.6101 -31.6100
   -31.6066 -31.6064 -31.5850 -31.5847 -31.5837 -31.5837 -31.5753 -31.5751
    -8.5095  -8.5094  -7.9469  -7.9468   4.4183   4.4184   4.7512   4.7514
     5.0964   5.0965   6.5478   6.5482   6.5759   6.5760   7.0941   7.0942

          k = 0.0013-0.5000-0.5000 (  5192 PWs)   bands (ev):

   -64.8274 -64.8273 -64.8273 -64.8263 -31.6193 -31.6191 -31.6190 -31.6189
   -31.5970 -31.5968 -31.5965 -31.5962 -31.5762 -31.5761 -31.5758 -31.5758
    -8.2079  -8.2079  -8.2026  -8.2025   4.2884   4.2884   4.2982   4.2984
     5.7613   5.7614   5.7742   5.7742   7.0606   7.0610   7.0663   7.0663

          k = 0.2494 0.2494 0.0000 (  5161 PWs)   bands (ev):

   -64.8318 -64.8261 -64.8257 -64.8247 -31.6221 -31.6219 -31.6195 -31.6060
   -31.5941 -31.5940 -31.5911 -31.5891 -31.5857 -31.5855 -31.5754 -31.5699
    -8.9685  -8.0607  -8.0605  -7.8932   4.1603   4.1603   4.3259   5.0558
     5.8385   6.0596   6.0599   6.4794   6.4795   6.6097   7.1684   7.5235

          k = 0.2494 0.2494 0.2500 (  5150 PWs)   bands (ev):

   -64.8308 -64.8262 -64.8261 -64.8253 -31.6266 -31.6264 -31.6244 -31.6051
   -31.5925 -31.5923 -31.5920 -31.5849 -31.5839 -31.5839 -31.5724 -31.5707
    -8.7987  -8.0342  -8.0275  -8.0270   3.9902   4.0029   4.0036   5.0784
     5.8333   5.8429   5.8476   6.7029   6.7031   6.7308   7.3529   7.3748

          k = 0.2494 0.2494-0.5000 (  5128 PWs)   bands (ev):

   -64.8286 -64.8282 -64.8261 -64.8255 -31.6292 -31.6291 -31.6202 -31.6201
   -31.5911 -31.5909 -31.5810 -31.5810 -31.5788 -31.5786 -31.5767 -31.5766
    -8.4018  -8.4016  -7.9940  -7.9939   3.8264   3.8267   4.1864   4.1864
     5.8236   5.8237   6.7378   6.7380   6.8659   6.8662   7.0385   7.0386

          k = 0.2513-0.5006 0.0000 (  5148 PWs)   bands (ev):

   -64.8291 -64.8286 -64.8256 -64.8250 -31.6193 -31.6153 -31.6116 -31.6081
   -31.6068 -31.6065 -31.5849 -31.5847 -31.5847 -31.5825 -31.5761 -31.5741
    -8.5135  -8.5055  -7.9512  -7.9424   4.4130   4.4238   4.7490   4.7536
     5.0918   5.1008   6.5306   6.5657   6.5696   6.5822   7.0812   7.1076

          k = 0.2513-0.5006 0.2500 (  5134 PWs)   bands (ev):

   -64.8286 -64.8282 -64.8261 -64.8255 -31.6290 -31.6268 -31.6223 -31.6194
   -31.5929 -31.5927 -31.5813 -31.5801 -31.5788 -31.5780 -31.5771 -31.5761
    -8.4030  -8.3950  -8.0013  -7.9928   3.8128   3.8303   4.1915   4.2046
     5.8263   5.8344   6.7277   6.7531   6.8599   6.8774   7.0127   7.0204

          k = 0.2513-0.5006-0.5000 (  5144 PWs)   bands (ev):

   -64.8274 -64.8273 -64.8273 -64.8263 -31.6328 -31.6326 -31.6304 -31.6303
   -31.5837 -31.5835 -31.5825 -31.5823 -31.5754 -31.5753 -31.5749 -31.5748
    -8.1723  -8.1722  -8.1633  -8.1632   3.6304   3.6305   3.6502   3.6504
     6.5103   6.5104   6.5385   6.5387   7.0600   7.0603   7.0689   7.0690

          k = 0.2506-0.2506 0.0000 (  5161 PWs)   bands (ev):

   -64.8318 -64.8262 -64.8258 -64.8247 -31.6197 -31.6196 -31.6194 -31.6089
   -31.5947 -31.5942 -31.5941 -31.5873 -31.5871 -31.5866 -31.5754 -31.5676
    -8.9634  -8.0669  -8.0669  -7.8872   4.1627   4.1628   4.3314   5.0868
     5.8558   6.0514   6.0517   6.4903   6.4904   6.5577   7.1782   7.4876

          k = 0.2506-0.2506 0.2500 (  5160 PWs)   bands (ev):

   -64.8307 -64.8262 -64.8261 -64.8253 -31.6255 -31.6237 -31.6236 -31.6067
   -31.5952 -31.5949 -31.5945 -31.5839 -31.5839 -31.5828 -31.5717 -31.5703
    -8.7936  -8.0343  -8.0337  -8.0272   3.9972   3.9981   4.0108   5.1001
     5.8440   5.8489   5.8584   6.6805   6.7079   6.7081   7.3361   7.3578

          k = 0.2506-0.2506-0.5000 (  5148 PWs)   bands (ev):

   -64.8285 -64.8281 -64.8262 -64.8256 -31.6271 -31.6270 -31.6218 -31.6217
   -31.5948 -31.5946 -31.5803 -31.5802 -31.5786 -31.5785 -31.5765 -31.5762
    -8.3965  -8.3963  -8.0001  -8.0001   3.8163   3.8163   4.2096   4.2099
     5.8370   5.8371   6.7426   6.7428   6.8717   6.8718   6.9938   6.9940

          k =-0.4988-0.4988 0.0000 (  5196 PWs)   bands (ev):

   -64.8274 -64.8274 -64.8273 -64.8263 -31.6212 -31.6209 -31.6169 -31.6166
   -31.5973 -31.5972 -31.5971 -31.5969 -31.5766 -31.5764 -31.5754 -31.5751
    -8.2112  -8.2112  -8.1993  -8.1992   4.2900   4.2900   4.2967   4.2967
     5.7597   5.7600   5.7744   5.7748   7.0434   7.0434   7.0840   7.0841

          k =-0.4988-0.4988 0.2500 (  5136 PWs)   bands (ev):

   -64.8274 -64.8273 -64.8273 -64.8263 -31.6328 -31.6326 -31.6305 -31.6304
   -31.5833 -31.5833 -31.5819 -31.5819 -31.5764 -31.5761 -31.5740 -31.5737
    -8.1736  -8.1736  -8.1619  -8.1618   3.6328   3.6328   3.6479   3.6479
     6.5223   6.5225   6.5264   6.5267   7.0446   7.0446   7.0848   7.0849

          k =-0.4988-0.4988-0.5000 (  5136 PWs)   bands (ev):

   -64.8274 -64.8273 -64.8273 -64.8263 -31.6399 -31.6397 -31.6391 -31.6390
   -31.5756 -31.5753 -31.5751 -31.5749 -31.5748 -31.5747 -31.5744 -31.5742
    -8.1355  -8.1355  -8.1238  -8.1237   3.2081   3.2081   3.2270   3.2271
     7.0452   7.0453   7.0646   7.0649   7.0657   7.0659   7.0858   7.0858

     highest occupied level (ev):     7.6906

!    total energy              =    -608.39278295 Ry
     Harris-Foulkes estimate   =    -608.39278295 Ry
     estimated scf accuracy    <          1.2E-09 Ry

     The total energy is the sum of the following terms:

     one-electron contribution =    -303.55675713 Ry
     hartree contribution      =     168.06755694 Ry
     xc contribution           =     -97.84637034 Ry
     ewald contribution        =    -375.05721243 Ry

     convergence has been achieved in   9 iterations

     Forces acting on atoms (cartesian axes, Ry/au):

     atom    1 type  1   force =    -0.00057443   -0.00057443    0.00000000
     atom    2 type  1   force =     0.00065535   -0.00060353    0.00000000
     atom    3 type  1   force =    -0.00060353    0.00065535    0.00000000
     atom    4 type  1   force =     0.00049903    0.00049903    0.00000000
     atom    5 type  2   force =    -0.00074042    0.00078645    0.00000000
     atom    6 type  2   force =     0.00078645   -0.00074042    0.00000000
     atom    7 type  2   force =    -0.00072833   -0.00072833    0.00000000
     atom    8 type  2   force =     0.00070588    0.00070588    0.00000000

     Total force =     0.002671     Total SCF correction =     0.000008


     Computing stress (Cartesian axis) and pressure

          total   stress  (Ry/bohr**3)                   (kbar)     P=  -68.08
  -0.00046286  -0.00004868   0.00000000        -68.09     -7.16      0.00
  -0.00004868  -0.00046286   0.00000000         -7.16    -68.09      0.00
   0.00000000   0.00000000  -0.00046259          0.00      0.00    -68.05


     BFGS Geometry Optimization

     number of scf cycles    =   1
     number of bfgs steps    =   0

     energy   new            =    -608.3927829532 Ry

     new trust radius        =       0.0010801552 bohr
     new conv_thr            =       0.0000000100 Ry


ATOMIC_POSITIONS (alat)
Mg      -0.000071404  -0.000071404   0.000000000
Mg       0.000081462   0.499924979   0.500000000
Mg       0.499924979   0.000081462   0.500000000
Mg       0.500062031   0.500062031   0.000000000
O        0.499907962   0.000097760   0.000000000
O        0.000097760   0.499907962   0.000000000
O       -0.000090534  -0.000090534   0.500000000
O        0.500087744   0.500087744   0.500000000



     Writing output data file MgO.0.005.70.4.save
     NEW-OLD atomic charge density approx. for the potential

     Check: negative/imaginary core charge=   -0.000007    0.000000

     total cpu time spent up to now is        9.2 secs

     per-process dynamical memory:    52.8 Mb

     Self-consistent Calculation

     iteration #  1     ecut=    70.00 Ry     beta=0.70
     Davidson diagonalization with overlap
     ethr =  1.00E-06,  avg # of iterations =  2.4

     Threshold (ethr) on eigenvalues was too large:
     Diagonalizing with lowered threshold

     Davidson diagonalization with overlap
     ethr =  5.58E-10,  avg # of iterations =  3.0

     total cpu time spent up to now is       11.3 secs

     total energy              =    -608.39278951 Ry
     Harris-Foulkes estimate   =    -608.39278978 Ry
     estimated scf accuracy    <       0.00000047 Ry

     iteration #  2     ecut=    70.00 Ry     beta=0.70
     Davidson diagonalization with overlap
     ethr =  7.39E-10,  avg # of iterations =  2.0

     total cpu time spent up to now is       12.1 secs

     total energy              =    -608.39278959 Ry
     Harris-Foulkes estimate   =    -608.39278959 Ry
     estimated scf accuracy    <       0.00000001 Ry

     iteration #  3     ecut=    70.00 Ry     beta=0.70
     Davidson diagonalization with overlap
     ethr =  2.02E-11,  avg # of iterations =  2.1

     total cpu time spent up to now is       13.0 secs

     End of self-consistent calculation

          k = 0.0000 0.0000 0.0000 (  5153 PWs)   bands (ev):

   -64.8346 -64.8252 -64.8251 -64.8243 -31.6312 -31.6312 -31.6310 -31.5947
   -31.5935 -31.5935 -31.5934 -31.5933 -31.5923 -31.5654 -31.5644 -31.5639
    -9.3645  -7.9137  -7.9135  -7.9134   3.7582   3.7582   3.7583   6.3511
     6.3800   6.3801   6.3802   6.3805   6.4094   7.6542   7.6724   7.6907

          k = 0.0000 0.0000 0.2500 (  5157 PWs)   bands (ev):

   -64.8332 -64.8264 -64.8251 -64.8245 -31.6248 -31.6247 -31.6205 -31.5982
   -31.5981 -31.5941 -31.5941 -31.5898 -31.5877 -31.5783 -31.5729 -31.5701
    -9.1561  -8.1285  -7.8851  -7.8849   4.0484   4.0488   4.0958   5.8581
     5.8582   6.1706   6.1710   6.5153   6.5713   6.6589   7.4302   7.4707

          k = 0.0000 0.0000-0.5000 (  5118 PWs)   bands (ev):

   -64.8300 -64.8295 -64.8251 -64.8246 -31.6121 -31.6118 -31.6078 -31.6076
   -31.6020 -31.6020 -31.5909 -31.5908 -31.5820 -31.5818 -31.5794 -31.5791
    -8.6460  -8.6457  -7.8563  -7.8561   4.8444   4.8445   4.8510   4.8513
     5.1228   5.1231   5.9735   5.9739   6.9440   6.9441   6.9929   6.9932

          k =-0.0006 0.2500 0.0000 (  5165 PWs)   bands (ev):

   -64.8332 -64.8264 -64.8251 -64.8245 -31.6249 -31.6245 -31.6207 -31.5989
   -31.5985 -31.5940 -31.5936 -31.5891 -31.5890 -31.5789 -31.5716 -31.5713
    -9.1561  -8.1284  -7.8852  -7.8850   4.0485   4.0486   4.0956   5.8560
     5.8582   6.1707   6.1728   6.5429   6.5431   6.6587   7.4503   7.4507

          k =-0.0006 0.2500 0.2500 (  5159 PWs)   bands (ev):

   -64.8320 -64.8264 -64.8260 -64.8249 -31.6213 -31.6210 -31.6199 -31.6072
   -31.5943 -31.5940 -31.5931 -31.5879 -31.5867 -31.5864 -31.5757 -31.5685
    -8.9659  -8.0654  -8.0620  -7.8900   4.1586   4.1643   4.3288   5.0714
     5.8471   6.0511   6.0595   6.4835   6.4875   6.5836   7.1733   7.5059

          k =-0.0006 0.2500-0.5000 (  5150 PWs)   bands (ev):

   -64.8293 -64.8288 -64.8258 -64.8252 -31.6177 -31.6175 -31.6102 -31.6102
   -31.6066 -31.6064 -31.5853 -31.5850 -31.5838 -31.5837 -31.5754 -31.5753
    -8.5096  -8.5093  -7.9468  -7.9466   4.4184   4.4186   4.7511   4.7514
     5.0962   5.0966   6.5479   6.5482   6.5756   6.5758   7.0947   7.0947

          k = 0.0013-0.5000 0.0000 (  5110 PWs)   bands (ev):

   -64.8300 -64.8295 -64.8251 -64.8246 -31.6099 -31.6097 -31.6096 -31.6093
   -31.6020 -31.6019 -31.5909 -31.5908 -31.5807 -31.5804 -31.5804 -31.5801
    -8.6458  -8.6457  -7.8564  -7.8562   4.8475   4.8480   4.8480   4.8481
     5.1229   5.1232   5.9735   5.9741   6.9683   6.9685   6.9686   6.9686

          k = 0.0013-0.5000 0.2500 (  5152 PWs)   bands (ev):

   -64.8293 -64.8288 -64.8258 -64.8252 -31.6175 -31.6174 -31.6103 -31.6102
   -31.6068 -31.6066 -31.5851 -31.5849 -31.5839 -31.5838 -31.5755 -31.5753
    -8.5095  -8.5094  -7.9468  -7.9467   4.4183   4.4184   4.7512   4.7515
     5.0964   5.0966   6.5479   6.5482   6.5760   6.5761   7.0942   7.0943

          k = 0.0013-0.5000-0.5000 (  5192 PWs)   bands (ev):

   -64.8276 -64.8275 -64.8275 -64.8265 -31.6194 -31.6193 -31.6191 -31.6191
   -31.5971 -31.5969 -31.5967 -31.5964 -31.5764 -31.5762 -31.5760 -31.5760
    -8.2075  -8.2074  -8.2030  -8.2028   4.2892   4.2892   4.2975   4.2976
     5.7623   5.7625   5.7732   5.7733   7.0611   7.0614   7.0659   7.0660

          k = 0.2494 0.2494 0.0000 (  5161 PWs)   bands (ev):

   -64.8320 -64.8263 -64.8259 -64.8249 -31.6223 -31.6221 -31.6197 -31.6061
   -31.5942 -31.5942 -31.5913 -31.5892 -31.5859 -31.5857 -31.5756 -31.5701
    -8.9685  -8.0606  -8.0604  -7.8932   4.1603   4.1604   4.3260   5.0559
     5.8386   6.0596   6.0600   6.4795   6.4795   6.6097   7.1685   7.5235

          k = 0.2494 0.2494 0.2500 (  5150 PWs)   bands (ev):

   -64.8310 -64.8264 -64.8263 -64.8255 -31.6267 -31.6265 -31.6246 -31.6053
   -31.5927 -31.5924 -31.5921 -31.5851 -31.5841 -31.5840 -31.5726 -31.5709
    -8.7987  -8.0339  -8.0273  -8.0271   3.9904   4.0029   4.0034   5.0784
     5.8343   5.8430   5.8467   6.7029   6.7032   6.7309   7.3530   7.3748

          k = 0.2494 0.2494-0.5000 (  5128 PWs)   bands (ev):

   -64.8288 -64.8284 -64.8263 -64.8257 -31.6294 -31.6292 -31.6203 -31.6202
   -31.5913 -31.5910 -31.5812 -31.5812 -31.5790 -31.5787 -31.5768 -31.5767
    -8.4018  -8.4015  -7.9940  -7.9938   3.8265   3.8267   4.1864   4.1865
     5.8236   5.8238   6.7378   6.7381   6.8660   6.8662   7.0385   7.0387

          k = 0.2513-0.5006 0.0000 (  5148 PWs)   bands (ev):

   -64.8293 -64.8288 -64.8258 -64.8252 -31.6194 -31.6154 -31.6117 -31.6082
   -31.6070 -31.6067 -31.5851 -31.5849 -31.5848 -31.5827 -31.5763 -31.5742
    -8.5134  -8.5054  -7.9511  -7.9424   4.4131   4.4239   4.7490   4.7537
     5.0919   5.1008   6.5307   6.5657   6.5697   6.5822   7.0813   7.1076

          k = 0.2513-0.5006 0.2500 (  5134 PWs)   bands (ev):

   -64.8288 -64.8284 -64.8263 -64.8257 -31.6291 -31.6270 -31.6225 -31.6195
   -31.5931 -31.5928 -31.5814 -31.5802 -31.5789 -31.5782 -31.5773 -31.5763
    -8.4029  -8.3949  -8.0013  -7.9927   3.8128   3.8303   4.1916   4.2046
     5.8264   5.8344   6.7278   6.7532   6.8600   6.8774   7.0127   7.0205

          k = 0.2513-0.5006-0.5000 (  5144 PWs)   bands (ev):

   -64.8276 -64.8275 -64.8275 -64.8265 -31.6330 -31.6328 -31.6306 -31.6304
   -31.5839 -31.5837 -31.5826 -31.5824 -31.5756 -31.5754 -31.5751 -31.5750
    -8.1721  -8.1719  -8.1634  -8.1632   3.6306   3.6307   3.6501   3.6502
     6.5105   6.5107   6.5384   6.5385   7.0602   7.0604   7.0689   7.0690

          k = 0.2506-0.2506 0.0000 (  5161 PWs)   bands (ev):

   -64.8319 -64.8264 -64.8260 -64.8249 -31.6198 -31.6197 -31.6196 -31.6091
   -31.5948 -31.5944 -31.5943 -31.5875 -31.5873 -31.5867 -31.5755 -31.5677
    -8.9634  -8.0669  -8.0667  -7.8871   4.1627   4.1628   4.3314   5.0869
     5.8558   6.0514   6.0518   6.4904   6.4905   6.5577   7.1782   7.4877

          k = 0.2506-0.2506 0.2500 (  5160 PWs)   bands (ev):

   -64.8309 -64.8264 -64.8263 -64.8255 -31.6257 -31.6239 -31.6238 -31.6069
   -31.5954 -31.5951 -31.5947 -31.5841 -31.5841 -31.5830 -31.5719 -31.5705
    -8.7935  -8.0340  -8.0337  -8.0272   3.9975   3.9982   4.0106   5.1002
     5.8450   5.8489   5.8575   6.6805   6.7079   6.7082   7.3361   7.3578

          k = 0.2506-0.2506-0.5000 (  5148 PWs)   bands (ev):

   -64.8287 -64.8283 -64.8264 -64.8257 -31.6273 -31.6272 -31.6220 -31.6219
   -31.5950 -31.5948 -31.5804 -31.5804 -31.5787 -31.5787 -31.5766 -31.5764
    -8.3964  -8.3962  -8.0001  -7.9999   3.8163   3.8164   4.2096   4.2099
     5.8371   5.8371   6.7426   6.7429   6.8718   6.8718   6.9939   6.9940

          k =-0.4988-0.4988 0.0000 (  5196 PWs)   bands (ev):

   -64.8276 -64.8276 -64.8275 -64.8265 -31.6214 -31.6211 -31.6170 -31.6168
   -31.5975 -31.5973 -31.5973 -31.5970 -31.5768 -31.5765 -31.5755 -31.5753
    -8.2112  -8.2110  -8.1993  -8.1991   4.2899   4.2901   4.2967   4.2968
     5.7597   5.7601   5.7745   5.7749   7.0434   7.0435   7.0840   7.0842

          k =-0.4988-0.4988 0.2500 (  5136 PWs)   bands (ev):

   -64.8276 -64.8275 -64.8275 -64.8265 -31.6330 -31.6328 -31.6307 -31.6305
   -31.5835 -31.5834 -31.5820 -31.5820 -31.5766 -31.5763 -31.5741 -31.5739
    -8.1736  -8.1735  -8.1619  -8.1616   3.6328   3.6329   3.6479   3.6480
     6.5223   6.5226   6.5265   6.5268   7.0446   7.0447   7.0848   7.0850

          k =-0.4988-0.4988-0.5000 (  5136 PWs)   bands (ev):

   -64.8276 -64.8275 -64.8275 -64.8265 -31.6400 -31.6399 -31.6393 -31.6391
   -31.5757 -31.5755 -31.5752 -31.5750 -31.5750 -31.5748 -31.5746 -31.5743
    -8.1355  -8.1354  -8.1238  -8.1235   3.2081   3.2082   3.2270   3.2271
     7.0452   7.0453   7.0647   7.0650   7.0658   7.0660   7.0858   7.0859

     highest occupied level (ev):     7.6907

!    total energy              =    -608.39278959 Ry
     Harris-Foulkes estimate   =    -608.39278959 Ry
     estimated scf accuracy    <          1.8E-09 Ry

     The total energy is the sum of the following terms:

     one-electron contribution =    -303.55694124 Ry
     hartree contribution      =     168.06767112 Ry
     xc contribution           =     -97.84636104 Ry
     ewald contribution        =    -375.05715843 Ry

     convergence has been achieved in   3 iterations

     Forces acting on atoms (cartesian axes, Ry/au):

     atom    1 type  1   force =    -0.00051994   -0.00051994    0.00000000
     atom    2 type  1   force =     0.00057439   -0.00054438    0.00000000
     atom    3 type  1   force =    -0.00054438    0.00057439    0.00000000
     atom    4 type  1   force =     0.00047516    0.00047516    0.00000000
     atom    5 type  2   force =    -0.00063629    0.00066286    0.00000000
     atom    6 type  2   force =     0.00066286   -0.00063629    0.00000000
     atom    7 type  2   force =    -0.00062174   -0.00062174    0.00000000
     atom    8 type  2   force =     0.00060995    0.00060995    0.00000000

     Total force =     0.002335     Total SCF correction =     0.000063


     Computing stress (Cartesian axis) and pressure

          total   stress  (Ry/bohr**3)                   (kbar)     P=  -68.04
  -0.00046262  -0.00004868   0.00000000        -68.05     -7.16      0.00
  -0.00004868  -0.00046262   0.00000000         -7.16    -68.05      0.00
   0.00000000   0.00000000  -0.00046233          0.00      0.00    -68.01


     number of scf cycles    =   2
     number of bfgs steps    =   1

     energy   old            =    -608.3927829532 Ry
     energy   new            =    -608.3927895898 Ry

     CASE: energy  _new < energy  _old


     WARNING: bfgs curvature condition failed, Theta= 0.916
     new trust radius        =       0.0011881707 bohr
     new conv_thr            =            1.0E-10 Ry


ATOMIC_POSITIONS (alat)
Mg      -0.000154378  -0.000154378   0.000000000
Mg       0.000173466   0.499838070   0.500000000
Mg       0.499838070   0.000173466   0.500000000
Mg       0.500137434   0.500137434   0.000000000
O        0.499805806   0.000204428   0.000000000
O        0.000204428   0.499805806   0.000000000
O       -0.000190433  -0.000190433   0.500000000
O        0.500185606   0.500185606   0.500000000



     Writing output data file MgO.0.005.70.4.save
     NEW-OLD atomic charge density approx. for the potential

     Check: negative/imaginary core charge=   -0.000007    0.000000

     total cpu time spent up to now is       13.6 secs

     per-process dynamical memory:    52.8 Mb

     Self-consistent Calculation

     iteration #  1     ecut=    70.00 Ry     beta=0.70
     Davidson diagonalization with overlap
     ethr =  1.00E-06,  avg # of iterations =  2.5

     Threshold (ethr) on eigenvalues was too large:
     Diagonalizing with lowered threshold

     Davidson diagonalization with overlap
     ethr =  6.73E-10,  avg # of iterations =  3.0

     total cpu time spent up to now is       15.7 secs

     total energy              =    -608.39279578 Ry
     Harris-Foulkes estimate   =    -608.39279610 Ry
     estimated scf accuracy    <       0.00000057 Ry

     iteration #  2     ecut=    70.00 Ry     beta=0.70
     Davidson diagonalization with overlap
     ethr =  8.84E-10,  avg # of iterations =  2.0

     total cpu time spent up to now is       16.5 secs

     total energy              =    -608.39279588 Ry
     Harris-Foulkes estimate   =    -608.39279589 Ry
     estimated scf accuracy    <       0.00000002 Ry

     iteration #  3     ecut=    70.00 Ry     beta=0.70
     Davidson diagonalization with overlap
     ethr =  3.49E-11,  avg # of iterations =  3.0

     total cpu time spent up to now is       17.5 secs

     total energy              =    -608.39279588 Ry
     Harris-Foulkes estimate   =    -608.39279589 Ry
     estimated scf accuracy    <       0.00000001 Ry

     iteration #  4     ecut=    70.00 Ry     beta=0.70
     Davidson diagonalization with overlap
     ethr =  1.72E-11,  avg # of iterations =  3.0

     total cpu time spent up to now is       18.5 secs

     total energy              =    -608.39279588 Ry
     Harris-Foulkes estimate   =    -608.39279589 Ry
     estimated scf accuracy    <          2.2E-09 Ry

     iteration #  5     ecut=    70.00 Ry     beta=0.70
     Davidson diagonalization with overlap
     ethr =  3.46E-12,  avg # of iterations =  2.7

     total cpu time spent up to now is       19.4 secs

     End of self-consistent calculation

          k = 0.0000 0.0000 0.0000 (  5153 PWs)   bands (ev):

   -64.8346 -64.8251 -64.8251 -64.8243 -31.6312 -31.6312 -31.6310 -31.5946
   -31.5935 -31.5935 -31.5934 -31.5933 -31.5923 -31.5654 -31.5644 -31.5639
    -9.3646  -7.9137  -7.9135  -7.9135   3.7581   3.7582   3.7583   6.3511
     6.3800   6.3801   6.3802   6.3804   6.4094   7.6542   7.6724   7.6907

          k = 0.0000 0.0000 0.2500 (  5157 PWs)   bands (ev):

   -64.8332 -64.8264 -64.8251 -64.8245 -31.6247 -31.6247 -31.6204 -31.5981
   -31.5981 -31.5941 -31.5941 -31.5898 -31.5876 -31.5783 -31.5729 -31.5701
    -9.1561  -8.1285  -7.8851  -7.8850   4.0485   4.0487   4.0957   5.8581
     5.8582   6.1706   6.1709   6.5152   6.5713   6.6589   7.4302   7.4707

          k = 0.0000 0.0000-0.5000 (  5118 PWs)   bands (ev):

   -64.8300 -64.8295 -64.8251 -64.8245 -31.6120 -31.6118 -31.6078 -31.6076
   -31.6020 -31.6020 -31.5908 -31.5908 -31.5820 -31.5817 -31.5794 -31.5791
    -8.6460  -8.6457  -7.8563  -7.8562   4.8444   4.8445   4.8511   4.8513
     5.1227   5.1230   5.9735   5.9739   6.9439   6.9441   6.9929   6.9931

          k =-0.0006 0.2500 0.0000 (  5165 PWs)   bands (ev):

   -64.8332 -64.8264 -64.8251 -64.8245 -31.6249 -31.6245 -31.6207 -31.5989
   -31.5985 -31.5940 -31.5935 -31.5891 -31.5890 -31.5789 -31.5716 -31.5713
    -9.1561  -8.1284  -7.8852  -7.8851   4.0485   4.0485   4.0955   5.8560
     5.8582   6.1707   6.1727   6.5429   6.5431   6.6587   7.4503   7.4506

          k =-0.0006 0.2500 0.2500 (  5159 PWs)   bands (ev):

   -64.8320 -64.8263 -64.8260 -64.8249 -31.6213 -31.6209 -31.6199 -31.6072
   -31.5943 -31.5940 -31.5931 -31.5879 -31.5866 -31.5864 -31.5757 -31.5685
    -8.9660  -8.0651  -8.0624  -7.8901   4.1592   4.1637   4.3288   5.0714
     5.8470   6.0519   6.0586   6.4838   6.4871   6.5836   7.1732   7.5059

          k =-0.0006 0.2500-0.5000 (  5150 PWs)   bands (ev):

   -64.8293 -64.8288 -64.8258 -64.8252 -31.6176 -31.6175 -31.6102 -31.6101
   -31.6066 -31.6063 -31.5852 -31.5850 -31.5838 -31.5837 -31.5754 -31.5753
    -8.5096  -8.5094  -7.9468  -7.9467   4.4184   4.4186   4.7511   4.7513
     5.0962   5.0965   6.5479   6.5482   6.5755   6.5757   7.0946   7.0947

          k = 0.0013-0.5000 0.0000 (  5110 PWs)   bands (ev):

   -64.8300 -64.8295 -64.8251 -64.8246 -31.6099 -31.6097 -31.6095 -31.6093
   -31.6020 -31.6019 -31.5908 -31.5907 -31.5806 -31.5804 -31.5803 -31.5801
    -8.6459  -8.6457  -7.8564  -7.8563   4.8475   4.8479   4.8480   4.8481
     5.1229   5.1232   5.9735   5.9740   6.9683   6.9685   6.9685   6.9685

          k = 0.0013-0.5000 0.2500 (  5152 PWs)   bands (ev):

   -64.8293 -64.8288 -64.8258 -64.8252 -31.6175 -31.6174 -31.6102 -31.6102
   -31.6068 -31.6066 -31.5851 -31.5849 -31.5839 -31.5838 -31.5755 -31.5753
    -8.5095  -8.5094  -7.9468  -7.9467   4.4183   4.4185   4.7512   4.7514
     5.0963   5.0966   6.5479   6.5481   6.5759   6.5760   7.0941   7.0943

          k = 0.0013-0.5000-0.5000 (  5192 PWs)   bands (ev):

   -64.8276 -64.8275 -64.8275 -64.8265 -31.6194 -31.6193 -31.6191 -31.6191
   -31.5971 -31.5969 -31.5967 -31.5964 -31.5764 -31.5762 -31.5760 -31.5760
    -8.2071  -8.2070  -8.2034  -8.2034   4.2900   4.2900   4.2966   4.2968
     5.7633   5.7635   5.7721   5.7723   7.0616   7.0618   7.0654   7.0655

          k = 0.2494 0.2494 0.0000 (  5161 PWs)   bands (ev):

   -64.8320 -64.8263 -64.8259 -64.8249 -31.6222 -31.6221 -31.6197 -31.6061
   -31.5942 -31.5942 -31.5913 -31.5892 -31.5859 -31.5857 -31.5756 -31.5700
    -8.9685  -8.0606  -8.0605  -7.8932   4.1603   4.1603   4.3259   5.0559
     5.8385   6.0596   6.0599   6.4795   6.4795   6.6097   7.1684   7.5235

          k = 0.2494 0.2494 0.2500 (  5150 PWs)   bands (ev):

   -64.8310 -64.8263 -64.8263 -64.8255 -31.6267 -31.6265 -31.6246 -31.6052
   -31.5926 -31.5924 -31.5921 -31.5851 -31.5841 -31.5840 -31.5725 -31.5709
    -8.7987  -8.0338  -8.0274  -8.0272   3.9906   4.0029   4.0032   5.0784
     5.8353   5.8429   5.8457   6.7029   6.7031   6.7309   7.3530   7.3748

          k = 0.2494 0.2494-0.5000 (  5128 PWs)   bands (ev):

   -64.8288 -64.8284 -64.8263 -64.8257 -31.6294 -31.6292 -31.6203 -31.6202
   -31.5913 -31.5910 -31.5812 -31.5812 -31.5790 -31.5787 -31.5768 -31.5767
    -8.4018  -8.4016  -7.9940  -7.9939   3.8265   3.8267   4.1863   4.1864
     5.8236   5.8237   6.7378   6.7381   6.8659   6.8662   7.0385   7.0386

          k = 0.2513-0.5006 0.0000 (  5148 PWs)   bands (ev):

   -64.8293 -64.8288 -64.8258 -64.8252 -31.6194 -31.6154 -31.6117 -31.6082
   -31.6070 -31.6067 -31.5851 -31.5849 -31.5848 -31.5826 -31.5763 -31.5742
    -8.5134  -8.5054  -7.9512  -7.9424   4.4131   4.4239   4.7490   4.7536
     5.0919   5.1008   6.5306   6.5657   6.5696   6.5822   7.0813   7.1076

          k = 0.2513-0.5006 0.2500 (  5134 PWs)   bands (ev):

   -64.8288 -64.8283 -64.8263 -64.8257 -31.6291 -31.6269 -31.6224 -31.6195
   -31.5931 -31.5928 -31.5814 -31.5802 -31.5789 -31.5782 -31.5773 -31.5762
    -8.4029  -8.3950  -8.0013  -7.9928   3.8128   3.8303   4.1915   4.2046
     5.8264   5.8344   6.7278   6.7532   6.8599   6.8774   7.0127   7.0204

          k = 0.2513-0.5006-0.5000 (  5144 PWs)   bands (ev):

   -64.8276 -64.8275 -64.8275 -64.8265 -31.6329 -31.6328 -31.6305 -31.6304
   -31.5839 -31.5836 -31.5826 -31.5824 -31.5756 -31.5754 -31.5751 -31.5750
    -8.1720  -8.1719  -8.1635  -8.1634   3.6308   3.6308   3.6499   3.6500
     6.5107   6.5109   6.5381   6.5383   7.0603   7.0605   7.0687   7.0688

          k = 0.2506-0.2506 0.0000 (  5161 PWs)   bands (ev):

   -64.8319 -64.8264 -64.8260 -64.8249 -31.6198 -31.6197 -31.6196 -31.6091
   -31.5948 -31.5943 -31.5943 -31.5874 -31.5873 -31.5867 -31.5755 -31.5677
    -8.9634  -8.0669  -8.0668  -7.8871   4.1627   4.1628   4.3314   5.0869
     5.8558   6.0514   6.0518   6.4903   6.4904   6.5577   7.1782   7.4876

          k = 0.2506-0.2506 0.2500 (  5160 PWs)   bands (ev):

   -64.8309 -64.8264 -64.8263 -64.8255 -31.6257 -31.6239 -31.6238 -31.6069
   -31.5953 -31.5951 -31.5947 -31.5841 -31.5841 -31.5830 -31.5718 -31.5705
    -8.7935  -8.0340  -8.0337  -8.0274   3.9977   3.9981   4.0103   5.1001
     5.8460   5.8489   5.8564   6.6805   6.7079   6.7081   7.3361   7.3578

          k = 0.2506-0.2506-0.5000 (  5148 PWs)   bands (ev):

   -64.8287 -64.8283 -64.8264 -64.8257 -31.6273 -31.6271 -31.6220 -31.6219
   -31.5950 -31.5947 -31.5804 -31.5804 -31.5787 -31.5786 -31.5766 -31.5764
    -8.3964  -8.3962  -8.0001  -8.0000   3.8164   3.8164   4.2096   4.2098
     5.8371   5.8371   6.7426   6.7428   6.8717   6.8718   6.9938   6.9940

          k =-0.4988-0.4988 0.0000 (  5196 PWs)   bands (ev):

   -64.8276 -64.8275 -64.8275 -64.8265 -31.6214 -31.6211 -31.6170 -31.6168
   -31.5975 -31.5973 -31.5973 -31.5970 -31.5768 -31.5765 -31.5755 -31.5753
    -8.2112  -8.2111  -8.1993  -8.1992   4.2899   4.2901   4.2967   4.2967
     5.7597   5.7601   5.7745   5.7748   7.0434   7.0434   7.0840   7.0841

          k =-0.4988-0.4988 0.2500 (  5136 PWs)   bands (ev):

   -64.8276 -64.8275 -64.8275 -64.8265 -31.6330 -31.6328 -31.6307 -31.6305
   -31.5835 -31.5834 -31.5820 -31.5820 -31.5765 -31.5763 -31.5741 -31.5739
    -8.1736  -8.1736  -8.1618  -8.1617   3.6327   3.6329   3.6479   3.6480
     6.5223   6.5226   6.5265   6.5267   7.0446   7.0446   7.0848   7.0849

          k =-0.4988-0.4988-0.5000 (  5136 PWs)   bands (ev):

   -64.8276 -64.8275 -64.8274 -64.8265 -31.6400 -31.6399 -31.6392 -31.6391
   -31.5757 -31.5755 -31.5752 -31.5750 -31.5749 -31.5748 -31.5746 -31.5743
    -8.1355  -8.1355  -8.1237  -8.1236   3.2081   3.2082   3.2270   3.2271
     7.0452   7.0453   7.0647   7.0649   7.0658   7.0660   7.0858   7.0858

     highest occupied level (ev):     7.6907

!    total energy              =    -608.39279588 Ry
     Harris-Foulkes estimate   =    -608.39279588 Ry
     estimated scf accuracy    <          4.6E-11 Ry

     The total energy is the sum of the following terms:

     one-electron contribution =    -303.55708463 Ry
     hartree contribution      =     168.06777811 Ry
     xc contribution           =     -97.84638227 Ry
     ewald contribution        =    -375.05710709 Ry

     convergence has been achieved in   5 iterations

     Forces acting on atoms (cartesian axes, Ry/au):

     atom    1 type  1   force =    -0.00042842   -0.00042842    0.00000000
     atom    2 type  1   force =     0.00047510   -0.00046322    0.00000000
     atom    3 type  1   force =    -0.00046322    0.00047510    0.00000000
     atom    4 type  1   force =     0.00041438    0.00041438    0.00000000
     atom    5 type  2   force =    -0.00050011    0.00050731    0.00000000
     atom    6 type  2   force =     0.00050731   -0.00050011    0.00000000
     atom    7 type  2   force =    -0.00049154   -0.00049154    0.00000000
     atom    8 type  2   force =     0.00048650    0.00048650    0.00000000

     Total force =     0.001887     Total SCF correction =     0.000013


     Computing stress (Cartesian axis) and pressure

          total   stress  (Ry/bohr**3)                   (kbar)     P=  -68.03
  -0.00046257  -0.00004868   0.00000000        -68.05     -7.16      0.00
  -0.00004868  -0.00046257   0.00000000         -7.16    -68.05      0.00
   0.00000000   0.00000000  -0.00046224          0.00      0.00    -68.00


     number of scf cycles    =   3
     number of bfgs steps    =   2

     energy   old            =    -608.3927895898 Ry
     energy   new            =    -608.3927958847 Ry

     CASE: energy  _new < energy  _old

     new trust radius        =       0.0017822561 bohr
     new conv_thr            =            1.0E-10 Ry


ATOMIC_POSITIONS (alat)
Mg      -0.000284768  -0.000284768   0.000000000
Mg       0.000318492   0.499698020   0.500000000
Mg       0.499698020   0.000318492   0.500000000
Mg       0.500261324   0.500261324   0.000000000
O        0.499650974   0.000362883   0.000000000
O        0.000362883   0.499650974   0.000000000
O       -0.000342530  -0.000342530   0.500000000
O        0.500335605   0.500335605   0.500000000



     Writing output data file MgO.0.005.70.4.save
     NEW-OLD atomic charge density approx. for the potential

     Check: negative/imaginary core charge=   -0.000007    0.000000

     total cpu time spent up to now is       20.0 secs

     per-process dynamical memory:    52.8 Mb

     Self-consistent Calculation

     iteration #  1     ecut=    70.00 Ry     beta=0.70
     Davidson diagonalization with overlap
     ethr =  1.00E-06,  avg # of iterations =  3.0

     Threshold (ethr) on eigenvalues was too large:
     Diagonalizing with lowered threshold

     Davidson diagonalization with overlap
     ethr =  1.90E-09,  avg # of iterations =  2.5

     total cpu time spent up to now is       22.0 secs

     total energy              =    -608.39280297 Ry
     Harris-Foulkes estimate   =    -608.39280368 Ry
     estimated scf accuracy    <       0.00000126 Ry

     iteration #  2     ecut=    70.00 Ry     beta=0.70
     Davidson diagonalization with overlap
     ethr =  1.97E-09,  avg # of iterations =  2.0

     total cpu time spent up to now is       22.9 secs

     total energy              =    -608.39280318 Ry
     Harris-Foulkes estimate   =    -608.39280319 Ry
     estimated scf accuracy    <       0.00000003 Ry

     iteration #  3     ecut=    70.00 Ry     beta=0.70
     Davidson diagonalization with overlap
     ethr =  4.87E-11,  avg # of iterations =  2.0

     total cpu time spent up to now is       23.8 secs

     total energy              =    -608.39280319 Ry
     Harris-Foulkes estimate   =    -608.39280319 Ry
     estimated scf accuracy    <          2.1E-09 Ry

     iteration #  4     ecut=    70.00 Ry     beta=0.70
     Davidson diagonalization with overlap
     ethr =  3.22E-12,  avg # of iterations =  2.1

     total cpu time spent up to now is       24.6 secs

     total energy              =    -608.39280319 Ry
     Harris-Foulkes estimate   =    -608.39280319 Ry
     estimated scf accuracy    <          3.4E-10 Ry

     iteration #  5     ecut=    70.00 Ry     beta=0.70
     Davidson diagonalization with overlap
     ethr =  5.30E-13,  avg # of iterations =  3.0

     total cpu time spent up to now is       25.6 secs

     End of self-consistent calculation

          k = 0.0000 0.0000 0.0000 (  5153 PWs)   bands (ev):

   -64.8346 -64.8251 -64.8251 -64.8243 -31.6312 -31.6311 -31.6310 -31.5946
   -31.5935 -31.5935 -31.5933 -31.5933 -31.5923 -31.5654 -31.5644 -31.5639
    -9.3646  -7.9137  -7.9136  -7.9135   3.7581   3.7582   3.7582   6.3511
     6.3800   6.3801   6.3801   6.3804   6.4094   7.6542   7.6724   7.6906

          k = 0.0000 0.0000 0.2500 (  5157 PWs)   bands (ev):

   -64.8332 -64.8263 -64.8251 -64.8245 -31.6247 -31.6247 -31.6204 -31.5981
   -31.5981 -31.5941 -31.5941 -31.5898 -31.5876 -31.5783 -31.5729 -31.5701
    -9.1561  -8.1285  -7.8852  -7.8851   4.0486   4.0487   4.0956   5.8581
     5.8581   6.1706   6.1709   6.5152   6.5713   6.6589   7.4302   7.4706

          k = 0.0000 0.0000-0.5000 (  5118 PWs)   bands (ev):

   -64.8300 -64.8295 -64.8251 -64.8245 -31.6120 -31.6118 -31.6078 -31.6076
   -31.6020 -31.6020 -31.5908 -31.5908 -31.5820 -31.5817 -31.5793 -31.5791
    -8.6460  -8.6457  -7.8564  -7.8563   4.8444   4.8444   4.8511   4.8512
     5.1227   5.1230   5.9735   5.9739   6.9439   6.9441   6.9929   6.9931

          k =-0.0006 0.2500 0.0000 (  5165 PWs)   bands (ev):

   -64.8332 -64.8263 -64.8251 -64.8245 -31.6249 -31.6244 -31.6207 -31.5989
   -31.5985 -31.5939 -31.5935 -31.5891 -31.5889 -31.5789 -31.5716 -31.5713
    -9.1561  -8.1284  -7.8852  -7.8851   4.0484   4.0485   4.0955   5.8561
     5.8582   6.1706   6.1727   6.5428   6.5431   6.6586   7.4503   7.4506

          k =-0.0006 0.2500 0.2500 (  5159 PWs)   bands (ev):

   -64.8320 -64.8263 -64.8259 -64.8249 -31.6213 -31.6209 -31.6199 -31.6072
   -31.5942 -31.5940 -31.5931 -31.5879 -31.5866 -31.5864 -31.5757 -31.5684
    -8.9660  -8.0646  -8.0629  -7.8901   4.1600   4.1629   4.3288   5.0714
     5.8470   6.0531   6.0574   6.4843   6.4866   6.5835   7.1732   7.5058

          k =-0.0006 0.2500-0.5000 (  5150 PWs)   bands (ev):

   -64.8293 -64.8288 -64.8258 -64.8252 -31.6176 -31.6175 -31.6102 -31.6101
   -31.6066 -31.6063 -31.5852 -31.5850 -31.5838 -31.5837 -31.5754 -31.5753
    -8.5096  -8.5094  -7.9468  -7.9467   4.4184   4.4186   4.7511   4.7513
     5.0962   5.0965   6.5479   6.5482   6.5755   6.5757   7.0946   7.0947

          k = 0.0013-0.5000 0.0000 (  5110 PWs)   bands (ev):

   -64.8300 -64.8295 -64.8251 -64.8245 -31.6099 -31.6096 -31.6095 -31.6093
   -31.6019 -31.6019 -31.5908 -31.5907 -31.5806 -31.5804 -31.5803 -31.5801
    -8.6459  -8.6457  -7.8564  -7.8563   4.8474   4.8478   4.8480   4.8482
     5.1228   5.1232   5.9735   5.9739   6.9683   6.9684   6.9685   6.9686

          k = 0.0013-0.5000 0.2500 (  5152 PWs)   bands (ev):

   -64.8292 -64.8288 -64.8258 -64.8252 -31.6175 -31.6174 -31.6102 -31.6102
   -31.6068 -31.6065 -31.5851 -31.5849 -31.5839 -31.5838 -31.5754 -31.5753
    -8.5096  -8.5094  -7.9469  -7.9468   4.4183   4.4185   4.7512   4.7514
     5.0963   5.0967   6.5479   6.5481   6.5758   6.5761   7.0941   7.0942

          k = 0.0013-0.5000-0.5000 (  5192 PWs)   bands (ev):

   -64.8275 -64.8275 -64.8275 -64.8265 -31.6194 -31.6192 -31.6191 -31.6191
   -31.5970 -31.5968 -31.5967 -31.5964 -31.5763 -31.5762 -31.5760 -31.5760
    -8.2065  -8.2063  -8.2041  -8.2041   4.2912   4.2913   4.2954   4.2955
     5.7648   5.7652   5.7704   5.7707   7.0623   7.0624   7.0646   7.0648

          k = 0.2494 0.2494 0.0000 (  5161 PWs)   bands (ev):

   -64.8320 -64.8263 -64.8259 -64.8249 -31.6222 -31.6221 -31.6197 -31.6061
   -31.5942 -31.5942 -31.5913 -31.5892 -31.5858 -31.5857 -31.5755 -31.5700
    -8.9685  -8.0606  -8.0605  -7.8932   4.1603   4.1603   4.3259   5.0559
     5.8385   6.0596   6.0599   6.4794   6.4795   6.6097   7.1684   7.5235

          k = 0.2494 0.2494 0.2500 (  5150 PWs)   bands (ev):

   -64.8310 -64.8263 -64.8263 -64.8255 -31.6267 -31.6265 -31.6246 -31.6052
   -31.5926 -31.5924 -31.5922 -31.5851 -31.5840 -31.5840 -31.5725 -31.5709
    -8.7987  -8.0337  -8.0274  -8.0274   3.9908   4.0028   4.0030   5.0784
     5.8367   5.8429   5.8442   6.7029   6.7031   6.7308   7.3529   7.3747

          k = 0.2494 0.2494-0.5000 (  5128 PWs)   bands (ev):

   -64.8288 -64.8284 -64.8263 -64.8256 -31.6294 -31.6292 -31.6203 -31.6202
   -31.5912 -31.5910 -31.5812 -31.5811 -31.5789 -31.5787 -31.5768 -31.5767
    -8.4018  -8.4016  -7.9940  -7.9939   3.8265   3.8266   4.1863   4.1864
     5.8236   5.8237   6.7378   6.7380   6.8659   6.8661   7.0385   7.0386

          k = 0.2513-0.5006 0.0000 (  5148 PWs)   bands (ev):

   -64.8293 -64.8288 -64.8258 -64.8252 -31.6194 -31.6154 -31.6117 -31.6082
   -31.6069 -31.6067 -31.5851 -31.5848 -31.5848 -31.5826 -31.5763 -31.5742
    -8.5135  -8.5055  -7.9512  -7.9424   4.4131   4.4239   4.7490   4.7536
     5.0919   5.1008   6.5306   6.5657   6.5696   6.5822   7.0812   7.1076

          k = 0.2513-0.5006 0.2500 (  5134 PWs)   bands (ev):

   -64.8287 -64.8283 -64.8263 -64.8257 -31.6291 -31.6269 -31.6224 -31.6195
   -31.5931 -31.5928 -31.5814 -31.5802 -31.5789 -31.5781 -31.5772 -31.5762
    -8.4030  -8.3950  -8.0013  -7.9928   3.8128   3.8303   4.1915   4.2046
     5.8264   5.8344   6.7277   6.7531   6.8599   6.8774   7.0127   7.0204

          k = 0.2513-0.5006-0.5000 (  5144 PWs)   bands (ev):

   -64.8276 -64.8275 -64.8275 -64.8265 -31.6329 -31.6328 -31.6305 -31.6304
   -31.5838 -31.5836 -31.5826 -31.5824 -31.5755 -31.5754 -31.5750 -31.5750
    -8.1719  -8.1718  -8.1636  -8.1635   3.6310   3.6310   3.6497   3.6498
     6.5109   6.5111   6.5379   6.5380   7.0604   7.0606   7.0685   7.0687

          k = 0.2506-0.2506 0.0000 (  5161 PWs)   bands (ev):

   -64.8319 -64.8264 -64.8260 -64.8249 -31.6198 -31.6197 -31.6196 -31.6091
   -31.5948 -31.5943 -31.5943 -31.5874 -31.5873 -31.5867 -31.5755 -31.5677
    -8.9634  -8.0669  -8.0668  -7.8872   4.1626   4.1628   4.3314   5.0869
     5.8558   6.0513   6.0518   6.4903   6.4904   6.5576   7.1782   7.4876

          k = 0.2506-0.2506 0.2500 (  5160 PWs)   bands (ev):

   -64.8309 -64.8264 -64.8263 -64.8255 -31.6256 -31.6239 -31.6237 -31.6069
   -31.5953 -31.5951 -31.5947 -31.5841 -31.5841 -31.5830 -31.5718 -31.5704
    -8.7936  -8.0338  -8.0337  -8.0276   3.9979   3.9981   4.0101   5.1001
     5.8475   5.8488   5.8550   6.6805   6.7079   6.7081   7.3361   7.3578

          k = 0.2506-0.2506-0.5000 (  5148 PWs)   bands (ev):

   -64.8287 -64.8283 -64.8264 -64.8257 -31.6273 -31.6271 -31.6219 -31.6218
   -31.5950 -31.5947 -31.5804 -31.5803 -31.5787 -31.5786 -31.5766 -31.5764
    -8.3965  -8.3962  -8.0002  -8.0001   3.8163   3.8164   4.2096   4.2098
     5.8371   5.8371   6.7426   6.7428   6.8717   6.8718   6.9938   6.9939

          k =-0.4988-0.4988 0.0000 (  5196 PWs)   bands (ev):

   -64.8276 -64.8275 -64.8274 -64.8265 -31.6213 -31.6211 -31.6170 -31.6168
   -31.5975 -31.5973 -31.5973 -31.5970 -31.5768 -31.5765 -31.5755 -31.5753
    -8.2113  -8.2111  -8.1993  -8.1992   4.2899   4.2901   4.2967   4.2967
     5.7596   5.7601   5.7745   5.7748   7.0434   7.0434   7.0840   7.0841

          k =-0.4988-0.4988 0.2500 (  5136 PWs)   bands (ev):

   -64.8276 -64.8275 -64.8274 -64.8265 -31.6329 -31.6328 -31.6306 -31.6305
   -31.5834 -31.5834 -31.5820 -31.5820 -31.5765 -31.5763 -31.5741 -31.5739
    -8.1737  -8.1736  -8.1619  -8.1618   3.6327   3.6329   3.6479   3.6479
     6.5223   6.5226   6.5265   6.5267   7.0446   7.0446   7.0847   7.0848

          k =-0.4988-0.4988-0.5000 (  5136 PWs)   bands (ev):

   -64.8276 -64.8275 -64.8274 -64.8265 -31.6400 -31.6398 -31.6392 -31.6391
   -31.5757 -31.5755 -31.5752 -31.5750 -31.5749 -31.5748 -31.5745 -31.5743
    -8.1355  -8.1355  -8.1238  -8.1236   3.2081   3.2081   3.2270   3.2271
     7.0452   7.0452   7.0647   7.0649   7.0657   7.0660   7.0858   7.0858

     highest occupied level (ev):     7.6906

!    total energy              =    -608.39280319 Ry
     Harris-Foulkes estimate   =    -608.39280319 Ry
     estimated scf accuracy    <          3.4E-11 Ry

     The total energy is the sum of the following terms:

     one-electron contribution =    -303.55723614 Ry
     hartree contribution      =     168.06787966 Ry
     xc contribution           =     -97.84639884 Ry
     ewald contribution        =    -375.05704786 Ry

     convergence has been achieved in   5 iterations

     Forces acting on atoms (cartesian axes, Ry/au):

     atom    1 type  1   force =    -0.00030063   -0.00030063    0.00000000
     atom    2 type  1   force =     0.00032083   -0.00033538    0.00000000
     atom    3 type  1   force =    -0.00033538    0.00032083    0.00000000
     atom    4 type  1   force =     0.00032608    0.00032608    0.00000000
     atom    5 type  2   force =    -0.00031417    0.00029937    0.00000000
     atom    6 type  2   force =     0.00029937   -0.00031417    0.00000000
     atom    7 type  2   force =    -0.00030464   -0.00030464    0.00000000
     atom    8 type  2   force =     0.00030854    0.00030854    0.00000000

     Total force =     0.001256     Total SCF correction =     0.000015


     Computing stress (Cartesian axis) and pressure

          total   stress  (Ry/bohr**3)                   (kbar)     P=  -68.02
  -0.00046253  -0.00004868   0.00000000        -68.04     -7.16      0.00
  -0.00004868  -0.00046253   0.00000000         -7.16    -68.04      0.00
   0.00000000   0.00000000  -0.00046217          0.00      0.00    -67.99


     number of scf cycles    =   4
     number of bfgs steps    =   3

     energy   old            =    -608.3927958847 Ry
     energy   new            =    -608.3928031879 Ry

     CASE: energy  _new < energy  _old

     new trust radius        =       0.0026733841 bohr
     new conv_thr            =            1.0E-10 Ry


ATOMIC_POSITIONS (alat)
Mg      -0.000491583  -0.000491583   0.000000000
Mg       0.000544912   0.499472887   0.500000000
Mg       0.499472887   0.000544912   0.500000000
Mg       0.500468023   0.500468023   0.000000000
O        0.499416000   0.000597872   0.000000000
O        0.000597872   0.499416000   0.000000000
O       -0.000572158  -0.000572158   0.500000000
O        0.500564047   0.500564047   0.500000000



     Writing output data file MgO.0.005.70.4.save
     NEW-OLD atomic charge density approx. for the potential

     Check: negative/imaginary core charge=   -0.000007    0.000000

     total cpu time spent up to now is       26.2 secs

     per-process dynamical memory:    52.8 Mb

     Self-consistent Calculation

     iteration #  1     ecut=    70.00 Ry     beta=0.70
     Davidson diagonalization with overlap
     ethr =  1.00E-06,  avg # of iterations =  3.0

     Threshold (ethr) on eigenvalues was too large:
     Diagonalizing with lowered threshold

     Davidson diagonalization with overlap
     ethr =  4.35E-09,  avg # of iterations =  2.3

     total cpu time spent up to now is       28.2 secs

     total energy              =    -608.39280823 Ry
     Harris-Foulkes estimate   =    -608.39280978 Ry
     estimated scf accuracy    <       0.00000280 Ry

     iteration #  2     ecut=    70.00 Ry     beta=0.70
     Davidson diagonalization with overlap
     ethr =  4.37E-09,  avg # of iterations =  2.0

     total cpu time spent up to now is       29.1 secs

     total energy              =    -608.39280870 Ry
     Harris-Foulkes estimate   =    -608.39280872 Ry
     estimated scf accuracy    <       0.00000007 Ry

     iteration #  3     ecut=    70.00 Ry     beta=0.70
     Davidson diagonalization with overlap
     ethr =  1.09E-10,  avg # of iterations =  2.0

     total cpu time spent up to now is       29.9 secs

     total energy              =    -608.39280871 Ry
     Harris-Foulkes estimate   =    -608.39280871 Ry
     estimated scf accuracy    <          4.7E-09 Ry

     iteration #  4     ecut=    70.00 Ry     beta=0.70
     Davidson diagonalization with overlap
     ethr =  7.41E-12,  avg # of iterations =  2.3

     total cpu time spent up to now is       30.8 secs

     total energy              =    -608.39280871 Ry
     Harris-Foulkes estimate   =    -608.39280871 Ry
     estimated scf accuracy    <          8.4E-10 Ry

     iteration #  5     ecut=    70.00 Ry     beta=0.70
     Davidson diagonalization with overlap
     ethr =  1.31E-12,  avg # of iterations =  3.0

     total cpu time spent up to now is       31.8 secs

     End of self-consistent calculation

          k = 0.0000 0.0000 0.0000 (  5153 PWs)   bands (ev):

   -64.8346 -64.8251 -64.8251 -64.8243 -31.6312 -31.6311 -31.6310 -31.5946
   -31.5935 -31.5935 -31.5933 -31.5933 -31.5923 -31.5654 -31.5644 -31.5639
    -9.3646  -7.9137  -7.9136  -7.9135   3.7581   3.7582   3.7582   6.3511
     6.3800   6.3801   6.3801   6.3804   6.4094   7.6542   7.6724   7.6906

          k = 0.0000 0.0000 0.2500 (  5157 PWs)   bands (ev):

   -64.8332 -64.8263 -64.8251 -64.8245 -31.6247 -31.6247 -31.6204 -31.5981
   -31.5981 -31.5941 -31.5941 -31.5898 -31.5876 -31.5783 -31.5729 -31.5701
    -9.1561  -8.1285  -7.8851  -7.8851   4.0487   4.0487   4.0955   5.8581
     5.8581   6.1706   6.1709   6.5152   6.5713   6.6589   7.4302   7.4706

          k = 0.0000 0.0000-0.5000 (  5118 PWs)   bands (ev):

   -64.8300 -64.8295 -64.8251 -64.8245 -31.6120 -31.6118 -31.6078 -31.6076
   -31.6020 -31.6020 -31.5908 -31.5908 -31.5820 -31.5817 -31.5793 -31.5791
    -8.6460  -8.6457  -7.8564  -7.8563   4.8444   4.8445   4.8512   4.8512
     5.1227   5.1229   5.9735   5.9739   6.9439   6.9441   6.9929   6.9931

          k =-0.0006 0.2500 0.0000 (  5165 PWs)   bands (ev):

   -64.8332 -64.8263 -64.8251 -64.8245 -31.6249 -31.6244 -31.6207 -31.5989
   -31.5984 -31.5939 -31.5935 -31.5891 -31.5889 -31.5789 -31.5715 -31.5713
    -9.1561  -8.1284  -7.8852  -7.8851   4.0484   4.0485   4.0955   5.8561
     5.8582   6.1707   6.1726   6.5428   6.5431   6.6586   7.4503   7.4506

          k =-0.0006 0.2500 0.2500 (  5159 PWs)   bands (ev):

   -64.8320 -64.8263 -64.8259 -64.8249 -31.6213 -31.6209 -31.6199 -31.6072
   -31.5942 -31.5940 -31.5931 -31.5879 -31.5866 -31.5864 -31.5756 -31.5684
    -8.9660  -8.0639  -8.0637  -7.8901   4.1612   4.1617   4.3288   5.0714
     5.8470   6.0547   6.0557   6.4849   6.4860   6.5835   7.1732   7.5058

          k =-0.0006 0.2500-0.5000 (  5150 PWs)   bands (ev):

   -64.8292 -64.8288 -64.8258 -64.8252 -31.6176 -31.6175 -31.6102 -31.6101
   -31.6066 -31.6063 -31.5852 -31.5850 -31.5838 -31.5837 -31.5754 -31.5752
    -8.5096  -8.5094  -7.9468  -7.9467   4.4184   4.4186   4.7511   4.7513
     5.0962   5.0965   6.5479   6.5482   6.5755   6.5757   7.0946   7.0947

          k = 0.0013-0.5000 0.0000 (  5110 PWs)   bands (ev):

   -64.8300 -64.8295 -64.8251 -64.8245 -31.6099 -31.6096 -31.6095 -31.6093
   -31.6019 -31.6019 -31.5908 -31.5907 -31.5806 -31.5804 -31.5803 -31.5801
    -8.6460  -8.6457  -7.8564  -7.8563   4.8474   4.8477   4.8480   4.8483
     5.1228   5.1232   5.9736   5.9739   6.9683   6.9683   6.9686   6.9686

          k = 0.0013-0.5000 0.2500 (  5152 PWs)   bands (ev):

   -64.8292 -64.8288 -64.8258 -64.8252 -31.6175 -31.6174 -31.6102 -31.6102
   -31.6068 -31.6065 -31.5851 -31.5849 -31.5839 -31.5838 -31.5754 -31.5753
    -8.5096  -8.5093  -7.9469  -7.9468   4.4182   4.4185   4.7511   4.7514
     5.0962   5.0967   6.5478   6.5481   6.5758   6.5761   7.0941   7.0942

          k = 0.0013-0.5000-0.5000 (  5192 PWs)   bands (ev):

   -64.8275 -64.8275 -64.8275 -64.8265 -31.6194 -31.6192 -31.6191 -31.6191
   -31.5970 -31.5968 -31.5968 -31.5965 -31.5763 -31.5761 -31.5760 -31.5760
    -8.2055  -8.2053  -8.2051  -8.2050   4.2930   4.2931   4.2935   4.2937
     5.7671   5.7676   5.7680   5.7684   7.0633   7.0634   7.0636   7.0639

          k = 0.2494 0.2494 0.0000 (  5161 PWs)   bands (ev):

   -64.8320 -64.8263 -64.8259 -64.8249 -31.6222 -31.6220 -31.6197 -31.6061
   -31.5942 -31.5942 -31.5913 -31.5892 -31.5858 -31.5857 -31.5755 -31.5700
    -8.9685  -8.0606  -8.0606  -7.8932   4.1603   4.1603   4.3259   5.0559
     5.8385   6.0596   6.0599   6.4794   6.4794   6.6096   7.1684   7.5234

          k = 0.2494 0.2494 0.2500 (  5150 PWs)   bands (ev):

   -64.8310 -64.8263 -64.8263 -64.8255 -31.6267 -31.6265 -31.6246 -31.6052
   -31.5925 -31.5924 -31.5922 -31.5850 -31.5840 -31.5840 -31.5725 -31.5709
    -8.7987  -8.0336  -8.0275  -8.0275   3.9910   4.0028   4.0028   5.0784
     5.8381   5.8428   5.8429   6.7029   6.7031   6.7308   7.3529   7.3747

          k = 0.2494 0.2494-0.5000 (  5128 PWs)   bands (ev):

   -64.8288 -64.8284 -64.8263 -64.8256 -31.6294 -31.6292 -31.6203 -31.6202
   -31.5912 -31.5910 -31.5812 -31.5811 -31.5789 -31.5787 -31.5768 -31.5767
    -8.4018  -8.4016  -7.9940  -7.9939   3.8266   3.8266   4.1863   4.1864
     5.8237   5.8237   6.7378   6.7380   6.8659   6.8661   7.0385   7.0386

          k = 0.2513-0.5006 0.0000 (  5148 PWs)   bands (ev):

   -64.8292 -64.8288 -64.8258 -64.8252 -31.6194 -31.6154 -31.6117 -31.6082
   -31.6069 -31.6067 -31.5851 -31.5848 -31.5848 -31.5826 -31.5762 -31.5742
    -8.5135  -8.5055  -7.9512  -7.9424   4.4131   4.4239   4.7490   4.7536
     5.0918   5.1008   6.5306   6.5657   6.5696   6.5822   7.0812   7.1075

          k = 0.2513-0.5006 0.2500 (  5134 PWs)   bands (ev):

   -64.8287 -64.8283 -64.8263 -64.8257 -31.6291 -31.6269 -31.6224 -31.6195
   -31.5931 -31.5928 -31.5814 -31.5802 -31.5789 -31.5781 -31.5772 -31.5762
    -8.4030  -8.3950  -8.0013  -7.9928   3.8128   3.8303   4.1915   4.2046
     5.8264   5.8344   6.7277   6.7531   6.8599   6.8774   7.0127   7.0204

          k = 0.2513-0.5006-0.5000 (  5144 PWs)   bands (ev):

   -64.8276 -64.8275 -64.8275 -64.8265 -31.6329 -31.6328 -31.6305 -31.6304
   -31.5838 -31.5836 -31.5826 -31.5824 -31.5755 -31.5754 -31.5750 -31.5750
    -8.1718  -8.1717  -8.1637  -8.1636   3.6311   3.6312   3.6496   3.6497
     6.5111   6.5112   6.5377   6.5379   7.0605   7.0607   7.0684   7.0686

          k = 0.2506-0.2506 0.0000 (  5161 PWs)   bands (ev):

   -64.8319 -64.8264 -64.8260 -64.8249 -31.6198 -31.6197 -31.6196 -31.6090
   -31.5948 -31.5943 -31.5943 -31.5874 -31.5873 -31.5867 -31.5755 -31.5677
    -8.9634  -8.0669  -8.0668  -7.8872   4.1626   4.1628   4.3314   5.0869
     5.8558   6.0513   6.0518   6.4903   6.4904   6.5576   7.1782   7.4876

          k = 0.2506-0.2506 0.2500 (  5160 PWs)   bands (ev):

   -64.8309 -64.8263 -64.8263 -64.8255 -31.6256 -31.6239 -31.6237 -31.6069
   -31.5952 -31.5951 -31.5947 -31.5841 -31.5841 -31.5830 -31.5718 -31.5704
    -8.7936  -8.0338  -8.0337  -8.0278   3.9980   3.9982   4.0099   5.1001
     5.8488   5.8490   5.8535   6.6805   6.7079   6.7081   7.3361   7.3578

          k = 0.2506-0.2506-0.5000 (  5148 PWs)   bands (ev):

   -64.8287 -64.8283 -64.8263 -64.8257 -31.6273 -31.6271 -31.6219 -31.6218
   -31.5950 -31.5947 -31.5804 -31.5803 -31.5787 -31.5786 -31.5766 -31.5764
    -8.3965  -8.3963  -8.0001  -8.0001   3.8163   3.8164   4.2096   4.2097
     5.8371   5.8371   6.7426   6.7428   6.8716   6.8718   6.9938   6.9939

          k =-0.4988-0.4988 0.0000 (  5196 PWs)   bands (ev):

   -64.8276 -64.8275 -64.8274 -64.8265 -31.6213 -31.6211 -31.6170 -31.6167
   -31.5975 -31.5973 -31.5973 -31.5970 -31.5768 -31.5765 -31.5755 -31.5753
    -8.2113  -8.2111  -8.1993  -8.1992   4.2898   4.2901   4.2967   4.2967
     5.7596   5.7601   5.7745   5.7748   7.0434   7.0434   7.0840   7.0841

          k =-0.4988-0.4988 0.2500 (  5136 PWs)   bands (ev):

   -64.8276 -64.8275 -64.8274 -64.8265 -31.6329 -31.6327 -31.6306 -31.6305
   -31.5834 -31.5834 -31.5820 -31.5820 -31.5765 -31.5763 -31.5741 -31.5738
    -8.1737  -8.1736  -8.1618  -8.1618   3.6327   3.6329   3.6479   3.6479
     6.5223   6.5226   6.5265   6.5267   7.0445   7.0446   7.0847   7.0848

          k =-0.4988-0.4988-0.5000 (  5136 PWs)   bands (ev):

   -64.8276 -64.8275 -64.8274 -64.8265 -31.6400 -31.6398 -31.6392 -31.6391
   -31.5757 -31.5755 -31.5752 -31.5750 -31.5749 -31.5748 -31.5745 -31.5743
    -8.1355  -8.1355  -8.1237  -8.1237   3.2081   3.2081   3.2270   3.2271
     7.0452   7.0452   7.0647   7.0649   7.0658   7.0660   7.0858   7.0858

     highest occupied level (ev):     7.6906

!    total energy              =    -608.39280871 Ry
     Harris-Foulkes estimate   =    -608.39280871 Ry
     estimated scf accuracy    <          6.0E-11 Ry

     The total energy is the sum of the following terms:

     one-electron contribution =    -303.55732981 Ry
     hartree contribution      =     168.06792386 Ry
     xc contribution           =     -97.84639887 Ry
     ewald contribution        =    -375.05700389 Ry

     convergence has been achieved in   5 iterations

     Forces acting on atoms (cartesian axes, Ry/au):

     atom    1 type  1   force =    -0.00009211   -0.00009211    0.00000000
     atom    2 type  1   force =     0.00008197   -0.00012881    0.00000000
     atom    3 type  1   force =    -0.00012881    0.00008197    0.00000000
     atom    4 type  1   force =     0.00016477    0.00016477    0.00000000
     atom    5 type  2   force =    -0.00003597   -0.00000064    0.00000000
     atom    6 type  2   force =    -0.00000064   -0.00003597    0.00000000
     atom    7 type  2   force =    -0.00002878   -0.00002878    0.00000000
     atom    8 type  2   force =     0.00003957    0.00003957    0.00000000

     Total force =     0.000354     Total SCF correction =     0.000022


     Computing stress (Cartesian axis) and pressure

          total   stress  (Ry/bohr**3)                   (kbar)     P=  -68.03
  -0.00046256  -0.00004868   0.00000000        -68.04     -7.16      0.00
  -0.00004868  -0.00046256   0.00000000         -7.16    -68.04      0.00
   0.00000000   0.00000000  -0.00046217          0.00      0.00    -67.99


     number of scf cycles    =   5
     number of bfgs steps    =   4

     energy   old            =    -608.3928031879 Ry
     energy   new            =    -608.3928087132 Ry

     CASE: energy  _new < energy  _old

     new trust radius        =       0.0008469976 bohr
     new conv_thr            =            1.0E-10 Ry


ATOMIC_POSITIONS (alat)
Mg      -0.000555490  -0.000555490   0.000000000
Mg       0.000612211   0.499399079   0.500000000
Mg       0.499399079   0.000612211   0.500000000
Mg       0.500542471   0.500542471   0.000000000
O        0.499353232   0.000655402   0.000000000
O        0.000655402   0.499353232   0.000000000
O       -0.000632574  -0.000632574   0.500000000
O        0.500625670   0.500625670   0.500000000



     Writing output data file MgO.0.005.70.4.save
     NEW-OLD atomic charge density approx. for the potential

     Check: negative/imaginary core charge=   -0.000007    0.000000

     total cpu time spent up to now is       32.4 secs

     per-process dynamical memory:    52.8 Mb

     Self-consistent Calculation

     iteration #  1     ecut=    70.00 Ry     beta=0.70
     Davidson diagonalization with overlap
     ethr =  1.00E-06,  avg # of iterations =  2.0

     Threshold (ethr) on eigenvalues was too large:
     Diagonalizing with lowered threshold

     Davidson diagonalization with overlap
     ethr =  1.95E-10,  avg # of iterations =  3.1

     total cpu time spent up to now is       34.5 secs

     total energy              =    -608.39280903 Ry
     Harris-Foulkes estimate   =    -608.39280912 Ry
     estimated scf accuracy    <       0.00000018 Ry

     iteration #  2     ecut=    70.00 Ry     beta=0.70
     Davidson diagonalization with overlap
     ethr =  2.80E-10,  avg # of iterations =  2.0

     total cpu time spent up to now is       35.3 secs

     total energy              =    -608.39280906 Ry
     Harris-Foulkes estimate   =    -608.39280906 Ry
     estimated scf accuracy    <          5.4E-09 Ry

     iteration #  3     ecut=    70.00 Ry     beta=0.70
     Davidson diagonalization with overlap
     ethr =  8.43E-12,  avg # of iterations =  2.3

     total cpu time spent up to now is       36.2 secs

     total energy              =    -608.39280906 Ry
     Harris-Foulkes estimate   =    -608.39280906 Ry
     estimated scf accuracy    <          8.6E-10 Ry

     iteration #  4     ecut=    70.00 Ry     beta=0.70
     Davidson diagonalization with overlap
     ethr =  1.35E-12,  avg # of iterations =  3.0

     total cpu time spent up to now is       37.2 secs

     total energy              =    -608.39280906 Ry
     Harris-Foulkes estimate   =    -608.39280906 Ry
     estimated scf accuracy    <          8.6E-10 Ry

     iteration #  5     ecut=    70.00 Ry     beta=0.70
     Davidson diagonalization with overlap
     ethr =  1.34E-12,  avg # of iterations =  2.6

     total cpu time spent up to now is       38.1 secs

     End of self-consistent calculation

          k = 0.0000 0.0000 0.0000 (  5153 PWs)   bands (ev):

   -64.8346 -64.8251 -64.8251 -64.8243 -31.6312 -31.6311 -31.6310 -31.5946
   -31.5935 -31.5935 -31.5933 -31.5933 -31.5923 -31.5654 -31.5644 -31.5639
    -9.3646  -7.9137  -7.9136  -7.9135   3.7581   3.7582   3.7582   6.3511
     6.3800   6.3801   6.3801   6.3804   6.4094   7.6542   7.6724   7.6906

          k = 0.0000 0.0000 0.2500 (  5157 PWs)   bands (ev):

   -64.8332 -64.8263 -64.8251 -64.8245 -31.6247 -31.6247 -31.6204 -31.5981
   -31.5981 -31.5941 -31.5941 -31.5898 -31.5876 -31.5783 -31.5729 -31.5701
    -9.1562  -8.1285  -7.8852  -7.8851   4.0487   4.0487   4.0955   5.8581
     5.8581   6.1706   6.1709   6.5152   6.5713   6.6589   7.4301   7.4706

          k = 0.0000 0.0000-0.5000 (  5118 PWs)   bands (ev):

   -64.8300 -64.8295 -64.8251 -64.8245 -31.6120 -31.6118 -31.6078 -31.6076
   -31.6020 -31.6020 -31.5908 -31.5908 -31.5820 -31.5817 -31.5793 -31.5791
    -8.6460  -8.6457  -7.8564  -7.8563   4.8444   4.8445   4.8512   4.8512
     5.1227   5.1229   5.9735   5.9739   6.9439   6.9441   6.9929   6.9931

          k =-0.0006 0.2500 0.0000 (  5165 PWs)   bands (ev):

   -64.8332 -64.8263 -64.8251 -64.8245 -31.6249 -31.6244 -31.6207 -31.5989
   -31.5984 -31.5939 -31.5935 -31.5891 -31.5889 -31.5789 -31.5715 -31.5713
    -9.1561  -8.1284  -7.8852  -7.8851   4.0484   4.0485   4.0955   5.8561
     5.8582   6.1706   6.1726   6.5428   6.5431   6.6586   7.4503   7.4506

          k =-0.0006 0.2500 0.2500 (  5159 PWs)   bands (ev):

   -64.8320 -64.8263 -64.8259 -64.8249 -31.6213 -31.6209 -31.6199 -31.6072
   -31.5942 -31.5940 -31.5931 -31.5879 -31.5866 -31.5864 -31.5756 -31.5684
    -8.9660  -8.0639  -8.0637  -7.8901   4.1612   4.1617   4.3288   5.0714
     5.8470   6.0548   6.0557   6.4849   6.4860   6.5835   7.1732   7.5058

          k =-0.0006 0.2500-0.5000 (  5150 PWs)   bands (ev):

   -64.8292 -64.8288 -64.8258 -64.8252 -31.6176 -31.6175 -31.6101 -31.6101
   -31.6065 -31.6063 -31.5852 -31.5850 -31.5838 -31.5837 -31.5754 -31.5752
    -8.5096  -8.5094  -7.9468  -7.9467   4.4184   4.4186   4.7511   4.7513
     5.0962   5.0965   6.5479   6.5482   6.5755   6.5757   7.0946   7.0947

          k = 0.0013-0.5000 0.0000 (  5110 PWs)   bands (ev):

   -64.8300 -64.8295 -64.8251 -64.8245 -31.6099 -31.6096 -31.6095 -31.6093
   -31.6019 -31.6019 -31.5908 -31.5907 -31.5806 -31.5804 -31.5803 -31.5801
    -8.6460  -8.6457  -7.8564  -7.8563   4.8475   4.8477   4.8480   4.8483
     5.1228   5.1232   5.9735   5.9739   6.9683   6.9683   6.9685   6.9686

          k = 0.0013-0.5000 0.2500 (  5152 PWs)   bands (ev):

   -64.8292 -64.8288 -64.8258 -64.8252 -31.6175 -31.6174 -31.6102 -31.6102
   -31.6068 -31.6065 -31.5851 -31.5849 -31.5839 -31.5838 -31.5754 -31.5753
    -8.5096  -8.5093  -7.9469  -7.9468   4.4183   4.4185   4.7511   4.7514
     5.0962   5.0967   6.5478   6.5481   6.5758   6.5761   7.0941   7.0942

          k = 0.0013-0.5000-0.5000 (  5192 PWs)   bands (ev):

   -64.8275 -64.8275 -64.8275 -64.8265 -31.6194 -31.6192 -31.6191 -31.6191
   -31.5969 -31.5968 -31.5968 -31.5965 -31.5763 -31.5761 -31.5760 -31.5760
    -8.2054  -8.2054  -8.2052  -8.2050   4.2930   4.2932   4.2935   4.2936
     5.7673   5.7676   5.7680   5.7683   7.0633   7.0635   7.0636   7.0637

          k = 0.2494 0.2494 0.0000 (  5161 PWs)   bands (ev):

   -64.8320 -64.8263 -64.8259 -64.8249 -31.6222 -31.6220 -31.6197 -31.6061
   -31.5942 -31.5942 -31.5912 -31.5892 -31.5858 -31.5857 -31.5755 -31.5700
    -8.9685  -8.0606  -8.0605  -7.8932   4.1603   4.1603   4.3259   5.0559
     5.8385   6.0596   6.0599   6.4794   6.4794   6.6096   7.1684   7.5234

          k = 0.2494 0.2494 0.2500 (  5150 PWs)   bands (ev):

   -64.8310 -64.8263 -64.8263 -64.8255 -31.6267 -31.6265 -31.6246 -31.6052
   -31.5925 -31.5924 -31.5922 -31.5850 -31.5840 -31.5840 -31.5725 -31.5709
    -8.7987  -8.0336  -8.0275  -8.0275   3.9910   4.0028   4.0028   5.0784
     5.8382   5.8427   5.8429   6.7029   6.7031   6.7308   7.3529   7.3747

          k = 0.2494 0.2494-0.5000 (  5128 PWs)   bands (ev):

   -64.8288 -64.8284 -64.8263 -64.8256 -31.6294 -31.6292 -31.6203 -31.6202
   -31.5912 -31.5910 -31.5812 -31.5811 -31.5789 -31.5787 -31.5768 -31.5767
    -8.4018  -8.4016  -7.9940  -7.9939   3.8266   3.8266   4.1863   4.1864
     5.8237   5.8237   6.7378   6.7380   6.8659   6.8661   7.0385   7.0386

          k = 0.2513-0.5006 0.0000 (  5148 PWs)   bands (ev):

   -64.8292 -64.8288 -64.8258 -64.8252 -31.6194 -31.6154 -31.6117 -31.6082
   -31.6069 -31.6067 -31.5851 -31.5848 -31.5848 -31.5826 -31.5762 -31.5742
    -8.5135  -8.5055  -7.9512  -7.9424   4.4131   4.4239   4.7490   4.7536
     5.0918   5.1008   6.5306   6.5657   6.5696   6.5822   7.0812   7.1075

          k = 0.2513-0.5006 0.2500 (  5134 PWs)   bands (ev):

   -64.8287 -64.8283 -64.8263 -64.8257 -31.6291 -31.6269 -31.6224 -31.6195
   -31.5931 -31.5928 -31.5814 -31.5802 -31.5789 -31.5781 -31.5772 -31.5762
    -8.4030  -8.3950  -8.0013  -7.9928   3.8128   3.8303   4.1915   4.2046
     5.8264   5.8344   6.7277   6.7531   6.8599   6.8774   7.0127   7.0204

          k = 0.2513-0.5006-0.5000 (  5144 PWs)   bands (ev):

   -64.8276 -64.8275 -64.8275 -64.8265 -31.6329 -31.6328 -31.6305 -31.6304
   -31.5838 -31.5836 -31.5826 -31.5824 -31.5755 -31.5754 -31.5750 -31.5750
    -8.1718  -8.1717  -8.1637  -8.1636   3.6311   3.6312   3.6496   3.6497
     6.5111   6.5112   6.5377   6.5379   7.0605   7.0607   7.0684   7.0686

          k = 0.2506-0.2506 0.0000 (  5161 PWs)   bands (ev):

   -64.8319 -64.8264 -64.8260 -64.8249 -31.6198 -31.6197 -31.6196 -31.6090
   -31.5948 -31.5943 -31.5943 -31.5874 -31.5873 -31.5867 -31.5755 -31.5677
    -8.9634  -8.0669  -8.0668  -7.8872   4.1627   4.1628   4.3314   5.0869
     5.8558   6.0513   6.0517   6.4903   6.4904   6.5576   7.1782   7.4876

          k = 0.2506-0.2506 0.2500 (  5160 PWs)   bands (ev):

   -64.8309 -64.8263 -64.8263 -64.8255 -31.6256 -31.6239 -31.6237 -31.6069
   -31.5952 -31.5951 -31.5947 -31.5841 -31.5841 -31.5830 -31.5718 -31.5704
    -8.7936  -8.0338  -8.0337  -8.0278   3.9980   3.9981   4.0099   5.1001
     5.8488   5.8490   5.8535   6.6805   6.7079   6.7081   7.3361   7.3578

          k = 0.2506-0.2506-0.5000 (  5148 PWs)   bands (ev):

   -64.8287 -64.8283 -64.8263 -64.8257 -31.6273 -31.6271 -31.6219 -31.6218
   -31.5950 -31.5947 -31.5804 -31.5803 -31.5787 -31.5786 -31.5766 -31.5764
    -8.3965  -8.3963  -8.0002  -8.0001   3.8163   3.8164   4.2096   4.2097
     5.8371   5.8371   6.7426   6.7428   6.8716   6.8718   6.9938   6.9939

          k =-0.4988-0.4988 0.0000 (  5196 PWs)   bands (ev):

   -64.8276 -64.8275 -64.8274 -64.8265 -31.6213 -31.6211 -31.6170 -31.6167
   -31.5975 -31.5973 -31.5972 -31.5970 -31.5768 -31.5765 -31.5755 -31.5753
    -8.2113  -8.2111  -8.1993  -8.1992   4.2899   4.2901   4.2967   4.2967
     5.7597   5.7601   5.7745   5.7748   7.0433   7.0434   7.0840   7.0841

          k =-0.4988-0.4988 0.2500 (  5136 PWs)   bands (ev):

   -64.8276 -64.8275 -64.8274 -64.8265 -31.6329 -31.6327 -31.6306 -31.6305
   -31.5834 -31.5834 -31.5820 -31.5820 -31.5765 -31.5763 -31.5741 -31.5738
    -8.1737  -8.1736  -8.1619  -8.1618   3.6327   3.6328   3.6479   3.6479
     6.5223   6.5226   6.5265   6.5267   7.0445   7.0446   7.0847   7.0848

          k =-0.4988-0.4988-0.5000 (  5136 PWs)   bands (ev):

   -64.8276 -64.8275 -64.8274 -64.8265 -31.6400 -31.6398 -31.6392 -31.6391
   -31.5757 -31.5755 -31.5752 -31.5750 -31.5749 -31.5748 -31.5745 -31.5743
    -8.1356  -8.1355  -8.1238  -8.1237   3.2081   3.2081   3.2270   3.2271
     7.0452   7.0452   7.0647   7.0649   7.0657   7.0660   7.0858   7.0858

     highest occupied level (ev):     7.6906

!    total energy              =    -608.39280906 Ry
     Harris-Foulkes estimate   =    -608.39280906 Ry
     estimated scf accuracy    <          3.5E-12 Ry

     The total energy is the sum of the following terms:

     one-electron contribution =    -303.55733024 Ry
     hartree contribution      =     168.06792660 Ry
     xc contribution           =     -97.84640002 Ry
     ewald contribution        =    -375.05700540 Ry

     convergence has been achieved in   5 iterations

     Forces acting on atoms (cartesian axes, Ry/au):

     atom    1 type  1   force =    -0.00002155   -0.00002155    0.00000000
     atom    2 type  1   force =     0.00001097   -0.00005774    0.00000000
     atom    3 type  1   force =    -0.00005774    0.00001097    0.00000000
     atom    4 type  1   force =     0.00009334    0.00009334    0.00000000
     atom    5 type  2   force =     0.00003400   -0.00006506    0.00000000
     atom    6 type  2   force =    -0.00006506    0.00003400    0.00000000
     atom    7 type  2   force =     0.00003768    0.00003768    0.00000000
     atom    8 type  2   force =    -0.00003165   -0.00003165    0.00000000

     Total force =     0.000202     Total SCF correction =     0.000005


     Computing stress (Cartesian axis) and pressure

          total   stress  (Ry/bohr**3)                   (kbar)     P=  -68.02
  -0.00046255  -0.00004868   0.00000000        -68.04     -7.16      0.00
  -0.00004868  -0.00046255   0.00000000         -7.16    -68.04      0.00
   0.00000000   0.00000000  -0.00046217          0.00      0.00    -67.99


     bfgs converged in   6 scf cycles and   5 bfgs steps
     (criteria: energy <  1.0E-05 Ry, force <  1.0E-04 Ry/Bohr)

     End of BFGS Geometry Optimization

     Final energy   =    -608.3928090567 Ry
Begin final coordinates

ATOMIC_POSITIONS (alat)
Mg      -0.000555490  -0.000555490   0.000000000
Mg       0.000612211   0.499399079   0.500000000
Mg       0.499399079   0.000612211   0.500000000
Mg       0.500542471   0.500542471   0.000000000
O        0.499353232   0.000655402   0.000000000
O        0.000655402   0.499353232   0.000000000
O       -0.000632574  -0.000632574   0.500000000
O        0.500625670   0.500625670   0.500000000
End final coordinates



     Writing output data file MgO.0.005.70.4.save
 
     init_run     :      0.42s CPU      0.43s WALL (       1 calls)
     electrons    :     33.95s CPU     34.49s WALL (       6 calls)
     update_pot   :      0.57s CPU      0.58s WALL (       5 calls)
     forces       :      0.82s CPU      0.83s WALL (       6 calls)
     stress       :      1.78s CPU      1.78s WALL (       6 calls)

     Called by init_run:
     wfcinit      :      0.30s CPU      0.31s WALL (       1 calls)
     potinit      :      0.04s CPU      0.05s WALL (       1 calls)

     Called by electrons:
     c_bands      :     29.61s CPU     30.05s WALL (      37 calls)
     sum_band     :      4.11s CPU      4.20s WALL (      37 calls)
     v_of_rho     :      0.19s CPU      0.20s WALL (      38 calls)
     mix_rho      :      0.02s CPU      0.03s WALL (      37 calls)

     Called by c_bands:
     init_us_2    :      0.45s CPU      0.45s WALL (    1827 calls)
     cegterg      :     27.53s CPU     27.96s WALL (     777 calls)

     Called by sum_band:

     Called by *egterg:
     h_psi        :     20.19s CPU     20.60s WALL (    2654 calls)
     g_psi        :      0.15s CPU      0.15s WALL (    1856 calls)
     cdiaghg      :      3.92s CPU      3.93s WALL (    2423 calls)

     Called by h_psi:
     h_psi:pot    :     20.11s CPU     20.49s WALL (    2654 calls)
     h_psi:calbec :      1.15s CPU      1.15s WALL (    2654 calls)
     vloc_psi     :     18.02s CPU     18.38s WALL (    2654 calls)
     add_vuspsi   :      0.94s CPU      0.95s WALL (    2654 calls)

     General routines
     calbec       :      1.50s CPU      1.49s WALL (    3284 calls)
     fft          :      0.19s CPU      0.19s WALL (     577 calls)
     fftw         :     20.09s CPU     20.13s WALL (  156154 calls)
     davcio       :      0.00s CPU      0.00s WALL (      21 calls)
 
     Parallel routines
     fft_scatter  :      5.61s CPU      5.43s WALL (  156731 calls)
 
     PWSCF        :    37.95s CPU        38.63s WALL

 
   This run was terminated on:  19:11:26  22Apr2018            

=------------------------------------------------------------------------------=
   JOB DONE.
=------------------------------------------------------------------------------=
