
     Program PWSCF v.6.1 (svn rev. 13369) starts on 22Apr2018 at 19: 5:47 

     This program is part of the open-source Quantum ESPRESSO suite
     for quantum simulation of materials; please cite
         "P. Giannozzi et al., J. Phys.:Condens. Matter 21 395502 (2009);
          URL http://www.quantum-espresso.org", 
     in publications or presentations arising from this work. More details at
     http://www.quantum-espresso.org/quote

     Parallel version (MPI), running on     8 processors
     R & G space division:  proc/nbgrp/npool/nimage =       8
     Waiting for input...
     Reading input from standard input
Warning: card       &CELL ignored
Warning: card          CELL_DYNAMICS = 'BFGS' ignored
Warning: card          PRESS = 0.0D0 ignored
Warning: card          PRESS_CONV_THR = 0.01D0 ignored
Warning: card       / ignored

     Current dimensions of program PWSCF are:
     Max number of different atomic species (ntypx) = 10
     Max number of k-points (npk) =  40000
     Max angular momentum in pseudopotentials (lmaxx) =  3

     Subspace diagonalization in iterative solution of the eigenvalue problem:
     a serial algorithm will be used

 
     Parallelization info
     --------------------
     sticks:   dense  smooth     PW     G-vecs:    dense   smooth      PW
     Min         181     181     52                 5149     5149     816
     Max         182     182     53                 5151     5151     819
     Sum        1449    1449    421                41195    41195    6543
 


     bravais-lattice index     =            0
     lattice parameter (alat)  =       8.0448  a.u.
     unit-cell volume          =     520.6402 (a.u.)^3
     number of atoms/cell      =            8
     number of atomic types    =            2
     number of electrons       =        64.00
     number of Kohn-Sham states=           32
     kinetic-energy cutoff     =      70.0000  Ry
     charge density cutoff     =     280.0000  Ry
     convergence threshold     =      1.0E-08
     mixing beta               =       0.7000
     number of iterations used =            8  plain     mixing
     Exchange-correlation      = PBE ( 1  4  3  4 0 0)
     nstep                     =           50


     celldm(1)=   8.044750  celldm(2)=   0.000000  celldm(3)=   0.000000
     celldm(4)=   0.000000  celldm(5)=   0.000000  celldm(6)=   0.000000

     crystal axes: (cart. coord. in units of alat)
               a(1) = (   1.000000  -0.003214   0.000000 )  
               a(2) = (  -0.003214   1.000000   0.000000 )  
               a(3) = (   0.000000   0.000000   1.000010 )  

     reciprocal axes: (cart. coord. in units 2 pi/alat)
               b(1) = (  1.000010  0.003215  0.000000 )  
               b(2) = (  0.003215  1.000010  0.000000 )  
               b(3) = (  0.000000  0.000000  0.999990 )  


     PseudoPot. # 1 for Mg read from file:
     ../pseudo/Mg.pbe.UPF
     MD5 check sum: 4c04d8c6e0476e83eaecaf72fa8acc4d
     Pseudo is Norm-conserving, Zval = 10.0
     Generated using ONCVPSP code by D. R. Hamann
     Using radial grid of 1510 points,  4 beta functions with: 
                l(1) =   0
                l(2) =   0
                l(3) =   1
                l(4) =   1

     PseudoPot. # 2 for O  read from file:
     ../pseudo/O.pbe.UPF
     MD5 check sum: 3e3f909f7470e8921608ab6b1f57bbae
     Pseudo is Norm-conserving + core correction, Zval =  6.0
     Generated using ONCVPSP code by D. R. Hamann
     Using radial grid of  936 points,  5 beta functions with: 
                l(1) =   0
                l(2) =   0
                l(3) =   1
                l(4) =   1
                l(5) =   2

     atomic species   valence    mass     pseudopotential
        Mg            10.00    24.30500     Mg( 1.00)
        O              6.00    15.99940     O ( 1.00)

      2 Sym. Ops. (no inversion) found



   Cartesian axes

     site n.     atom                  positions (alat units)
         1           Mg  tau(   1) = (   0.0000000   0.0000000   0.0000000  )
         2           Mg  tau(   2) = (   0.0000000   0.5000000   0.5000000  )
         3           Mg  tau(   3) = (   0.5000000   0.0000000   0.5000000  )
         4           Mg  tau(   4) = (   0.5000000   0.5000000   0.0000000  )
         5           O   tau(   5) = (   0.5000000   0.0000000   0.0000000  )
         6           O   tau(   6) = (   0.0000000   0.5000000   0.0000000  )
         7           O   tau(   7) = (   0.0000000   0.0000000   0.5000000  )
         8           O   tau(   8) = (   0.5000000   0.5000000   0.5000000  )

     number of k points=    24
                       cart. coord. in units 2pi/alat
        k(    1) = (   0.0000000   0.0000000   0.0000000), wk =   0.0312500
        k(    2) = (   0.0000000   0.0000000   0.2499974), wk =   0.0625000
        k(    3) = (   0.0000000   0.0000000  -0.4999948), wk =   0.0312500
        k(    4) = (   0.0008036   0.2500026   0.0000000), wk =   0.1250000
        k(    5) = (   0.0008036   0.2500026   0.2499974), wk =   0.1250000
        k(    6) = (   0.0008036   0.2500026  -0.4999948), wk =   0.1250000
        k(    7) = (  -0.0016073  -0.5000052   0.0000000), wk =   0.0625000
        k(    8) = (  -0.0016073  -0.5000052   0.2499974), wk =   0.1250000
        k(    9) = (  -0.0016073  -0.5000052  -0.4999948), wk =   0.0625000
        k(   10) = (   0.2508062   0.2508062   0.0000000), wk =   0.0625000
        k(   11) = (   0.2508062   0.2508062   0.2499974), wk =   0.0625000
        k(   12) = (   0.2508062   0.2508062  -0.4999948), wk =   0.0625000
        k(   13) = (   0.2483953  -0.4992015   0.0000000), wk =   0.1250000
        k(   14) = (   0.2483953  -0.4992015   0.2499974), wk =   0.1250000
        k(   15) = (   0.2483953  -0.4992015  -0.4999948), wk =   0.1250000
        k(   16) = (   0.2491989  -0.2491989   0.0000000), wk =   0.0625000
        k(   17) = (   0.2491989  -0.2491989   0.2499974), wk =   0.1250000
        k(   18) = (   0.2491989  -0.2491989  -0.4999948), wk =   0.0625000
        k(   19) = (  -0.5016124  -0.5016124   0.0000000), wk =   0.0312500
        k(   20) = (  -0.5016124  -0.5016124   0.2499974), wk =   0.0625000
        k(   21) = (  -0.5016124  -0.5016124  -0.4999948), wk =   0.0312500
        k(   22) = (   0.2500026   0.0008036  -0.2499974), wk =   0.1250000
        k(   23) = (   0.2508062   0.2508062  -0.2499974), wk =   0.0625000
        k(   24) = (  -0.4992015   0.2483953  -0.2499974), wk =   0.1250000

     Dense  grid:    41195 G-vectors     FFT dimensions: (  45,  45,  45)

     Estimated max dynamical RAM per process >      13.45MB

     Estimated total allocated dynamical RAM >     107.57MB

     Check: negative/imaginary core charge=   -0.000007    0.000000

     Initial potential from superposition of free atoms

     starting charge   63.99678, renormalised to   64.00000
     Starting wfc are   36 randomized atomic wfcs

     total cpu time spent up to now is        0.6 secs

     per-process dynamical memory:    49.0 Mb

     Self-consistent Calculation

     iteration #  1     ecut=    70.00 Ry     beta=0.70
     Davidson diagonalization with overlap
     ethr =  1.00E-02,  avg # of iterations =  2.0

     total cpu time spent up to now is        1.6 secs

     total energy              =    -607.72016698 Ry
     Harris-Foulkes estimate   =    -608.84371853 Ry
     estimated scf accuracy    <       1.56119414 Ry

     iteration #  2     ecut=    70.00 Ry     beta=0.70
     Davidson diagonalization with overlap
     ethr =  2.44E-03,  avg # of iterations =  2.9

     total cpu time spent up to now is        2.7 secs

     total energy              =    -608.10580495 Ry
     Harris-Foulkes estimate   =    -608.80325419 Ry
     estimated scf accuracy    <       1.44792516 Ry

     iteration #  3     ecut=    70.00 Ry     beta=0.70
     Davidson diagonalization with overlap
     ethr =  2.26E-03,  avg # of iterations =  2.0

     total cpu time spent up to now is        3.7 secs

     total energy              =    -608.39122626 Ry
     Harris-Foulkes estimate   =    -608.39188767 Ry
     estimated scf accuracy    <       0.00675563 Ry

     iteration #  4     ecut=    70.00 Ry     beta=0.70
     Davidson diagonalization with overlap
     ethr =  1.06E-05,  avg # of iterations =  2.0

     total cpu time spent up to now is        4.7 secs

     total energy              =    -608.39269833 Ry
     Harris-Foulkes estimate   =    -608.39274229 Ry
     estimated scf accuracy    <       0.00010990 Ry

     iteration #  5     ecut=    70.00 Ry     beta=0.70
     Davidson diagonalization with overlap
     ethr =  1.72E-07,  avg # of iterations =  1.5

     total cpu time spent up to now is        5.5 secs

     total energy              =    -608.39270572 Ry
     Harris-Foulkes estimate   =    -608.39270419 Ry
     estimated scf accuracy    <       0.00001027 Ry

     iteration #  6     ecut=    70.00 Ry     beta=0.70
     Davidson diagonalization with overlap
     ethr =  1.60E-08,  avg # of iterations =  2.0

     total cpu time spent up to now is        6.7 secs

     total energy              =    -608.39270731 Ry
     Harris-Foulkes estimate   =    -608.39270770 Ry
     estimated scf accuracy    <       0.00000095 Ry

     iteration #  7     ecut=    70.00 Ry     beta=0.70
     Davidson diagonalization with overlap
     ethr =  1.49E-09,  avg # of iterations =  2.0

     total cpu time spent up to now is        7.6 secs

     total energy              =    -608.39270731 Ry
     Harris-Foulkes estimate   =    -608.39270739 Ry
     estimated scf accuracy    <       0.00000021 Ry

     iteration #  8     ecut=    70.00 Ry     beta=0.70
     Davidson diagonalization with overlap
     ethr =  3.23E-10,  avg # of iterations =  2.0

     total cpu time spent up to now is        8.6 secs

     total energy              =    -608.39270731 Ry
     Harris-Foulkes estimate   =    -608.39270733 Ry
     estimated scf accuracy    <       0.00000004 Ry

     iteration #  9     ecut=    70.00 Ry     beta=0.70
     Davidson diagonalization with overlap
     ethr =  5.69E-11,  avg # of iterations =  2.0

     total cpu time spent up to now is        9.7 secs

     End of self-consistent calculation

          k = 0.0000 0.0000 0.0000 (  5153 PWs)   bands (ev):

   -64.8345 -64.8251 -64.8251 -64.8243 -31.6312 -31.6312 -31.6310 -31.5949
   -31.5935 -31.5934 -31.5932 -31.5932 -31.5919 -31.5658 -31.5640 -31.5639
    -9.3645  -7.9137  -7.9134  -7.9134   3.7582   3.7583   3.7584   6.3429
     6.3800   6.3801   6.3802   6.3805   6.4178   7.6491   7.6723   7.6959

          k = 0.0000 0.0000 0.2500 (  5157 PWs)   bands (ev):

   -64.8331 -64.8263 -64.8251 -64.8244 -31.6248 -31.6248 -31.6204 -31.5980
   -31.5979 -31.5941 -31.5940 -31.5901 -31.5872 -31.5782 -31.5733 -31.5697
    -9.1561  -8.1285  -7.8850  -7.8849   4.0481   4.0488   4.0962   5.8580
     5.8582   6.1707   6.1710   6.5074   6.5794   6.6589   7.4245   7.4766

          k = 0.0000 0.0000-0.5000 (  5126 PWs)   bands (ev):

   -64.8299 -64.8294 -64.8250 -64.8245 -31.6127 -31.6125 -31.6078 -31.6075
   -31.6020 -31.6019 -31.5910 -31.5910 -31.5823 -31.5820 -31.5789 -31.5787
    -8.6459  -8.6458  -7.8562  -7.8561   4.8431   4.8435   4.8518   4.8522
     5.1229   5.1232   5.9736   5.9739   6.9370   6.9372   7.0001   7.0002

          k = 0.0008 0.2500 0.0000 (  5165 PWs)   bands (ev):

   -64.8331 -64.8263 -64.8250 -64.8244 -31.6249 -31.6244 -31.6211 -31.5990
   -31.5983 -31.5935 -31.5933 -31.5891 -31.5889 -31.5790 -31.5715 -31.5711
    -9.1561  -8.1284  -7.8852  -7.8850   4.0485   4.0486   4.0953   5.8547
     5.8582   6.1707   6.1742   6.5429   6.5431   6.6586   7.4502   7.4509

          k = 0.0008 0.2500 0.2500 (  5159 PWs)   bands (ev):

   -64.8319 -64.8263 -64.8259 -64.8248 -31.6213 -31.6210 -31.6197 -31.6072
   -31.5944 -31.5938 -31.5931 -31.5876 -31.5865 -31.5863 -31.5758 -31.5687
    -8.9659  -8.0662  -8.0612  -7.8900   4.1571   4.1658   4.3289   5.0714
     5.8470   6.0486   6.0613   6.4829   6.4889   6.5837   7.1731   7.5059

          k = 0.0008 0.2500-0.5000 (  5152 PWs)   bands (ev):

   -64.8292 -64.8287 -64.8258 -64.8252 -31.6178 -31.6176 -31.6101 -31.6101
   -31.6065 -31.6063 -31.5852 -31.5849 -31.5838 -31.5837 -31.5754 -31.5752
    -8.5095  -8.5094  -7.9467  -7.9466   4.4184   4.4185   4.7511   4.7513
     5.0964   5.0965   6.5479   6.5481   6.5755   6.5756   7.0950   7.0951

          k =-0.0016-0.5000 0.0000 (  5112 PWs)   bands (ev):

   -64.8299 -64.8294 -64.8250 -64.8245 -31.6103 -31.6100 -31.6095 -31.6093
   -31.6019 -31.6017 -31.5910 -31.5909 -31.5805 -31.5802 -31.5801 -31.5799
    -8.6458  -8.6457  -7.8564  -7.8562   4.8473   4.8480   4.8480   4.8481
     5.1230   5.1233   5.9734   5.9744   6.9685   6.9686   6.9687   6.9688

          k =-0.0016-0.5000 0.2500 (  5152 PWs)   bands (ev):

   -64.8292 -64.8288 -64.8257 -64.8252 -31.6174 -31.6172 -31.6103 -31.6102
   -31.6067 -31.6065 -31.5851 -31.5849 -31.5839 -31.5838 -31.5753 -31.5752
    -8.5095  -8.5093  -7.9468  -7.9466   4.4183   4.4184   4.7513   4.7515
     5.0965   5.0966   6.5478   6.5483   6.5760   6.5761   7.0941   7.0943

          k =-0.0016-0.5000-0.5000 (  5188 PWs)   bands (ev):

   -64.8275 -64.8275 -64.8274 -64.8264 -31.6193 -31.6191 -31.6190 -31.6190
   -31.5972 -31.5969 -31.5965 -31.5962 -31.5763 -31.5761 -31.5758 -31.5757
    -8.2087  -8.2085  -8.2018  -8.2017   4.2869   4.2871   4.2997   4.2998
     5.7597   5.7597   5.7761   5.7762   7.0601   7.0602   7.0670   7.0674

          k = 0.2508 0.2508 0.0000 (  5155 PWs)   bands (ev):

   -64.8318 -64.8263 -64.8259 -64.8248 -31.6195 -31.6194 -31.6192 -31.6095
   -31.5943 -31.5942 -31.5940 -31.5877 -31.5875 -31.5863 -31.5754 -31.5672
    -8.9626  -8.0678  -8.0676  -7.8862   4.1632   4.1632   4.3322   5.0913
     5.8585   6.0502   6.0506   6.4919   6.4920   6.5504   7.1796   7.4827

          k = 0.2508 0.2508 0.2500 (  5156 PWs)   bands (ev):

   -64.8308 -64.8263 -64.8262 -64.8255 -31.6258 -31.6236 -31.6234 -31.6069
   -31.5956 -31.5955 -31.5948 -31.5836 -31.5836 -31.5826 -31.5719 -31.5700
    -8.7928  -8.0354  -8.0344  -8.0261   3.9963   3.9975   4.0138   5.1033
     5.8434   5.8500   5.8620   6.6735   6.7089   6.7091   7.3308   7.3585

          k = 0.2508 0.2508-0.5000 (  5148 PWs)   bands (ev):

   -64.8286 -64.8282 -64.8263 -64.8257 -31.6268 -31.6266 -31.6221 -31.6221
   -31.5955 -31.5952 -31.5801 -31.5801 -31.5789 -31.5788 -31.5762 -31.5759
    -8.3956  -8.3955  -8.0009  -8.0008   3.8147   3.8151   4.2131   4.2132
     5.8390   5.8392   6.7433   6.7436   6.8725   6.8728   6.9876   6.9877

          k = 0.2484-0.4992 0.0000 (  5149 PWs)   bands (ev):

   -64.8292 -64.8287 -64.8258 -64.8252 -31.6196 -31.6148 -31.6123 -31.6080
   -31.6068 -31.6066 -31.5852 -31.5850 -31.5848 -31.5822 -31.5766 -31.5740
    -8.5146  -8.5043  -7.9524  -7.9411   4.4115   4.4255   4.7483   4.7543
     5.0906   5.1021   6.5258   6.5678   6.5708   6.5840   7.0775   7.1114

          k = 0.2484-0.4992 0.2500 (  5137 PWs)   bands (ev):

   -64.8287 -64.8283 -64.8263 -64.8256 -31.6295 -31.6269 -31.6228 -31.6192
   -31.5932 -31.5928 -31.5816 -31.5799 -31.5792 -31.5782 -31.5770 -31.5758
    -8.4041  -8.3938  -8.0025  -7.9915   3.8103   3.8327   4.1897   4.2065
     5.8251   5.8354   6.7243   6.7569   6.8573   6.8797   7.0119   7.0219

          k = 0.2484-0.4992-0.5000 (  5144 PWs)   bands (ev):

   -64.8275 -64.8275 -64.8274 -64.8264 -31.6333 -31.6331 -31.6302 -31.6300
   -31.5841 -31.5839 -31.5824 -31.5822 -31.5755 -31.5753 -31.5749 -31.5748
    -8.1735  -8.1733  -8.1619  -8.1619   3.6276   3.6277   3.6532   3.6532
     6.5063   6.5065   6.5426   6.5427   7.0590   7.0590   7.0702   7.0705

          k = 0.2492-0.2492 0.0000 (  5159 PWs)   bands (ev):

   -64.8320 -64.8262 -64.8258 -64.8249 -31.6227 -31.6225 -31.6197 -31.6058
   -31.5942 -31.5941 -31.5907 -31.5887 -31.5854 -31.5853 -31.5755 -31.5704
    -8.9692  -8.0596  -8.0596  -7.8940   4.1600   4.1600   4.3253   5.0513
     5.8361   6.0608   6.0611   6.4780   6.4781   6.6173   7.1670   7.5287

          k = 0.2492-0.2492 0.2500 (  5146 PWs)   bands (ev):

   -64.8309 -64.8263 -64.8262 -64.8254 -31.6267 -31.6266 -31.6244 -31.6049
   -31.5924 -31.5919 -31.5918 -31.5854 -31.5839 -31.5838 -31.5729 -31.5706
    -8.7994  -8.0351  -8.0265  -8.0257   3.9873   4.0037   4.0047   5.0754
     5.8298   5.8420   5.8483   6.7023   6.7024   6.7381   7.3523   7.3804

          k = 0.2492-0.2492-0.5000 (  5124 PWs)   bands (ev):

   -64.8287 -64.8283 -64.8262 -64.8256 -31.6298 -31.6297 -31.6199 -31.6199
   -31.5907 -31.5904 -31.5813 -31.5813 -31.5790 -31.5787 -31.5764 -31.5763
    -8.4025  -8.4024  -7.9930  -7.9930   3.8279   3.8281   4.1830   4.1834
     5.8217   5.8219   6.7371   6.7373   6.8653   6.8653   7.0452   7.0453

          k =-0.5016-0.5016 0.0000 (  5180 PWs)   bands (ev):

   -64.8276 -64.8275 -64.8274 -64.8264 -31.6215 -31.6213 -31.6163 -31.6161
   -31.5970 -31.5969 -31.5968 -31.5966 -31.5768 -31.5765 -31.5749 -31.5747
    -8.2129  -8.2127  -8.1975  -8.1975   4.2890   4.2890   4.2977   4.2978
     5.7580   5.7584   5.7769   5.7772   7.0378   7.0379   7.0900   7.0901

          k =-0.5016-0.5016 0.2500 (  5138 PWs)   bands (ev):

   -64.8276 -64.8275 -64.8274 -64.8264 -31.6332 -31.6330 -31.6302 -31.6300
   -31.5835 -31.5835 -31.5822 -31.5822 -31.5769 -31.5766 -31.5737 -31.5734
    -8.1753  -8.1752  -8.1601  -8.1600   3.6306   3.6307   3.6501   3.6501
     6.5216   6.5219   6.5271   6.5273   7.0390   7.0391   7.0907   7.0908

          k =-0.5016-0.5016-0.5000 (  5136 PWs)   bands (ev):

   -64.8276 -64.8274 -64.8274 -64.8264 -31.6397 -31.6395 -31.6395 -31.6394
   -31.5761 -31.5758 -31.5753 -31.5752 -31.5747 -31.5747 -31.5741 -31.5739
    -8.1372  -8.1370  -8.1220  -8.1220   3.2055   3.2056   3.2297   3.2297
     7.0397   7.0397   7.0645   7.0647   7.0659   7.0662   7.0917   7.0917

          k = 0.2500 0.0008-0.2500 (  5159 PWs)   bands (ev):

   -64.8319 -64.8263 -64.8259 -64.8248 -31.6213 -31.6210 -31.6197 -31.6072
   -31.5944 -31.5938 -31.5931 -31.5876 -31.5865 -31.5863 -31.5758 -31.5687
    -8.9659  -8.0662  -8.0612  -7.8900   4.1571   4.1658   4.3289   5.0714
     5.8470   6.0486   6.0613   6.4829   6.4889   6.5837   7.1731   7.5059

          k = 0.2508 0.2508-0.2500 (  5156 PWs)   bands (ev):

   -64.8308 -64.8263 -64.8262 -64.8255 -31.6258 -31.6236 -31.6234 -31.6069
   -31.5956 -31.5955 -31.5948 -31.5836 -31.5836 -31.5826 -31.5719 -31.5700
    -8.7928  -8.0354  -8.0344  -8.0261   3.9963   3.9975   4.0138   5.1033
     5.8434   5.8500   5.8620   6.6735   6.7089   6.7091   7.3308   7.3585

          k =-0.4992 0.2484-0.2500 (  5137 PWs)   bands (ev):

   -64.8287 -64.8283 -64.8263 -64.8256 -31.6295 -31.6269 -31.6228 -31.6192
   -31.5932 -31.5928 -31.5816 -31.5799 -31.5792 -31.5782 -31.5770 -31.5758
    -8.4041  -8.3938  -8.0025  -7.9915   3.8103   3.8327   4.1897   4.2065
     5.8251   5.8354   6.7243   6.7569   6.8573   6.8797   7.0119   7.0219

     highest occupied level (ev):     7.6959

!    total energy              =    -608.39270732 Ry
     Harris-Foulkes estimate   =    -608.39270732 Ry
     estimated scf accuracy    <          1.2E-09 Ry

     The total energy is the sum of the following terms:

     one-electron contribution =    -303.55579603 Ry
     hartree contribution      =     168.06701985 Ry
     xc contribution           =     -97.84633264 Ry
     ewald contribution        =    -375.05759850 Ry

     convergence has been achieved in   9 iterations

     Forces acting on atoms (cartesian axes, Ry/au):

     atom    1 type  1   force =     0.00078076    0.00078076   -0.00000582
     atom    2 type  1   force =    -0.00080000    0.00073267    0.00000529
     atom    3 type  1   force =     0.00073267   -0.00080000    0.00000529
     atom    4 type  1   force =    -0.00067975   -0.00067975   -0.00000515
     atom    5 type  2   force =     0.00093350   -0.00099328   -0.00000603
     atom    6 type  2   force =    -0.00099328    0.00093350   -0.00000603
     atom    7 type  2   force =     0.00095396    0.00095396    0.00000636
     atom    8 type  2   force =    -0.00092786   -0.00092786    0.00000610

     Total force =     0.003429     Total SCF correction =     0.000010


     Computing stress (Cartesian axis) and pressure

          total   stress  (Ry/bohr**3)                   (kbar)     P=  -68.13
  -0.00046324   0.00006209   0.00000000        -68.14      9.13      0.00
   0.00006209  -0.00046324   0.00000000          9.13    -68.14      0.00
   0.00000000   0.00000000  -0.00046303          0.00      0.00    -68.11


     BFGS Geometry Optimization

     number of scf cycles    =   1
     number of bfgs steps    =   0

     energy   new            =    -608.3927073176 Ry

     new trust radius        =       0.0013631082 bohr
     new conv_thr            =       0.0000000100 Ry


ATOMIC_POSITIONS (alat)
Mg       0.000097053   0.000097053  -0.000000723
Mg      -0.000099443   0.500091074   0.500000657
Mg       0.500091074  -0.000099443   0.500000657
Mg       0.499915503   0.499915503  -0.000000641
O        0.500116038  -0.000123469  -0.000000750
O       -0.000123469   0.500116038  -0.000000750
O        0.000118581   0.000118581   0.500000790
O        0.499884663   0.499884663   0.500000759



     Writing output data file MgO.-0.006429.70.4.save
     NEW-OLD atomic charge density approx. for the potential

     Check: negative/imaginary core charge=   -0.000007    0.000000

     total cpu time spent up to now is       10.4 secs

     per-process dynamical memory:    53.7 Mb

     Self-consistent Calculation

     iteration #  1     ecut=    70.00 Ry     beta=0.70
     Davidson diagonalization with overlap
     ethr =  1.00E-06,  avg # of iterations =  2.9

     Threshold (ethr) on eigenvalues was too large:
     Diagonalizing with lowered threshold

     Davidson diagonalization with overlap
     ethr =  1.02E-09,  avg # of iterations =  3.0

     total cpu time spent up to now is       12.8 secs

     total energy              =    -608.39271812 Ry
     Harris-Foulkes estimate   =    -608.39271856 Ry
     estimated scf accuracy    <       0.00000078 Ry

     iteration #  2     ecut=    70.00 Ry     beta=0.70
     Davidson diagonalization with overlap
     ethr =  1.21E-09,  avg # of iterations =  2.0

     total cpu time spent up to now is       13.8 secs

     total energy              =    -608.39271825 Ry
     Harris-Foulkes estimate   =    -608.39271826 Ry
     estimated scf accuracy    <       0.00000002 Ry

     iteration #  3     ecut=    70.00 Ry     beta=0.70
     Davidson diagonalization with overlap
     ethr =  2.99E-11,  avg # of iterations =  2.0

     total cpu time spent up to now is       14.8 secs

     End of self-consistent calculation

          k = 0.0000 0.0000 0.0000 (  5153 PWs)   bands (ev):

   -64.8347 -64.8253 -64.8253 -64.8245 -31.6314 -31.6314 -31.6311 -31.5951
   -31.5936 -31.5936 -31.5934 -31.5933 -31.5921 -31.5660 -31.5641 -31.5640
    -9.3645  -7.9136  -7.9134  -7.9133   3.7582   3.7583   3.7584   6.3429
     6.3801   6.3801   6.3802   6.3805   6.4178   7.6492   7.6724   7.6960

          k = 0.0000 0.0000 0.2500 (  5157 PWs)   bands (ev):

   -64.8333 -64.8265 -64.8253 -64.8246 -31.6250 -31.6249 -31.6205 -31.5982
   -31.5981 -31.5942 -31.5942 -31.5902 -31.5874 -31.5784 -31.5734 -31.5698
    -9.1561  -8.1285  -7.8850  -7.8849   4.0483   4.0489   4.0960   5.8581
     5.8583   6.1707   6.1711   6.5074   6.5794   6.6589   7.4245   7.4766

          k = 0.0000 0.0000-0.5000 (  5126 PWs)   bands (ev):

   -64.8301 -64.8296 -64.8252 -64.8247 -31.6129 -31.6126 -31.6079 -31.6076
   -31.6021 -31.6021 -31.5912 -31.5911 -31.5825 -31.5822 -31.5791 -31.5788
    -8.6459  -8.6457  -7.8562  -7.8561   4.8432   4.8436   4.8519   4.8522
     5.1228   5.1232   5.9736   5.9740   6.9371   6.9372   7.0002   7.0002

          k = 0.0008 0.2500 0.0000 (  5165 PWs)   bands (ev):

   -64.8333 -64.8265 -64.8252 -64.8246 -31.6251 -31.6246 -31.6213 -31.5992
   -31.5985 -31.5937 -31.5935 -31.5892 -31.5890 -31.5792 -31.5717 -31.5713
    -9.1560  -8.1283  -7.8851  -7.8849   4.0485   4.0486   4.0954   5.8549
     5.8583   6.1707   6.1742   6.5430   6.5432   6.6586   7.4503   7.4509

          k = 0.0008 0.2500 0.2500 (  5159 PWs)   bands (ev):

   -64.8321 -64.8265 -64.8261 -64.8250 -31.6214 -31.6212 -31.6198 -31.6073
   -31.5945 -31.5940 -31.5932 -31.5878 -31.5867 -31.5864 -31.5759 -31.5688
    -8.9659  -8.0658  -8.0615  -7.8899   4.1578   4.1652   4.3289   5.0714
     5.8470   6.0496   6.0604   6.4833   6.4886   6.5838   7.1732   7.5060

          k = 0.0008 0.2500-0.5000 (  5152 PWs)   bands (ev):

   -64.8294 -64.8289 -64.8260 -64.8254 -31.6180 -31.6178 -31.6103 -31.6103
   -31.6067 -31.6064 -31.5853 -31.5851 -31.5839 -31.5839 -31.5756 -31.5754
    -8.5095  -8.5094  -7.9467  -7.9465   4.4185   4.4186   4.7511   4.7514
     5.0964   5.0965   6.5479   6.5482   6.5756   6.5756   7.0950   7.0951

          k =-0.0016-0.5000 0.0000 (  5112 PWs)   bands (ev):

   -64.8301 -64.8296 -64.8252 -64.8247 -31.6105 -31.6102 -31.6097 -31.6094
   -31.6020 -31.6019 -31.5912 -31.5911 -31.5806 -31.5804 -31.5803 -31.5800
    -8.6458  -8.6456  -7.8563  -7.8562   4.8474   4.8479   4.8480   4.8482
     5.1230   5.1233   5.9735   5.9743   6.9685   6.9687   6.9687   6.9688

          k =-0.0016-0.5000 0.2500 (  5152 PWs)   bands (ev):

   -64.8294 -64.8290 -64.8259 -64.8254 -31.6176 -31.6174 -31.6104 -31.6103
   -31.6069 -31.6067 -31.5852 -31.5850 -31.5841 -31.5840 -31.5755 -31.5753
    -8.5094  -8.5093  -7.9468  -7.9466   4.4183   4.4184   4.7513   4.7515
     5.0966   5.0966   6.5479   6.5483   6.5761   6.5762   7.0942   7.0944

          k =-0.0016-0.5000-0.5000 (  5188 PWs)   bands (ev):

   -64.8277 -64.8276 -64.8276 -64.8266 -31.6195 -31.6193 -31.6191 -31.6191
   -31.5973 -31.5970 -31.5967 -31.5964 -31.5764 -31.5762 -31.5759 -31.5759
    -8.2081  -8.2079  -8.2022  -8.2022   4.2879   4.2881   4.2988   4.2988
     5.7609   5.7610   5.7749   5.7750   7.0607   7.0607   7.0665   7.0669

          k = 0.2508 0.2508 0.0000 (  5155 PWs)   bands (ev):

   -64.8320 -64.8265 -64.8261 -64.8250 -31.6197 -31.6196 -31.6194 -31.6097
   -31.5945 -31.5944 -31.5942 -31.5878 -31.5877 -31.5865 -31.5756 -31.5674
    -8.9626  -8.0677  -8.0675  -7.8862   4.1632   4.1632   4.3323   5.0913
     5.8586   6.0503   6.0507   6.4920   6.4920   6.5504   7.1797   7.4828

          k = 0.2508 0.2508 0.2500 (  5156 PWs)   bands (ev):

   -64.8310 -64.8265 -64.8264 -64.8257 -31.6259 -31.6238 -31.6236 -31.6070
   -31.5957 -31.5957 -31.5950 -31.5838 -31.5838 -31.5827 -31.5720 -31.5701
    -8.7927  -8.0351  -8.0344  -8.0262   3.9967   3.9975   4.0135   5.1033
     5.8447   5.8501   5.8608   6.6735   6.7089   6.7091   7.3308   7.3586

          k = 0.2508 0.2508-0.5000 (  5148 PWs)   bands (ev):

   -64.8288 -64.8284 -64.8265 -64.8259 -31.6270 -31.6268 -31.6223 -31.6222
   -31.5956 -31.5954 -31.5803 -31.5803 -31.5791 -31.5790 -31.5764 -31.5761
    -8.3956  -8.3954  -8.0009  -8.0007   3.8148   3.8151   4.2131   4.2132
     5.8391   5.8393   6.7434   6.7437   6.8725   6.8728   6.9876   6.9878

          k = 0.2484-0.4992 0.0000 (  5149 PWs)   bands (ev):

   -64.8294 -64.8289 -64.8260 -64.8254 -31.6198 -31.6150 -31.6124 -31.6082
   -31.6070 -31.6068 -31.5853 -31.5852 -31.5850 -31.5823 -31.5768 -31.5741
    -8.5145  -8.5042  -7.9523  -7.9410   4.4116   4.4256   4.7484   4.7544
     5.0906   5.1022   6.5259   6.5679   6.5709   6.5841   7.0776   7.1115

          k = 0.2484-0.4992 0.2500 (  5137 PWs)   bands (ev):

   -64.8289 -64.8285 -64.8264 -64.8258 -31.6297 -31.6271 -31.6230 -31.6194
   -31.5934 -31.5930 -31.5818 -31.5800 -31.5794 -31.5784 -31.5772 -31.5759
    -8.4040  -8.3937  -8.0024  -7.9914   3.8103   3.8328   4.1897   4.2065
     5.8252   5.8355   6.7244   6.7569   6.8574   6.8798   7.0119   7.0220

          k = 0.2484-0.4992-0.5000 (  5144 PWs)   bands (ev):

   -64.8277 -64.8276 -64.8276 -64.8266 -31.6334 -31.6333 -31.6303 -31.6302
   -31.5843 -31.5841 -31.5826 -31.5824 -31.5756 -31.5755 -31.5750 -31.5750
    -8.1733  -8.1731  -8.1620  -8.1619   3.6279   3.6280   3.6530   3.6530
     6.5067   6.5068   6.5424   6.5425   7.0592   7.0592   7.0701   7.0704

          k = 0.2492-0.2492 0.0000 (  5159 PWs)   bands (ev):

   -64.8322 -64.8264 -64.8260 -64.8251 -31.6229 -31.6227 -31.6199 -31.6060
   -31.5943 -31.5943 -31.5909 -31.5889 -31.5856 -31.5854 -31.5757 -31.5706
    -8.9691  -8.0596  -8.0595  -7.8940   4.1600   4.1601   4.3253   5.0514
     5.8361   6.0609   6.0612   6.4780   6.4781   6.6174   7.1671   7.5287

          k = 0.2492-0.2492 0.2500 (  5146 PWs)   bands (ev):

   -64.8311 -64.8265 -64.8264 -64.8256 -31.6269 -31.6268 -31.6245 -31.6051
   -31.5925 -31.5921 -31.5920 -31.5855 -31.5841 -31.5840 -31.5731 -31.5708
    -8.7993  -8.0348  -8.0265  -8.0259   3.9876   4.0037   4.0044   5.0754
     5.8311   5.8420   5.8471   6.7023   6.7025   6.7382   7.3523   7.3804

          k = 0.2492-0.2492-0.5000 (  5124 PWs)   bands (ev):

   -64.8289 -64.8285 -64.8264 -64.8258 -31.6300 -31.6298 -31.6201 -31.6200
   -31.5908 -31.5906 -31.5815 -31.5815 -31.5792 -31.5789 -31.5766 -31.5765
    -8.4024  -8.4023  -7.9930  -7.9929   3.8280   3.8281   4.1830   4.1833
     5.8218   5.8219   6.7372   6.7374   6.8653   6.8653   7.0453   7.0453

          k =-0.5016-0.5016 0.0000 (  5180 PWs)   bands (ev):

   -64.8278 -64.8277 -64.8276 -64.8266 -31.6217 -31.6214 -31.6165 -31.6162
   -31.5972 -31.5971 -31.5970 -31.5967 -31.5769 -31.5766 -31.5751 -31.5749
    -8.2128  -8.2127  -8.1975  -8.1974   4.2891   4.2891   4.2977   4.2979
     5.7580   5.7585   5.7769   5.7773   7.0378   7.0380   7.0901   7.0901

          k =-0.5016-0.5016 0.2500 (  5138 PWs)   bands (ev):

   -64.8278 -64.8277 -64.8276 -64.8266 -31.6334 -31.6332 -31.6304 -31.6302
   -31.5837 -31.5837 -31.5824 -31.5824 -31.5771 -31.5768 -31.5738 -31.5736
    -8.1753  -8.1751  -8.1600  -8.1600   3.6306   3.6307   3.6501   3.6502
     6.5217   6.5220   6.5272   6.5274   7.0390   7.0391   7.0908   7.0908

          k =-0.5016-0.5016-0.5000 (  5136 PWs)   bands (ev):

   -64.8278 -64.8276 -64.8276 -64.8266 -31.6399 -31.6397 -31.6396 -31.6396
   -31.5762 -31.5760 -31.5755 -31.5754 -31.5748 -31.5748 -31.5743 -31.5740
    -8.1371  -8.1369  -8.1220  -8.1219   3.2055   3.2056   3.2297   3.2297
     7.0397   7.0398   7.0646   7.0647   7.0660   7.0663   7.0917   7.0917

          k = 0.2500 0.0008-0.2500 (  5159 PWs)   bands (ev):

   -64.8321 -64.8265 -64.8261 -64.8250 -31.6214 -31.6212 -31.6198 -31.6073
   -31.5945 -31.5940 -31.5932 -31.5878 -31.5867 -31.5864 -31.5759 -31.5688
    -8.9659  -8.0658  -8.0615  -7.8899   4.1578   4.1652   4.3289   5.0714
     5.8470   6.0496   6.0604   6.4833   6.4886   6.5838   7.1732   7.5060

          k = 0.2508 0.2508-0.2500 (  5156 PWs)   bands (ev):

   -64.8310 -64.8265 -64.8264 -64.8257 -31.6259 -31.6238 -31.6236 -31.6070
   -31.5957 -31.5957 -31.5950 -31.5838 -31.5838 -31.5827 -31.5720 -31.5701
    -8.7927  -8.0351  -8.0344  -8.0262   3.9967   3.9975   4.0135   5.1033
     5.8447   5.8501   5.8608   6.6735   6.7089   6.7091   7.3308   7.3586

          k =-0.4992 0.2484-0.2500 (  5137 PWs)   bands (ev):

   -64.8289 -64.8285 -64.8264 -64.8258 -31.6297 -31.6271 -31.6230 -31.6194
   -31.5934 -31.5930 -31.5818 -31.5800 -31.5794 -31.5784 -31.5772 -31.5759
    -8.4040  -8.3937  -8.0024  -7.9914   3.8103   3.8328   4.1897   4.2065
     5.8252   5.8355   6.7244   6.7569   6.8574   6.8798   7.0119   7.0220

     highest occupied level (ev):     7.6960

!    total energy              =    -608.39271825 Ry
     Harris-Foulkes estimate   =    -608.39271825 Ry
     estimated scf accuracy    <          1.6E-09 Ry

     The total energy is the sum of the following terms:

     one-electron contribution =    -303.55607244 Ry
     hartree contribution      =     168.06719544 Ry
     xc contribution           =     -97.84633184 Ry
     ewald contribution        =    -375.05750941 Ry

     convergence has been achieved in   3 iterations

     Forces acting on atoms (cartesian axes, Ry/au):

     atom    1 type  1   force =     0.00069011    0.00069011   -0.00000319
     atom    2 type  1   force =    -0.00071679    0.00067729    0.00000324
     atom    3 type  1   force =     0.00067729   -0.00071679    0.00000324
     atom    4 type  1   force =    -0.00062985   -0.00062985   -0.00000345
     atom    5 type  2   force =     0.00080425   -0.00083582   -0.00000477
     atom    6 type  2   force =    -0.00083582    0.00080425   -0.00000477
     atom    7 type  2   force =     0.00080481    0.00080481    0.00000470
     atom    8 type  2   force =    -0.00079401   -0.00079401    0.00000501

     Total force =     0.002990     Total SCF correction =     0.000054


     Computing stress (Cartesian axis) and pressure

          total   stress  (Ry/bohr**3)                   (kbar)     P=  -68.09
  -0.00046297   0.00006209  -0.00000000        -68.10      9.13     -0.00
   0.00006209  -0.00046297  -0.00000000          9.13    -68.10     -0.00
  -0.00000000  -0.00000000  -0.00046271         -0.00     -0.00    -68.07


     number of scf cycles    =   2
     number of bfgs steps    =   1

     energy   old            =    -608.3927073176 Ry
     energy   new            =    -608.3927182543 Ry

     CASE: energy  _new < energy  _old


     WARNING: bfgs curvature condition failed, Theta= 0.918
     new trust radius        =       0.0014994191 bohr
     new conv_thr            =       0.0000000001 Ry


ATOMIC_POSITIONS (alat)
Mg       0.000207468   0.000207468  -0.000001269
Mg      -0.000213955   0.500198909   0.500001201
Mg       0.500198909  -0.000213955   0.500001201
Mg       0.499815247   0.499815247  -0.000001212
O        0.500245088  -0.000257949  -0.000001523
O       -0.000257949   0.500245088  -0.000001523
O        0.000248033   0.000248033   0.500001559
O        0.499757159   0.499757159   0.500001567



     Writing output data file MgO.-0.006429.70.4.save
     NEW-OLD atomic charge density approx. for the potential

     Check: negative/imaginary core charge=   -0.000007    0.000000

     total cpu time spent up to now is       15.4 secs

     per-process dynamical memory:    53.7 Mb

     Self-consistent Calculation

     iteration #  1     ecut=    70.00 Ry     beta=0.70
     Davidson diagonalization with overlap
     ethr =  1.00E-06,  avg # of iterations =  3.0

     Threshold (ethr) on eigenvalues was too large:
     Diagonalizing with lowered threshold

     Davidson diagonalization with overlap
     ethr =  1.28E-09,  avg # of iterations =  2.8

     total cpu time spent up to now is       17.8 secs

     total energy              =    -608.39272845 Ry
     Harris-Foulkes estimate   =    -608.39272897 Ry
     estimated scf accuracy    <       0.00000091 Ry

     iteration #  2     ecut=    70.00 Ry     beta=0.70
     Davidson diagonalization with overlap
     ethr =  1.43E-09,  avg # of iterations =  2.0

     total cpu time spent up to now is       18.8 secs

     total energy              =    -608.39272861 Ry
     Harris-Foulkes estimate   =    -608.39272862 Ry
     estimated scf accuracy    <       0.00000002 Ry

     iteration #  3     ecut=    70.00 Ry     beta=0.70
     Davidson diagonalization with overlap
     ethr =  3.90E-11,  avg # of iterations =  2.2

     total cpu time spent up to now is       19.8 secs

     total energy              =    -608.39272861 Ry
     Harris-Foulkes estimate   =    -608.39272861 Ry
     estimated scf accuracy    <          4.5E-09 Ry

     iteration #  4     ecut=    70.00 Ry     beta=0.70
     Davidson diagonalization with overlap
     ethr =  7.08E-12,  avg # of iterations =  3.0

     total cpu time spent up to now is       21.0 secs

     total energy              =    -608.39272861 Ry
     Harris-Foulkes estimate   =    -608.39272861 Ry
     estimated scf accuracy    <          3.7E-09 Ry

     iteration #  5     ecut=    70.00 Ry     beta=0.70
     Davidson diagonalization with overlap
     ethr =  5.80E-12,  avg # of iterations =  2.4

     total cpu time spent up to now is       22.0 secs

     End of self-consistent calculation

          k = 0.0000 0.0000 0.0000 (  5153 PWs)   bands (ev):

   -64.8347 -64.8252 -64.8252 -64.8244 -31.6314 -31.6313 -31.6311 -31.5951
   -31.5936 -31.5936 -31.5934 -31.5933 -31.5921 -31.5659 -31.5641 -31.5640
    -9.3645  -7.9137  -7.9134  -7.9134   3.7582   3.7583   3.7583   6.3429
     6.3801   6.3801   6.3802   6.3805   6.4178   7.6491   7.6724   7.6959

          k = 0.0000 0.0000 0.2500 (  5157 PWs)   bands (ev):

   -64.8333 -64.8265 -64.8252 -64.8246 -31.6250 -31.6249 -31.6205 -31.5981
   -31.5981 -31.5942 -31.5942 -31.5902 -31.5874 -31.5784 -31.5734 -31.5698
    -9.1561  -8.1285  -7.8850  -7.8849   4.0485   4.0488   4.0958   5.8581
     5.8582   6.1707   6.1710   6.5073   6.5794   6.6589   7.4245   7.4766

          k = 0.0000 0.0000-0.5000 (  5126 PWs)   bands (ev):

   -64.8301 -64.8296 -64.8252 -64.8246 -31.6128 -31.6126 -31.6079 -31.6076
   -31.6021 -31.6021 -31.5912 -31.5911 -31.5824 -31.5822 -31.5791 -31.5788
    -8.6459  -8.6458  -7.8562  -7.8561   4.8433   4.8435   4.8520   4.8521
     5.1228   5.1231   5.9736   5.9739   6.9371   6.9371   7.0001   7.0002

          k = 0.0008 0.2500 0.0000 (  5165 PWs)   bands (ev):

   -64.8333 -64.8265 -64.8252 -64.8246 -31.6251 -31.6246 -31.6213 -31.5992
   -31.5985 -31.5937 -31.5934 -31.5892 -31.5890 -31.5792 -31.5717 -31.5712
    -9.1561  -8.1283  -7.8852  -7.8850   4.0485   4.0486   4.0953   5.8549
     5.8583   6.1707   6.1741   6.5429   6.5431   6.6586   7.4503   7.4509

          k = 0.0008 0.2500 0.2500 (  5159 PWs)   bands (ev):

   -64.8321 -64.8264 -64.8261 -64.8250 -31.6214 -31.6211 -31.6198 -31.6073
   -31.5945 -31.5940 -31.5932 -31.5877 -31.5867 -31.5864 -31.5759 -31.5688
    -8.9659  -8.0654  -8.0619  -7.8900   4.1585   4.1644   4.3289   5.0714
     5.8470   6.0506   6.0593   6.4837   6.4881   6.5837   7.1731   7.5059

          k = 0.0008 0.2500-0.5000 (  5152 PWs)   bands (ev):

   -64.8294 -64.8289 -64.8259 -64.8253 -31.6179 -31.6178 -31.6103 -31.6102
   -31.6066 -31.6064 -31.5853 -31.5851 -31.5839 -31.5839 -31.5756 -31.5754
    -8.5095  -8.5094  -7.9467  -7.9466   4.4185   4.4186   4.7511   4.7513
     5.0964   5.0965   6.5479   6.5482   6.5755   6.5756   7.0950   7.0951

          k =-0.0016-0.5000 0.0000 (  5112 PWs)   bands (ev):

   -64.8301 -64.8296 -64.8252 -64.8247 -31.6104 -31.6101 -31.6096 -31.6094
   -31.6020 -31.6018 -31.5912 -31.5911 -31.5806 -31.5804 -31.5802 -31.5800
    -8.6458  -8.6456  -7.8564  -7.8562   4.8475   4.8479   4.8480   4.8482
     5.1230   5.1233   5.9735   5.9742   6.9685   6.9686   6.9686   6.9688

          k =-0.0016-0.5000 0.2500 (  5152 PWs)   bands (ev):

   -64.8294 -64.8289 -64.8259 -64.8253 -31.6176 -31.6174 -31.6104 -31.6103
   -31.6069 -31.6067 -31.5852 -31.5850 -31.5840 -31.5840 -31.5755 -31.5753
    -8.5095  -8.5093  -7.9468  -7.9466   4.4184   4.4184   4.7513   4.7515
     5.0966   5.0966   6.5478   6.5483   6.5760   6.5761   7.0942   7.0943

          k =-0.0016-0.5000-0.5000 (  5188 PWs)   bands (ev):

   -64.8277 -64.8276 -64.8276 -64.8266 -31.6195 -31.6193 -31.6191 -31.6191
   -31.5972 -31.5970 -31.5967 -31.5965 -31.5764 -31.5762 -31.5759 -31.5759
    -8.2076  -8.2074  -8.2028  -8.2028   4.2890   4.2892   4.2977   4.2978
     5.7622   5.7623   5.7735   5.7736   7.0612   7.0612   7.0659   7.0663

          k = 0.2508 0.2508 0.0000 (  5155 PWs)   bands (ev):

   -64.8320 -64.8265 -64.8261 -64.8250 -31.6197 -31.6195 -31.6194 -31.6097
   -31.5945 -31.5944 -31.5942 -31.5878 -31.5877 -31.5865 -31.5755 -31.5673
    -8.9626  -8.0677  -8.0676  -7.8862   4.1632   4.1632   4.3322   5.0913
     5.8585   6.0503   6.0506   6.4919   6.4920   6.5504   7.1797   7.4827

          k = 0.2508 0.2508 0.2500 (  5156 PWs)   bands (ev):

   -64.8310 -64.8265 -64.8264 -64.8256 -31.6259 -31.6237 -31.6236 -31.6070
   -31.5957 -31.5956 -31.5950 -31.5838 -31.5838 -31.5827 -31.5720 -31.5701
    -8.7927  -8.0349  -8.0344  -8.0265   3.9969   3.9975   4.0132   5.1033
     5.8460   5.8500   5.8595   6.6735   6.7089   6.7091   7.3308   7.3585

          k = 0.2508 0.2508-0.5000 (  5148 PWs)   bands (ev):

   -64.8288 -64.8284 -64.8265 -64.8259 -31.6269 -31.6268 -31.6223 -31.6222
   -31.5956 -31.5954 -31.5803 -31.5802 -31.5791 -31.5790 -31.5763 -31.5761
    -8.3956  -8.3955  -8.0009  -8.0008   3.8149   3.8151   4.2131   4.2131
     5.8391   5.8392   6.7434   6.7436   6.8725   6.8728   6.9876   6.9877

          k = 0.2484-0.4992 0.0000 (  5149 PWs)   bands (ev):

   -64.8294 -64.8289 -64.8259 -64.8253 -31.6198 -31.6150 -31.6124 -31.6082
   -31.6070 -31.6068 -31.5853 -31.5852 -31.5850 -31.5823 -31.5768 -31.5741
    -8.5145  -8.5042  -7.9524  -7.9411   4.4115   4.4255   4.7483   4.7543
     5.0906   5.1022   6.5258   6.5679   6.5708   6.5841   7.0775   7.1114

          k = 0.2484-0.4992 0.2500 (  5137 PWs)   bands (ev):

   -64.8289 -64.8284 -64.8264 -64.8258 -31.6297 -31.6270 -31.6230 -31.6193
   -31.5934 -31.5929 -31.5818 -31.5800 -31.5793 -31.5784 -31.5772 -31.5759
    -8.4040  -8.3938  -8.0025  -7.9915   3.8103   3.8328   4.1897   4.2065
     5.8251   5.8355   6.7243   6.7569   6.8573   6.8797   7.0119   7.0219

          k = 0.2484-0.4992-0.5000 (  5144 PWs)   bands (ev):

   -64.8277 -64.8276 -64.8276 -64.8266 -31.6334 -31.6333 -31.6303 -31.6302
   -31.5843 -31.5840 -31.5826 -31.5824 -31.5756 -31.5754 -31.5750 -31.5750
    -8.1732  -8.1730  -8.1622  -8.1621   3.6281   3.6282   3.6527   3.6528
     6.5069   6.5070   6.5421   6.5422   7.0593   7.0594   7.0699   7.0702

          k = 0.2492-0.2492 0.0000 (  5159 PWs)   bands (ev):

   -64.8321 -64.8264 -64.8260 -64.8250 -31.6228 -31.6227 -31.6198 -31.6060
   -31.5943 -31.5943 -31.5909 -31.5889 -31.5856 -31.5854 -31.5757 -31.5706
    -8.9692  -8.0596  -8.0595  -7.8940   4.1599   4.1601   4.3253   5.0514
     5.8361   6.0608   6.0612   6.4780   6.4781   6.6173   7.1670   7.5287

          k = 0.2492-0.2492 0.2500 (  5146 PWs)   bands (ev):

   -64.8311 -64.8265 -64.8264 -64.8256 -31.6269 -31.6267 -31.6245 -31.6050
   -31.5925 -31.5921 -31.5919 -31.5855 -31.5841 -31.5840 -31.5730 -31.5708
    -8.7994  -8.0347  -8.0265  -8.0261   3.9879   4.0037   4.0042   5.0754
     5.8324   5.8420   5.8458   6.7023   6.7024   6.7381   7.3523   7.3804

          k = 0.2492-0.2492-0.5000 (  5124 PWs)   bands (ev):

   -64.8289 -64.8285 -64.8264 -64.8258 -31.6299 -31.6298 -31.6201 -31.6200
   -31.5908 -31.5906 -31.5815 -31.5815 -31.5792 -31.5789 -31.5766 -31.5765
    -8.4024  -8.4023  -7.9930  -7.9929   3.8280   3.8281   4.1830   4.1833
     5.8218   5.8219   6.7372   6.7374   6.8653   6.8653   7.0452   7.0453

          k =-0.5016-0.5016 0.0000 (  5180 PWs)   bands (ev):

   -64.8278 -64.8276 -64.8275 -64.8266 -31.6216 -31.6214 -31.6165 -31.6162
   -31.5972 -31.5971 -31.5970 -31.5967 -31.5769 -31.5766 -31.5751 -31.5749
    -8.2128  -8.2127  -8.1975  -8.1974   4.2891   4.2891   4.2977   4.2979
     5.7580   5.7584   5.7769   5.7773   7.0378   7.0379   7.0900   7.0901

          k =-0.5016-0.5016 0.2500 (  5138 PWs)   bands (ev):

   -64.8277 -64.8276 -64.8275 -64.8266 -31.6333 -31.6332 -31.6303 -31.6302
   -31.5837 -31.5836 -31.5823 -31.5823 -31.5770 -31.5768 -31.5738 -31.5736
    -8.1753  -8.1752  -8.1601  -8.1600   3.6306   3.6307   3.6500   3.6502
     6.5217   6.5219   6.5271   6.5274   7.0390   7.0391   7.0907   7.0907

          k =-0.5016-0.5016-0.5000 (  5136 PWs)   bands (ev):

   -64.8277 -64.8276 -64.8275 -64.8266 -31.6399 -31.6396 -31.6396 -31.6396
   -31.5762 -31.5760 -31.5755 -31.5754 -31.5748 -31.5748 -31.5743 -31.5740
    -8.1371  -8.1370  -8.1220  -8.1219   3.2055   3.2056   3.2297   3.2297
     7.0397   7.0397   7.0645   7.0647   7.0660   7.0663   7.0917   7.0917

          k = 0.2500 0.0008-0.2500 (  5159 PWs)   bands (ev):

   -64.8321 -64.8264 -64.8261 -64.8250 -31.6214 -31.6211 -31.6198 -31.6073
   -31.5945 -31.5940 -31.5932 -31.5877 -31.5867 -31.5864 -31.5759 -31.5688
    -8.9659  -8.0654  -8.0619  -7.8900   4.1585   4.1644   4.3289   5.0714
     5.8470   6.0506   6.0593   6.4837   6.4881   6.5837   7.1731   7.5059

          k = 0.2508 0.2508-0.2500 (  5156 PWs)   bands (ev):

   -64.8310 -64.8265 -64.8264 -64.8256 -31.6259 -31.6237 -31.6236 -31.6070
   -31.5957 -31.5956 -31.5950 -31.5838 -31.5838 -31.5827 -31.5720 -31.5701
    -8.7927  -8.0349  -8.0344  -8.0265   3.9969   3.9975   4.0132   5.1033
     5.8460   5.8500   5.8595   6.6735   6.7089   6.7091   7.3308   7.3585

          k =-0.4992 0.2484-0.2500 (  5137 PWs)   bands (ev):

   -64.8289 -64.8284 -64.8264 -64.8258 -31.6297 -31.6270 -31.6230 -31.6193
   -31.5934 -31.5929 -31.5818 -31.5800 -31.5793 -31.5784 -31.5772 -31.5759
    -8.4040  -8.3938  -8.0025  -7.9915   3.8103   3.8328   4.1897   4.2065
     5.8251   5.8355   6.7243   6.7569   6.8573   6.8797   7.0119   7.0219

     highest occupied level (ev):     7.6959

!    total energy              =    -608.39272861 Ry
     Harris-Foulkes estimate   =    -608.39272861 Ry
     estimated scf accuracy    <          4.6E-11 Ry

     The total energy is the sum of the following terms:

     one-electron contribution =    -303.55628920 Ry
     hartree contribution      =     168.06734332 Ry
     xc contribution           =     -97.84635690 Ry
     ewald contribution        =    -375.05742583 Ry

     convergence has been achieved in   5 iterations

     Forces acting on atoms (cartesian axes, Ry/au):

     atom    1 type  1   force =     0.00056004    0.00056004   -0.00000275
     atom    2 type  1   force =    -0.00060081    0.00058436    0.00000292
     atom    3 type  1   force =     0.00058436   -0.00060081    0.00000292
     atom    4 type  1   force =    -0.00054022   -0.00054022   -0.00000302
     atom    5 type  2   force =     0.00064273   -0.00065182   -0.00000249
     atom    6 type  2   force =    -0.00065182    0.00064273   -0.00000249
     atom    7 type  2   force =     0.00063403    0.00063403    0.00000245
     atom    8 type  2   force =    -0.00062831   -0.00062831    0.00000248

     Total force =     0.002426     Total SCF correction =     0.000011


     Computing stress (Cartesian axis) and pressure

          total   stress  (Ry/bohr**3)                   (kbar)     P=  -68.08
  -0.00046291   0.00006209  -0.00000000        -68.10      9.13     -0.00
   0.00006209  -0.00046291  -0.00000000          9.13    -68.10     -0.00
  -0.00000000  -0.00000000  -0.00046261         -0.00     -0.00    -68.05


     number of scf cycles    =   3
     number of bfgs steps    =   2

     energy   old            =    -608.3927182543 Ry
     energy   new            =    -608.3927286126 Ry

     CASE: energy  _new < energy  _old

     new trust radius        =       0.0022491286 bohr
     new conv_thr            =       0.0000000001 Ry


ATOMIC_POSITIONS (alat)
Mg       0.000376649   0.000376649  -0.000002145
Mg      -0.000393870   0.500372218   0.500002103
Mg       0.500372218  -0.000393870   0.500002103
Mg       0.499654867   0.499654867  -0.000002142
O        0.500440524  -0.000457868  -0.000002386
O       -0.000457868   0.500440524  -0.000002386
O        0.000441966   0.000441966   0.500002417
O        0.499565513   0.499565513   0.500002435



     Writing output data file MgO.-0.006429.70.4.save
     NEW-OLD atomic charge density approx. for the potential

     Check: negative/imaginary core charge=   -0.000007    0.000000

     total cpu time spent up to now is       22.6 secs

     per-process dynamical memory:    53.7 Mb

     Self-consistent Calculation

     iteration #  1     ecut=    70.00 Ry     beta=0.70
     Davidson diagonalization with overlap
     ethr =  1.00E-06,  avg # of iterations =  3.0

     Threshold (ethr) on eigenvalues was too large:
     Diagonalizing with lowered threshold

     Davidson diagonalization with overlap
     ethr =  3.15E-09,  avg # of iterations =  2.2

     total cpu time spent up to now is       24.9 secs

     total energy              =    -608.39274020 Ry
     Harris-Foulkes estimate   =    -608.39274134 Ry
     estimated scf accuracy    <       0.00000203 Ry

     iteration #  2     ecut=    70.00 Ry     beta=0.70
     Davidson diagonalization with overlap
     ethr =  3.17E-09,  avg # of iterations =  2.0

     total cpu time spent up to now is       25.9 secs

     total energy              =    -608.39274054 Ry
     Harris-Foulkes estimate   =    -608.39274056 Ry
     estimated scf accuracy    <       0.00000005 Ry

     iteration #  3     ecut=    70.00 Ry     beta=0.70
     Davidson diagonalization with overlap
     ethr =  7.71E-11,  avg # of iterations =  2.0

     total cpu time spent up to now is       26.9 secs

     total energy              =    -608.39274055 Ry
     Harris-Foulkes estimate   =    -608.39274055 Ry
     estimated scf accuracy    <          3.3E-09 Ry

     iteration #  4     ecut=    70.00 Ry     beta=0.70
     Davidson diagonalization with overlap
     ethr =  5.22E-12,  avg # of iterations =  2.7

     total cpu time spent up to now is       27.9 secs

     total energy              =    -608.39274055 Ry
     Harris-Foulkes estimate   =    -608.39274055 Ry
     estimated scf accuracy    <          7.3E-10 Ry

     iteration #  5     ecut=    70.00 Ry     beta=0.70
     Davidson diagonalization with overlap
     ethr =  1.14E-12,  avg # of iterations =  3.0

     total cpu time spent up to now is       29.0 secs

     End of self-consistent calculation

          k = 0.0000 0.0000 0.0000 (  5153 PWs)   bands (ev):

   -64.8347 -64.8252 -64.8252 -64.8244 -31.6314 -31.6313 -31.6311 -31.5950
   -31.5936 -31.5935 -31.5933 -31.5933 -31.5921 -31.5659 -31.5641 -31.5640
    -9.3645  -7.9137  -7.9135  -7.9134   3.7582   3.7583   3.7583   6.3429
     6.3801   6.3801   6.3802   6.3805   6.4178   7.6491   7.6724   7.6959

          k = 0.0000 0.0000 0.2500 (  5157 PWs)   bands (ev):

   -64.8333 -64.8264 -64.8252 -64.8246 -31.6249 -31.6249 -31.6205 -31.5981
   -31.5981 -31.5942 -31.5941 -31.5902 -31.5874 -31.5784 -31.5734 -31.5698
    -9.1561  -8.1285  -7.8850  -7.8850   4.0486   4.0488   4.0956   5.8581
     5.8582   6.1707   6.1710   6.5073   6.5793   6.6589   7.4245   7.4765

          k = 0.0000 0.0000-0.5000 (  5126 PWs)   bands (ev):

   -64.8301 -64.8296 -64.8252 -64.8246 -31.6128 -31.6126 -31.6079 -31.6076
   -31.6021 -31.6021 -31.5911 -31.5911 -31.5824 -31.5822 -31.5790 -31.5788
    -8.6459  -8.6458  -7.8563  -7.8562   4.8434   4.8435   4.8521   4.8521
     5.1227   5.1230   5.9736   5.9739   6.9371   6.9371   7.0001   7.0001

          k = 0.0008 0.2500 0.0000 (  5165 PWs)   bands (ev):

   -64.8333 -64.8264 -64.8252 -64.8246 -31.6251 -31.6245 -31.6213 -31.5992
   -31.5984 -31.5936 -31.5934 -31.5892 -31.5890 -31.5792 -31.5716 -31.5712
    -9.1561  -8.1284  -7.8852  -7.8850   4.0485   4.0486   4.0953   5.8550
     5.8582   6.1707   6.1739   6.5429   6.5431   6.6586   7.4503   7.4508

          k = 0.0008 0.2500 0.2500 (  5159 PWs)   bands (ev):

   -64.8321 -64.8264 -64.8260 -64.8250 -31.6214 -31.6211 -31.6198 -31.6073
   -31.5944 -31.5940 -31.5932 -31.5877 -31.5867 -31.5864 -31.5759 -31.5688
    -8.9659  -8.0648  -8.0626  -7.8900   4.1596   4.1633   4.3289   5.0714
     5.8470   6.0521   6.0578   6.4843   6.4874   6.5837   7.1731   7.5059

          k = 0.0008 0.2500-0.5000 (  5152 PWs)   bands (ev):

   -64.8294 -64.8289 -64.8259 -64.8253 -31.6179 -31.6178 -31.6102 -31.6102
   -31.6066 -31.6064 -31.5853 -31.5850 -31.5839 -31.5839 -31.5755 -31.5754
    -8.5095  -8.5094  -7.9467  -7.9466   4.4185   4.4186   4.7511   4.7513
     5.0964   5.0964   6.5479   6.5482   6.5755   6.5755   7.0949   7.0950

          k =-0.0016-0.5000 0.0000 (  5112 PWs)   bands (ev):

   -64.8301 -64.8296 -64.8252 -64.8246 -31.6104 -31.6101 -31.6096 -31.6094
   -31.6019 -31.6018 -31.5911 -31.5911 -31.5806 -31.5804 -31.5802 -31.5800
    -8.6458  -8.6456  -7.8564  -7.8563   4.8477   4.8477   4.8479   4.8482
     5.1229   5.1232   5.9736   5.9741   6.9685   6.9686   6.9686   6.9688

          k =-0.0016-0.5000 0.2500 (  5152 PWs)   bands (ev):

   -64.8293 -64.8289 -64.8259 -64.8253 -31.6175 -31.6174 -31.6104 -31.6103
   -31.6069 -31.6066 -31.5852 -31.5850 -31.5840 -31.5840 -31.5755 -31.5753
    -8.5095  -8.5093  -7.9468  -7.9467   4.4183   4.4184   4.7512   4.7514
     5.0965   5.0967   6.5478   6.5482   6.5759   6.5761   7.0942   7.0943

          k =-0.0016-0.5000-0.5000 (  5188 PWs)   bands (ev):

   -64.8277 -64.8276 -64.8276 -64.8266 -31.6194 -31.6192 -31.6191 -31.6191
   -31.5971 -31.5969 -31.5968 -31.5965 -31.5763 -31.5761 -31.5759 -31.5759
    -8.2068  -8.2065  -8.2037  -8.2036   4.2906   4.2907   4.2960   4.2962
     5.7642   5.7644   5.7714   5.7716   7.0620   7.0621   7.0650   7.0653

          k = 0.2508 0.2508 0.0000 (  5155 PWs)   bands (ev):

   -64.8320 -64.8265 -64.8261 -64.8250 -31.6197 -31.6195 -31.6194 -31.6096
   -31.5944 -31.5944 -31.5942 -31.5878 -31.5876 -31.5865 -31.5755 -31.5673
    -8.9626  -8.0677  -8.0676  -7.8863   4.1632   4.1632   4.3322   5.0913
     5.8585   6.0503   6.0506   6.4919   6.4919   6.5503   7.1796   7.4827

          k = 0.2508 0.2508 0.2500 (  5156 PWs)   bands (ev):

   -64.8310 -64.8265 -64.8264 -64.8256 -31.6259 -31.6237 -31.6236 -31.6070
   -31.5956 -31.5956 -31.5951 -31.5838 -31.5838 -31.5827 -31.5720 -31.5701
    -8.7928  -8.0347  -8.0345  -8.0267   3.9972   3.9975   4.0129   5.1033
     5.8479   5.8500   5.8576   6.6734   6.7089   6.7090   7.3307   7.3585

          k = 0.2508 0.2508-0.5000 (  5148 PWs)   bands (ev):

   -64.8288 -64.8284 -64.8265 -64.8258 -31.6269 -31.6268 -31.6223 -31.6222
   -31.5956 -31.5954 -31.5803 -31.5802 -31.5790 -31.5790 -31.5763 -31.5761
    -8.3956  -8.3955  -8.0009  -8.0008   3.8149   3.8150   4.2130   4.2131
     5.8391   5.8392   6.7434   6.7436   6.8725   6.8727   6.9876   6.9876

          k = 0.2484-0.4992 0.0000 (  5149 PWs)   bands (ev):

   -64.8294 -64.8289 -64.8259 -64.8253 -31.6197 -31.6149 -31.6124 -31.6082
   -31.6070 -31.6067 -31.5853 -31.5852 -31.5849 -31.5823 -31.5767 -31.5741
    -8.5146  -8.5042  -7.9524  -7.9411   4.4115   4.4255   4.7483   4.7543
     5.0906   5.1021   6.5258   6.5678   6.5708   6.5841   7.0775   7.1114

          k = 0.2484-0.4992 0.2500 (  5137 PWs)   bands (ev):

   -64.8288 -64.8284 -64.8264 -64.8258 -31.6296 -31.6270 -31.6230 -31.6193
   -31.5934 -31.5929 -31.5818 -31.5800 -31.5793 -31.5784 -31.5771 -31.5759
    -8.4040  -8.3938  -8.0025  -7.9915   3.8103   3.8328   4.1896   4.2065
     5.8251   5.8355   6.7243   6.7568   6.8573   6.8797   7.0118   7.0219

          k = 0.2484-0.4992-0.5000 (  5144 PWs)   bands (ev):

   -64.8277 -64.8276 -64.8275 -64.8266 -31.6334 -31.6332 -31.6303 -31.6301
   -31.5842 -31.5840 -31.5825 -31.5824 -31.5756 -31.5754 -31.5750 -31.5750
    -8.1730  -8.1729  -8.1624  -8.1623   3.6283   3.6284   3.6525   3.6526
     6.5072   6.5072   6.5418   6.5419   7.0594   7.0595   7.0698   7.0700

          k = 0.2492-0.2492 0.0000 (  5159 PWs)   bands (ev):

   -64.8321 -64.8264 -64.8260 -64.8250 -31.6228 -31.6226 -31.6198 -31.6060
   -31.5943 -31.5942 -31.5909 -31.5889 -31.5856 -31.5854 -31.5757 -31.5705
    -8.9692  -8.0597  -8.0595  -7.8941   4.1599   4.1601   4.3253   5.0514
     5.8361   6.0608   6.0612   6.4780   6.4780   6.6173   7.1670   7.5286

          k = 0.2492-0.2492 0.2500 (  5146 PWs)   bands (ev):

   -64.8311 -64.8264 -64.8264 -64.8256 -31.6269 -31.6267 -31.6245 -31.6050
   -31.5924 -31.5921 -31.5920 -31.5855 -31.5840 -31.5840 -31.5730 -31.5708
    -8.7994  -8.0345  -8.0266  -8.0263   3.9881   4.0036   4.0039   5.0753
     5.8342   5.8420   5.8440   6.7022   6.7024   6.7381   7.3523   7.3803

          k = 0.2492-0.2492-0.5000 (  5124 PWs)   bands (ev):

   -64.8289 -64.8285 -64.8264 -64.8257 -31.6299 -31.6298 -31.6201 -31.6200
   -31.5908 -31.5905 -31.5815 -31.5814 -31.5791 -31.5789 -31.5765 -31.5765
    -8.4024  -8.4023  -7.9931  -7.9930   3.8281   3.8281   4.1830   4.1832
     5.8218   5.8218   6.7371   6.7374   6.8652   6.8653   7.0452   7.0452

          k =-0.5016-0.5016 0.0000 (  5180 PWs)   bands (ev):

   -64.8277 -64.8276 -64.8275 -64.8266 -31.6216 -31.6214 -31.6164 -31.6162
   -31.5972 -31.5970 -31.5969 -31.5967 -31.5769 -31.5766 -31.5751 -31.5748
    -8.2129  -8.2128  -8.1976  -8.1974   4.2890   4.2891   4.2976   4.2979
     5.7580   5.7584   5.7768   5.7773   7.0377   7.0379   7.0900   7.0900

          k =-0.5016-0.5016 0.2500 (  5138 PWs)   bands (ev):

   -64.8277 -64.8276 -64.8275 -64.8266 -31.6333 -31.6331 -31.6303 -31.6302
   -31.5837 -31.5836 -31.5823 -31.5823 -31.5770 -31.5768 -31.5738 -31.5735
    -8.1753  -8.1752  -8.1601  -8.1600   3.6306   3.6307   3.6500   3.6502
     6.5216   6.5219   6.5271   6.5275   7.0389   7.0390   7.0907   7.0907

          k =-0.5016-0.5016-0.5000 (  5136 PWs)   bands (ev):

   -64.8277 -64.8276 -64.8275 -64.8266 -31.6399 -31.6396 -31.6396 -31.6395
   -31.5762 -31.5760 -31.5754 -31.5753 -31.5748 -31.5748 -31.5742 -31.5740
    -8.1371  -8.1370  -8.1220  -8.1219   3.2055   3.2056   3.2297   3.2297
     7.0396   7.0397   7.0645   7.0647   7.0660   7.0662   7.0916   7.0917

          k = 0.2500 0.0008-0.2500 (  5159 PWs)   bands (ev):

   -64.8321 -64.8264 -64.8260 -64.8250 -31.6214 -31.6211 -31.6198 -31.6073
   -31.5944 -31.5940 -31.5932 -31.5877 -31.5867 -31.5864 -31.5759 -31.5688
    -8.9659  -8.0648  -8.0626  -7.8900   4.1596   4.1633   4.3289   5.0714
     5.8470   6.0521   6.0578   6.4843   6.4874   6.5837   7.1731   7.5059

          k = 0.2508 0.2508-0.2500 (  5156 PWs)   bands (ev):

   -64.8310 -64.8265 -64.8264 -64.8256 -31.6259 -31.6237 -31.6236 -31.6070
   -31.5956 -31.5956 -31.5951 -31.5838 -31.5838 -31.5827 -31.5720 -31.5701
    -8.7928  -8.0347  -8.0345  -8.0267   3.9972   3.9975   4.0129   5.1033
     5.8479   5.8500   5.8576   6.6734   6.7089   6.7090   7.3307   7.3585

          k =-0.4992 0.2484-0.2500 (  5137 PWs)   bands (ev):

   -64.8288 -64.8284 -64.8264 -64.8258 -31.6296 -31.6270 -31.6230 -31.6193
   -31.5934 -31.5929 -31.5818 -31.5800 -31.5793 -31.5784 -31.5771 -31.5759
    -8.4040  -8.3938  -8.0025  -7.9915   3.8103   3.8328   4.1896   4.2065
     5.8251   5.8355   6.7243   6.7568   6.8573   6.8797   7.0118   7.0219

     highest occupied level (ev):     7.6959

!    total energy              =    -608.39274055 Ry
     Harris-Foulkes estimate   =    -608.39274055 Ry
     estimated scf accuracy    <          3.9E-11 Ry

     The total energy is the sum of the following terms:

     one-electron contribution =    -303.55651228 Ry
     hartree contribution      =     168.06747434 Ry
     xc contribution           =     -97.84637183 Ry
     ewald contribution        =    -375.05733078 Ry

     convergence has been achieved in   5 iterations

     Forces acting on atoms (cartesian axes, Ry/au):

     atom    1 type  1   force =     0.00037973    0.00037973   -0.00000053
     atom    2 type  1   force =    -0.00042469    0.00044203    0.00000076
     atom    3 type  1   force =     0.00044203   -0.00042469    0.00000076
     atom    4 type  1   force =    -0.00041173   -0.00041173   -0.00000088
     atom    5 type  2   force =     0.00041342   -0.00039426   -0.00000037
     atom    6 type  2   force =    -0.00039426    0.00041342   -0.00000037
     atom    7 type  2   force =     0.00039087    0.00039087    0.00000030
     atom    8 type  2   force =    -0.00039537   -0.00039537    0.00000033

     Total force =     0.001628     Total SCF correction =     0.000019


     Computing stress (Cartesian axis) and pressure

          total   stress  (Ry/bohr**3)                   (kbar)     P=  -68.08
  -0.00046290   0.00006209  -0.00000000        -68.10      9.13     -0.00
   0.00006209  -0.00046290  -0.00000000          9.13    -68.10     -0.00
  -0.00000000  -0.00000000  -0.00046255         -0.00     -0.00    -68.04


     number of scf cycles    =   4
     number of bfgs steps    =   3

     energy   old            =    -608.3927286126 Ry
     energy   new            =    -608.3927405506 Ry

     CASE: energy  _new < energy  _old

     new trust radius        =       0.0033736929 bohr
     new conv_thr            =       0.0000000001 Ry


ATOMIC_POSITIONS (alat)
Mg       0.000638919   0.000638919  -0.000003127
Mg      -0.000677678   0.500653852   0.500003158
Mg       0.500653852  -0.000677678   0.500003158
Mg       0.499393376   0.499393376  -0.000003252
O        0.500737166  -0.000754297  -0.000003349
O       -0.000754297   0.500737166  -0.000003349
O        0.000731575   0.000731575   0.500003363
O        0.499277086   0.499277086   0.500003398



     Writing output data file MgO.-0.006429.70.4.save
     NEW-OLD atomic charge density approx. for the potential

     Check: negative/imaginary core charge=   -0.000007    0.000000

     total cpu time spent up to now is       29.7 secs

     per-process dynamical memory:    53.7 Mb

     Self-consistent Calculation

     iteration #  1     ecut=    70.00 Ry     beta=0.70
     Davidson diagonalization with overlap
     ethr =  1.00E-06,  avg # of iterations =  3.0

     Threshold (ethr) on eigenvalues was too large:
     Diagonalizing with lowered threshold

     Davidson diagonalization with overlap
     ethr =  6.95E-09,  avg # of iterations =  2.1

     total cpu time spent up to now is       32.0 secs

     total energy              =    -608.39274899 Ry
     Harris-Foulkes estimate   =    -608.39275146 Ry
     estimated scf accuracy    <       0.00000446 Ry

     iteration #  2     ecut=    70.00 Ry     beta=0.70
     Davidson diagonalization with overlap
     ethr =  6.97E-09,  avg # of iterations =  2.0

     total cpu time spent up to now is       33.0 secs

     total energy              =    -608.39274973 Ry
     Harris-Foulkes estimate   =    -608.39274976 Ry
     estimated scf accuracy    <       0.00000011 Ry

     iteration #  3     ecut=    70.00 Ry     beta=0.70
     Davidson diagonalization with overlap
     ethr =  1.73E-10,  avg # of iterations =  2.0

     total cpu time spent up to now is       34.0 secs

     total energy              =    -608.39274975 Ry
     Harris-Foulkes estimate   =    -608.39274975 Ry
     estimated scf accuracy    <          7.4E-09 Ry

     iteration #  4     ecut=    70.00 Ry     beta=0.70
     Davidson diagonalization with overlap
     ethr =  1.16E-11,  avg # of iterations =  2.2

     total cpu time spent up to now is       35.0 secs

     total energy              =    -608.39274975 Ry
     Harris-Foulkes estimate   =    -608.39274975 Ry
     estimated scf accuracy    <          9.1E-10 Ry

     iteration #  5     ecut=    70.00 Ry     beta=0.70
     Davidson diagonalization with overlap
     ethr =  1.42E-12,  avg # of iterations =  3.0

     total cpu time spent up to now is       36.0 secs

     End of self-consistent calculation

          k = 0.0000 0.0000 0.0000 (  5153 PWs)   bands (ev):

   -64.8347 -64.8252 -64.8252 -64.8244 -31.6314 -31.6313 -31.6311 -31.5950
   -31.5936 -31.5935 -31.5933 -31.5933 -31.5920 -31.5659 -31.5641 -31.5640
    -9.3645  -7.9137  -7.9135  -7.9134   3.7581   3.7583   3.7583   6.3429
     6.3801   6.3801   6.3801   6.3804   6.4178   7.6491   7.6724   7.6959

          k = 0.0000 0.0000 0.2500 (  5157 PWs)   bands (ev):

   -64.8333 -64.8264 -64.8252 -64.8246 -31.6249 -31.6249 -31.6205 -31.5981
   -31.5980 -31.5942 -31.5941 -31.5902 -31.5874 -31.5783 -31.5734 -31.5698
    -9.1561  -8.1285  -7.8851  -7.8850   4.0488   4.0488   4.0955   5.8582
     5.8582   6.1707   6.1710   6.5073   6.5793   6.6589   7.4245   7.4765

          k = 0.0000 0.0000-0.5000 (  5126 PWs)   bands (ev):

   -64.8301 -64.8296 -64.8252 -64.8246 -31.6128 -31.6126 -31.6078 -31.6076
   -31.6021 -31.6020 -31.5911 -31.5911 -31.5824 -31.5822 -31.5790 -31.5788
    -8.6459  -8.6458  -7.8563  -7.8562   4.8434   4.8434   4.8521   4.8521
     5.1227   5.1229   5.9736   5.9739   6.9371   6.9371   7.0001   7.0001

          k = 0.0008 0.2500 0.0000 (  5165 PWs)   bands (ev):

   -64.8333 -64.8264 -64.8252 -64.8246 -31.6250 -31.6245 -31.6212 -31.5991
   -31.5984 -31.5936 -31.5934 -31.5892 -31.5890 -31.5791 -31.5716 -31.5712
    -9.1561  -8.1284  -7.8852  -7.8850   4.0485   4.0486   4.0953   5.8550
     5.8582   6.1707   6.1739   6.5429   6.5431   6.6585   7.4503   7.4508

          k = 0.0008 0.2500 0.2500 (  5159 PWs)   bands (ev):

   -64.8320 -64.8264 -64.8260 -64.8250 -31.6214 -31.6211 -31.6198 -31.6073
   -31.5944 -31.5940 -31.5932 -31.5877 -31.5866 -31.5864 -31.5759 -31.5688
    -8.9659  -8.0639  -8.0635  -7.8900   4.1611   4.1618   4.3289   5.0714
     5.8470   6.0542   6.0558   6.4850   6.4867   6.5837   7.1731   7.5059

          k = 0.0008 0.2500-0.5000 (  5152 PWs)   bands (ev):

   -64.8293 -64.8289 -64.8259 -64.8253 -31.6179 -31.6177 -31.6102 -31.6102
   -31.6066 -31.6064 -31.5853 -31.5850 -31.5839 -31.5838 -31.5755 -31.5754
    -8.5095  -8.5094  -7.9467  -7.9467   4.4185   4.4186   4.7510   4.7512
     5.0964   5.0964   6.5479   6.5482   6.5754   6.5755   7.0949   7.0950

          k =-0.0016-0.5000 0.0000 (  5112 PWs)   bands (ev):

   -64.8301 -64.8296 -64.8252 -64.8246 -31.6104 -31.6101 -31.6096 -31.6094
   -31.6019 -31.6018 -31.5911 -31.5911 -31.5806 -31.5803 -31.5802 -31.5800
    -8.6459  -8.6456  -7.8564  -7.8563   4.8475   4.8478   4.8479   4.8483
     5.1229   5.1232   5.9736   5.9740   6.9684   6.9685   6.9687   6.9688

          k =-0.0016-0.5000 0.2500 (  5152 PWs)   bands (ev):

   -64.8293 -64.8289 -64.8259 -64.8253 -31.6175 -31.6174 -31.6104 -31.6103
   -31.6069 -31.6066 -31.5852 -31.5850 -31.5840 -31.5840 -31.5754 -31.5753
    -8.5095  -8.5093  -7.9468  -7.9467   4.4183   4.4185   4.7512   4.7514
     5.0964   5.0968   6.5478   6.5481   6.5759   6.5762   7.0942   7.0942

          k =-0.0016-0.5000-0.5000 (  5188 PWs)   bands (ev):

   -64.8276 -64.8276 -64.8276 -64.8266 -31.6194 -31.6192 -31.6191 -31.6191
   -31.5970 -31.5968 -31.5968 -31.5965 -31.5763 -31.5761 -31.5760 -31.5759
    -8.2055  -8.2053  -8.2050  -8.2049   4.2929   4.2930   4.2937   4.2938
     5.7671   5.7675   5.7683   5.7686   7.0633   7.0633   7.0637   7.0640

          k = 0.2508 0.2508 0.0000 (  5155 PWs)   bands (ev):

   -64.8320 -64.8265 -64.8261 -64.8249 -31.6197 -31.6195 -31.6194 -31.6096
   -31.5944 -31.5944 -31.5941 -31.5878 -31.5876 -31.5864 -31.5755 -31.5673
    -8.9626  -8.0677  -8.0677  -7.8863   4.1632   4.1632   4.3322   5.0914
     5.8585   6.0503   6.0506   6.4919   6.4919   6.5503   7.1796   7.4826

          k = 0.2508 0.2508 0.2500 (  5156 PWs)   bands (ev):

   -64.8310 -64.8265 -64.8264 -64.8256 -31.6259 -31.6237 -31.6235 -31.6070
   -31.5956 -31.5955 -31.5951 -31.5837 -31.5837 -31.5827 -31.5720 -31.5701
    -8.7928  -8.0346  -8.0345  -8.0269   3.9974   3.9975   4.0127   5.1033
     5.8498   5.8500   5.8558   6.6734   6.7088   6.7090   7.3307   7.3585

          k = 0.2508 0.2508-0.5000 (  5148 PWs)   bands (ev):

   -64.8288 -64.8284 -64.8264 -64.8258 -31.6269 -31.6268 -31.6223 -31.6222
   -31.5956 -31.5953 -31.5803 -31.5802 -31.5790 -31.5790 -31.5763 -31.5761
    -8.3956  -8.3955  -8.0009  -8.0009   3.8149   3.8150   4.2130   4.2131
     5.8391   5.8392   6.7434   6.7436   6.8725   6.8726   6.9876   6.9876

          k = 0.2484-0.4992 0.0000 (  5149 PWs)   bands (ev):

   -64.8293 -64.8289 -64.8259 -64.8253 -31.6197 -31.6149 -31.6124 -31.6081
   -31.6070 -31.6067 -31.5853 -31.5852 -31.5849 -31.5823 -31.5767 -31.5741
    -8.5146  -8.5043  -7.9524  -7.9411   4.4115   4.4255   4.7483   4.7543
     5.0906   5.1021   6.5257   6.5678   6.5708   6.5840   7.0775   7.1113

          k = 0.2484-0.4992 0.2500 (  5137 PWs)   bands (ev):

   -64.8288 -64.8284 -64.8264 -64.8258 -31.6296 -31.6270 -31.6229 -31.6193
   -31.5934 -31.5929 -31.5817 -31.5800 -31.5793 -31.5784 -31.5771 -31.5759
    -8.4041  -8.3938  -8.0025  -7.9915   3.8103   3.8328   4.1896   4.2065
     5.8251   5.8355   6.7242   6.7568   6.8573   6.8797   7.0118   7.0219

          k = 0.2484-0.4992-0.5000 (  5144 PWs)   bands (ev):

   -64.8277 -64.8276 -64.8275 -64.8266 -31.6334 -31.6332 -31.6303 -31.6301
   -31.5842 -31.5840 -31.5825 -31.5824 -31.5756 -31.5754 -31.5750 -31.5750
    -8.1729  -8.1728  -8.1625  -8.1624   3.6285   3.6286   3.6523   3.6524
     6.5074   6.5074   6.5416   6.5417   7.0595   7.0596   7.0697   7.0698

          k = 0.2492-0.2492 0.0000 (  5159 PWs)   bands (ev):

   -64.8321 -64.8264 -64.8260 -64.8250 -31.6228 -31.6226 -31.6198 -31.6059
   -31.5943 -31.5942 -31.5908 -31.5888 -31.5855 -31.5854 -31.5756 -31.5705
    -8.9692  -8.0597  -8.0596  -7.8941   4.1599   4.1601   4.3253   5.0514
     5.8361   6.0607   6.0612   6.4780   6.4780   6.6173   7.1670   7.5286

          k = 0.2492-0.2492 0.2500 (  5146 PWs)   bands (ev):

   -64.8311 -64.8264 -64.8263 -64.8256 -31.6269 -31.6267 -31.6245 -31.6050
   -31.5923 -31.5921 -31.5920 -31.5855 -31.5840 -31.5840 -31.5730 -31.5708
    -8.7994  -8.0343  -8.0266  -8.0265   3.9883   4.0036   4.0037   5.0753
     5.8360   5.8419   5.8422   6.7022   6.7024   6.7381   7.3523   7.3803

          k = 0.2492-0.2492-0.5000 (  5124 PWs)   bands (ev):

   -64.8289 -64.8285 -64.8263 -64.8257 -31.6299 -31.6298 -31.6201 -31.6200
   -31.5908 -31.5905 -31.5815 -31.5814 -31.5791 -31.5789 -31.5765 -31.5764
    -8.4024  -8.4024  -7.9931  -7.9930   3.8280   3.8281   4.1830   4.1831
     5.8218   5.8218   6.7371   6.7374   6.8651   6.8653   7.0452   7.0452

          k =-0.5016-0.5016 0.0000 (  5180 PWs)   bands (ev):

   -64.8277 -64.8276 -64.8275 -64.8266 -31.6216 -31.6214 -31.6164 -31.6162
   -31.5972 -31.5970 -31.5969 -31.5967 -31.5769 -31.5766 -31.5751 -31.5748
    -8.2129  -8.2128  -8.1976  -8.1974   4.2890   4.2891   4.2976   4.2979
     5.7580   5.7584   5.7768   5.7773   7.0377   7.0378   7.0900   7.0900

          k =-0.5016-0.5016 0.2500 (  5138 PWs)   bands (ev):

   -64.8277 -64.8276 -64.8275 -64.8266 -31.6333 -31.6331 -31.6303 -31.6302
   -31.5836 -31.5836 -31.5823 -31.5823 -31.5770 -31.5767 -31.5738 -31.5735
    -8.1753  -8.1752  -8.1601  -8.1600   3.6306   3.6307   3.6500   3.6502
     6.5216   6.5219   6.5271   6.5275   7.0389   7.0390   7.0906   7.0906

          k =-0.5016-0.5016-0.5000 (  5136 PWs)   bands (ev):

   -64.8277 -64.8276 -64.8275 -64.8266 -31.6399 -31.6396 -31.6396 -31.6395
   -31.5762 -31.5759 -31.5754 -31.5753 -31.5748 -31.5748 -31.5742 -31.5740
    -8.1371  -8.1371  -8.1220  -8.1220   3.2055   3.2056   3.2296   3.2297
     7.0396   7.0396   7.0645   7.0647   7.0660   7.0662   7.0916   7.0916

          k = 0.2500 0.0008-0.2500 (  5159 PWs)   bands (ev):

   -64.8320 -64.8264 -64.8260 -64.8250 -31.6214 -31.6211 -31.6198 -31.6073
   -31.5944 -31.5940 -31.5932 -31.5877 -31.5866 -31.5864 -31.5759 -31.5688
    -8.9659  -8.0639  -8.0635  -7.8900   4.1611   4.1618   4.3289   5.0714
     5.8470   6.0542   6.0558   6.4850   6.4867   6.5837   7.1731   7.5059

          k = 0.2508 0.2508-0.2500 (  5156 PWs)   bands (ev):

   -64.8310 -64.8265 -64.8264 -64.8256 -31.6259 -31.6237 -31.6235 -31.6070
   -31.5956 -31.5955 -31.5951 -31.5837 -31.5837 -31.5827 -31.5720 -31.5701
    -8.7928  -8.0346  -8.0345  -8.0269   3.9974   3.9975   4.0127   5.1033
     5.8498   5.8500   5.8558   6.6734   6.7088   6.7090   7.3307   7.3585

          k =-0.4992 0.2484-0.2500 (  5137 PWs)   bands (ev):

   -64.8288 -64.8284 -64.8264 -64.8258 -31.6296 -31.6270 -31.6229 -31.6193
   -31.5934 -31.5929 -31.5817 -31.5800 -31.5793 -31.5784 -31.5771 -31.5759
    -8.4041  -8.3938  -8.0025  -7.9915   3.8103   3.8328   4.1896   4.2065
     5.8251   5.8355   6.7242   6.7568   6.8573   6.8797   7.0118   7.0219

     highest occupied level (ev):     7.6959

!    total energy              =    -608.39274975 Ry
     Harris-Foulkes estimate   =    -608.39274975 Ry
     estimated scf accuracy    <          1.0E-10 Ry

     The total energy is the sum of the following terms:

     one-electron contribution =    -303.55666777 Ry
     hartree contribution      =     168.06755335 Ry
     xc contribution           =     -97.84637486 Ry
     ewald contribution        =    -375.05726046 Ry

     convergence has been achieved in   5 iterations

     Forces acting on atoms (cartesian axes, Ry/au):

     atom    1 type  1   force =     0.00009966    0.00009966    0.00000186
     atom    2 type  1   force =    -0.00014192    0.00020041   -0.00000162
     atom    3 type  1   force =     0.00020041   -0.00014192   -0.00000162
     atom    4 type  1   force =    -0.00019237   -0.00019237    0.00000154
     atom    5 type  2   force =     0.00006817   -0.00002149    0.00000205
     atom    6 type  2   force =    -0.00002149    0.00006817    0.00000205
     atom    7 type  2   force =     0.00003641    0.00003641   -0.00000210
     atom    8 type  2   force =    -0.00004887   -0.00004887   -0.00000217

     Total force =     0.000482     Total SCF correction =     0.000025


     Computing stress (Cartesian axis) and pressure

          total   stress  (Ry/bohr**3)                   (kbar)     P=  -68.08
  -0.00046293   0.00006209   0.00000000        -68.10      9.13      0.00
   0.00006209  -0.00046293   0.00000000          9.13    -68.10      0.00
   0.00000000   0.00000000  -0.00046254          0.00      0.00    -68.04


     number of scf cycles    =   5
     number of bfgs steps    =   4

     energy   old            =    -608.3927405506 Ry
     energy   new            =    -608.3927497496 Ry

     CASE: energy  _new < energy  _old

     new trust radius        =       0.0011765741 bohr
     new conv_thr            =            1.0E-10 Ry


ATOMIC_POSITIONS (alat)
Mg       0.000726070   0.000726070  -0.000003127
Mg      -0.000776963   0.500761242   0.500003211
Mg       0.500761242  -0.000776963   0.500003211
Mg       0.499292686   0.499292686  -0.000003330
O        0.500829149  -0.000839408  -0.000003318
O       -0.000839408   0.500829149  -0.000003318
O        0.000817009   0.000817009   0.500003322
O        0.499190216   0.499190216   0.500003350



     Writing output data file MgO.-0.006429.70.4.save
     NEW-OLD atomic charge density approx. for the potential

     Check: negative/imaginary core charge=   -0.000007    0.000000

     total cpu time spent up to now is       36.7 secs

     per-process dynamical memory:    53.7 Mb

     Self-consistent Calculation

     iteration #  1     ecut=    70.00 Ry     beta=0.70
     Davidson diagonalization with overlap
     ethr =  1.00E-06,  avg # of iterations =  2.3

     Threshold (ethr) on eigenvalues was too large:
     Diagonalizing with lowered threshold

     Davidson diagonalization with overlap
     ethr =  4.30E-10,  avg # of iterations =  3.1

     total cpu time spent up to now is       39.1 secs

     total energy              =    -608.39275037 Ry
     Harris-Foulkes estimate   =    -608.39275057 Ry
     estimated scf accuracy    <       0.00000038 Ry

     iteration #  2     ecut=    70.00 Ry     beta=0.70
     Davidson diagonalization with overlap
     ethr =  5.87E-10,  avg # of iterations =  2.0

     total cpu time spent up to now is       40.1 secs

     total energy              =    -608.39275043 Ry
     Harris-Foulkes estimate   =    -608.39275043 Ry
     estimated scf accuracy    <       0.00000001 Ry

     iteration #  3     ecut=    70.00 Ry     beta=0.70
     Davidson diagonalization with overlap
     ethr =  1.72E-11,  avg # of iterations =  2.2

     total cpu time spent up to now is       41.1 secs

     total energy              =    -608.39275043 Ry
     Harris-Foulkes estimate   =    -608.39275043 Ry
     estimated scf accuracy    <          1.6E-09 Ry

     iteration #  4     ecut=    70.00 Ry     beta=0.70
     Davidson diagonalization with overlap
     ethr =  2.55E-12,  avg # of iterations =  3.0

     total cpu time spent up to now is       42.2 secs

     total energy              =    -608.39275043 Ry
     Harris-Foulkes estimate   =    -608.39275043 Ry
     estimated scf accuracy    <          1.7E-09 Ry

     iteration #  5     ecut=    70.00 Ry     beta=0.70
     Davidson diagonalization with overlap
     ethr =  2.55E-12,  avg # of iterations =  2.6

     total cpu time spent up to now is       43.2 secs

     End of self-consistent calculation

          k = 0.0000 0.0000 0.0000 (  5153 PWs)   bands (ev):

   -64.8347 -64.8252 -64.8252 -64.8244 -31.6314 -31.6313 -31.6311 -31.5950
   -31.5936 -31.5935 -31.5933 -31.5933 -31.5920 -31.5659 -31.5641 -31.5640
    -9.3645  -7.9137  -7.9135  -7.9134   3.7581   3.7583   3.7583   6.3429
     6.3801   6.3801   6.3801   6.3805   6.4178   7.6491   7.6724   7.6959

          k = 0.0000 0.0000 0.2500 (  5157 PWs)   bands (ev):

   -64.8333 -64.8264 -64.8252 -64.8246 -31.6249 -31.6249 -31.6205 -31.5981
   -31.5980 -31.5942 -31.5941 -31.5902 -31.5874 -31.5783 -31.5734 -31.5698
    -9.1561  -8.1285  -7.8851  -7.8850   4.0488   4.0488   4.0955   5.8582
     5.8582   6.1707   6.1710   6.5073   6.5793   6.6589   7.4245   7.4765

          k = 0.0000 0.0000-0.5000 (  5126 PWs)   bands (ev):

   -64.8301 -64.8296 -64.8252 -64.8246 -31.6128 -31.6125 -31.6078 -31.6076
   -31.6021 -31.6020 -31.5911 -31.5911 -31.5824 -31.5822 -31.5790 -31.5788
    -8.6459  -8.6458  -7.8563  -7.8562   4.8434   4.8434   4.8521   4.8521
     5.1226   5.1229   5.9736   5.9739   6.9370   6.9371   7.0001   7.0001

          k = 0.0008 0.2500 0.0000 (  5165 PWs)   bands (ev):

   -64.8333 -64.8264 -64.8252 -64.8246 -31.6250 -31.6245 -31.6212 -31.5991
   -31.5984 -31.5936 -31.5934 -31.5892 -31.5890 -31.5791 -31.5716 -31.5712
    -9.1561  -8.1284  -7.8852  -7.8850   4.0485   4.0486   4.0953   5.8550
     5.8582   6.1707   6.1739   6.5429   6.5431   6.6585   7.4503   7.4508

          k = 0.0008 0.2500 0.2500 (  5159 PWs)   bands (ev):

   -64.8320 -64.8264 -64.8260 -64.8250 -31.6214 -31.6211 -31.6198 -31.6073
   -31.5944 -31.5940 -31.5932 -31.5877 -31.5866 -31.5864 -31.5759 -31.5688
    -8.9659  -8.0638  -8.0636  -7.8900   4.1611   4.1618   4.3289   5.0714
     5.8470   6.0542   6.0557   6.4850   6.4867   6.5837   7.1731   7.5059

          k = 0.0008 0.2500-0.5000 (  5152 PWs)   bands (ev):

   -64.8293 -64.8289 -64.8259 -64.8253 -31.6179 -31.6177 -31.6102 -31.6102
   -31.6066 -31.6064 -31.5853 -31.5850 -31.5839 -31.5838 -31.5755 -31.5754
    -8.5095  -8.5094  -7.9467  -7.9467   4.4185   4.4186   4.7510   4.7512
     5.0964   5.0964   6.5479   6.5482   6.5754   6.5755   7.0949   7.0950

          k =-0.0016-0.5000 0.0000 (  5112 PWs)   bands (ev):

   -64.8300 -64.8296 -64.8252 -64.8246 -31.6104 -31.6101 -31.6096 -31.6094
   -31.6019 -31.6018 -31.5911 -31.5911 -31.5806 -31.5803 -31.5802 -31.5800
    -8.6459  -8.6456  -7.8564  -7.8563   4.8474   4.8478   4.8480   4.8483
     5.1229   5.1232   5.9736   5.9739   6.9684   6.9685   6.9687   6.9688

          k =-0.0016-0.5000 0.2500 (  5152 PWs)   bands (ev):

   -64.8293 -64.8289 -64.8259 -64.8253 -31.6175 -31.6174 -31.6104 -31.6103
   -31.6069 -31.6066 -31.5852 -31.5850 -31.5840 -31.5840 -31.5754 -31.5753
    -8.5096  -8.5093  -7.9468  -7.9467   4.4183   4.4185   4.7512   4.7514
     5.0963   5.0968   6.5479   6.5481   6.5759   6.5762   7.0941   7.0943

          k =-0.0016-0.5000-0.5000 (  5188 PWs)   bands (ev):

   -64.8276 -64.8276 -64.8276 -64.8266 -31.6194 -31.6192 -31.6191 -31.6191
   -31.5970 -31.5968 -31.5968 -31.5966 -31.5763 -31.5761 -31.5760 -31.5759
    -8.2053  -8.2053  -8.2051  -8.2049   4.2930   4.2932   4.2936   4.2937
     5.7673   5.7677   5.7681   5.7685   7.0633   7.0636   7.0637   7.0638

          k = 0.2508 0.2508 0.0000 (  5155 PWs)   bands (ev):

   -64.8320 -64.8265 -64.8261 -64.8249 -31.6197 -31.6195 -31.6194 -31.6096
   -31.5944 -31.5944 -31.5941 -31.5878 -31.5876 -31.5864 -31.5755 -31.5673
    -8.9626  -8.0677  -8.0677  -7.8863   4.1632   4.1632   4.3322   5.0914
     5.8585   6.0503   6.0506   6.4919   6.4919   6.5503   7.1796   7.4826

          k = 0.2508 0.2508 0.2500 (  5156 PWs)   bands (ev):

   -64.8310 -64.8265 -64.8264 -64.8256 -31.6259 -31.6237 -31.6235 -31.6070
   -31.5956 -31.5955 -31.5951 -31.5837 -31.5837 -31.5827 -31.5720 -31.5701
    -8.7928  -8.0346  -8.0345  -8.0269   3.9974   3.9975   4.0126   5.1033
     5.8498   5.8500   5.8557   6.6734   6.7088   6.7090   7.3307   7.3585

          k = 0.2508 0.2508-0.5000 (  5148 PWs)   bands (ev):

   -64.8288 -64.8284 -64.8264 -64.8258 -31.6269 -31.6268 -31.6223 -31.6222
   -31.5956 -31.5953 -31.5803 -31.5802 -31.5790 -31.5789 -31.5763 -31.5761
    -8.3956  -8.3955  -8.0010  -8.0009   3.8149   3.8150   4.2130   4.2131
     5.8391   5.8392   6.7434   6.7436   6.8725   6.8726   6.9876   6.9876

          k = 0.2484-0.4992 0.0000 (  5149 PWs)   bands (ev):

   -64.8293 -64.8289 -64.8259 -64.8253 -31.6197 -31.6149 -31.6124 -31.6081
   -31.6070 -31.6067 -31.5853 -31.5852 -31.5849 -31.5823 -31.5767 -31.5741
    -8.5146  -8.5043  -7.9524  -7.9411   4.4115   4.4255   4.7483   4.7543
     5.0906   5.1021   6.5257   6.5678   6.5708   6.5840   7.0775   7.1113

          k = 0.2484-0.4992 0.2500 (  5137 PWs)   bands (ev):

   -64.8288 -64.8284 -64.8264 -64.8258 -31.6296 -31.6270 -31.6229 -31.6193
   -31.5934 -31.5929 -31.5817 -31.5800 -31.5793 -31.5784 -31.5771 -31.5759
    -8.4041  -8.3938  -8.0025  -7.9915   3.8103   3.8328   4.1896   4.2065
     5.8251   5.8355   6.7242   6.7568   6.8573   6.8797   7.0118   7.0219

          k = 0.2484-0.4992-0.5000 (  5144 PWs)   bands (ev):

   -64.8277 -64.8276 -64.8275 -64.8266 -31.6334 -31.6332 -31.6303 -31.6301
   -31.5842 -31.5840 -31.5825 -31.5824 -31.5756 -31.5754 -31.5750 -31.5750
    -8.1729  -8.1728  -8.1625  -8.1624   3.6285   3.6286   3.6523   3.6524
     6.5074   6.5074   6.5416   6.5417   7.0595   7.0596   7.0696   7.0698

          k = 0.2492-0.2492 0.0000 (  5159 PWs)   bands (ev):

   -64.8321 -64.8264 -64.8260 -64.8250 -31.6228 -31.6226 -31.6198 -31.6059
   -31.5943 -31.5942 -31.5908 -31.5888 -31.5855 -31.5854 -31.5756 -31.5705
    -8.9692  -8.0597  -8.0596  -7.8941   4.1599   4.1601   4.3253   5.0514
     5.8361   6.0608   6.0612   6.4780   6.4780   6.6173   7.1670   7.5286

          k = 0.2492-0.2492 0.2500 (  5146 PWs)   bands (ev):

   -64.8311 -64.8264 -64.8263 -64.8256 -31.6269 -31.6267 -31.6245 -31.6050
   -31.5923 -31.5922 -31.5920 -31.5855 -31.5840 -31.5840 -31.5730 -31.5708
    -8.7994  -8.0343  -8.0266  -8.0265   3.9883   4.0036   4.0037   5.0753
     5.8361   5.8419   5.8421   6.7022   6.7024   6.7381   7.3523   7.3803

          k = 0.2492-0.2492-0.5000 (  5124 PWs)   bands (ev):

   -64.8289 -64.8285 -64.8263 -64.8257 -31.6299 -31.6297 -31.6201 -31.6200
   -31.5908 -31.5905 -31.5815 -31.5814 -31.5791 -31.5789 -31.5765 -31.5764
    -8.4024  -8.4024  -7.9931  -7.9930   3.8280   3.8281   4.1830   4.1831
     5.8218   5.8219   6.7371   6.7374   6.8651   6.8653   7.0452   7.0452

          k =-0.5016-0.5016 0.0000 (  5180 PWs)   bands (ev):

   -64.8277 -64.8276 -64.8275 -64.8266 -31.6216 -31.6213 -31.6164 -31.6162
   -31.5972 -31.5970 -31.5969 -31.5967 -31.5769 -31.5766 -31.5751 -31.5748
    -8.2129  -8.2128  -8.1976  -8.1974   4.2890   4.2891   4.2976   4.2979
     5.7580   5.7584   5.7768   5.7773   7.0377   7.0378   7.0900   7.0900

          k =-0.5016-0.5016 0.2500 (  5138 PWs)   bands (ev):

   -64.8277 -64.8276 -64.8275 -64.8266 -31.6333 -31.6331 -31.6303 -31.6302
   -31.5836 -31.5836 -31.5823 -31.5823 -31.5770 -31.5767 -31.5738 -31.5735
    -8.1753  -8.1752  -8.1601  -8.1600   3.6306   3.6307   3.6500   3.6502
     6.5216   6.5219   6.5271   6.5274   7.0389   7.0390   7.0906   7.0907

          k =-0.5016-0.5016-0.5000 (  5136 PWs)   bands (ev):

   -64.8277 -64.8276 -64.8275 -64.8266 -31.6399 -31.6396 -31.6396 -31.6395
   -31.5762 -31.5759 -31.5754 -31.5753 -31.5748 -31.5748 -31.5742 -31.5740
    -8.1371  -8.1371  -8.1220  -8.1220   3.2055   3.2056   3.2296   3.2297
     7.0396   7.0396   7.0645   7.0647   7.0660   7.0662   7.0916   7.0916

          k = 0.2500 0.0008-0.2500 (  5159 PWs)   bands (ev):

   -64.8320 -64.8264 -64.8260 -64.8250 -31.6214 -31.6211 -31.6198 -31.6073
   -31.5944 -31.5940 -31.5932 -31.5877 -31.5866 -31.5864 -31.5759 -31.5688
    -8.9659  -8.0638  -8.0636  -7.8900   4.1611   4.1618   4.3289   5.0714
     5.8470   6.0542   6.0557   6.4850   6.4867   6.5837   7.1731   7.5059

          k = 0.2508 0.2508-0.2500 (  5156 PWs)   bands (ev):

   -64.8310 -64.8265 -64.8264 -64.8256 -31.6259 -31.6237 -31.6235 -31.6070
   -31.5956 -31.5955 -31.5951 -31.5837 -31.5837 -31.5827 -31.5720 -31.5701
    -8.7928  -8.0346  -8.0345  -8.0269   3.9974   3.9975   4.0126   5.1033
     5.8498   5.8500   5.8557   6.6734   6.7088   6.7090   7.3307   7.3585

          k =-0.4992 0.2484-0.2500 (  5137 PWs)   bands (ev):

   -64.8288 -64.8284 -64.8264 -64.8258 -31.6296 -31.6270 -31.6229 -31.6193
   -31.5934 -31.5929 -31.5817 -31.5800 -31.5793 -31.5784 -31.5771 -31.5759
    -8.4041  -8.3938  -8.0025  -7.9915   3.8103   3.8328   4.1896   4.2065
     5.8251   5.8355   6.7242   6.7568   6.8573   6.8797   7.0118   7.0219

     highest occupied level (ev):     7.6959

!    total energy              =    -608.39275043 Ry
     Harris-Foulkes estimate   =    -608.39275043 Ry
     estimated scf accuracy    <          7.6E-12 Ry

     The total energy is the sum of the following terms:

     one-electron contribution =    -303.55667211 Ry
     hartree contribution      =     168.06755920 Ry
     xc contribution           =     -97.84637647 Ry
     ewald contribution        =    -375.05726106 Ry

     convergence has been achieved in   5 iterations

     Forces acting on atoms (cartesian axes, Ry/au):

     atom    1 type  1   force =     0.00000438    0.00000438    0.00000181
     atom    2 type  1   force =    -0.00003806    0.00009809   -0.00000159
     atom    3 type  1   force =     0.00009809   -0.00003806   -0.00000159
     atom    4 type  1   force =    -0.00009718   -0.00009718    0.00000161
     atom    5 type  2   force =    -0.00003519    0.00007515    0.00000191
     atom    6 type  2   force =     0.00007515   -0.00003519    0.00000191
     atom    7 type  2   force =    -0.00005827   -0.00005827   -0.00000197
     atom    8 type  2   force =     0.00005106    0.00005106   -0.00000209

     Total force =     0.000259     Total SCF correction =     0.000009


     Computing stress (Cartesian axis) and pressure

          total   stress  (Ry/bohr**3)                   (kbar)     P=  -68.08
  -0.00046292   0.00006209   0.00000000        -68.10      9.13      0.00
   0.00006209  -0.00046292   0.00000000          9.13    -68.10      0.00
   0.00000000   0.00000000  -0.00046253          0.00      0.00    -68.04


     bfgs converged in   6 scf cycles and   5 bfgs steps
     (criteria: energy <  1.0E-05 Ry, force <  1.0E-04 Ry/Bohr)

     End of BFGS Geometry Optimization

     Final energy   =    -608.3927504297 Ry
Begin final coordinates

ATOMIC_POSITIONS (alat)
Mg       0.000726070   0.000726070  -0.000003127
Mg      -0.000776963   0.500761242   0.500003211
Mg       0.500761242  -0.000776963   0.500003211
Mg       0.499292686   0.499292686  -0.000003330
O        0.500829149  -0.000839408  -0.000003318
O       -0.000839408   0.500829149  -0.000003318
O        0.000817009   0.000817009   0.500003322
O        0.499190216   0.499190216   0.500003350
End final coordinates



     Writing output data file MgO.-0.006429.70.4.save
 
     init_run     :      0.46s CPU      0.47s WALL (       1 calls)
     electrons    :     38.67s CPU     39.31s WALL (       6 calls)
     update_pot   :      0.53s CPU      0.54s WALL (       5 calls)
     forces       :      0.89s CPU      0.90s WALL (       6 calls)
     stress       :      2.02s CPU      2.02s WALL (       6 calls)

     Called by init_run:
     wfcinit      :      0.34s CPU      0.35s WALL (       1 calls)
     potinit      :      0.05s CPU      0.05s WALL (       1 calls)

     Called by electrons:
     c_bands      :     33.72s CPU     34.26s WALL (      37 calls)
     sum_band     :      4.71s CPU      4.80s WALL (      37 calls)
     v_of_rho     :      0.20s CPU      0.20s WALL (      38 calls)
     mix_rho      :      0.03s CPU      0.03s WALL (      37 calls)

     Called by c_bands:
     init_us_2    :      0.51s CPU      0.52s WALL (    2088 calls)
     cegterg      :     31.37s CPU     31.89s WALL (     888 calls)

     Called by sum_band:

     Called by *egterg:
     h_psi        :     23.04s CPU     23.54s WALL (    3026 calls)
     g_psi        :      0.17s CPU      0.17s WALL (    2114 calls)
     cdiaghg      :      4.47s CPU      4.47s WALL (    2762 calls)

     Called by h_psi:
     h_psi:pot    :     22.95s CPU     23.42s WALL (    3026 calls)
     h_psi:calbec :      1.31s CPU      1.31s WALL (    3026 calls)
     vloc_psi     :     20.57s CPU     21.02s WALL (    3026 calls)
     add_vuspsi   :      1.07s CPU      1.08s WALL (    3026 calls)

     General routines
     calbec       :      1.71s CPU      1.70s WALL (    3746 calls)
     fft          :      0.15s CPU      0.15s WALL (     577 calls)
     fftw         :     22.95s CPU     23.02s WALL (  177926 calls)
     davcio       :      0.00s CPU      0.01s WALL (      24 calls)
 
     Parallel routines
     fft_scatter  :      6.39s CPU      6.21s WALL (  178503 calls)
 
     PWSCF        :    43.00s CPU        43.80s WALL

 
   This run was terminated on:  19: 6:31  22Apr2018            

=------------------------------------------------------------------------------=
   JOB DONE.
=------------------------------------------------------------------------------=
