********************************************************************************
*                       GENERAL UTILITY LATTICE PROGRAM                        *
*                                 Julian Gale                                  *
*                       Curtin Institute for Computation                       *
*                           Department of Chemistry                            *
*                    Curtin University, Western Australia                      *
********************************************************************************
* Version = 5.0.0 * Last modified =  18th April 2018                           *
********************************************************************************
*  single       - perform a single point run                                   *
*  md           - perform molecular dynamics run                               *
*  conv         - constant volume calculation                                  *
********************************************************************************
* molecular dynamics of silver                                                 *
********************************************************************************


  Job Started  at 18:24.32 17th May        2018                               

  Number of CPUs =     1


  Total number of configurations input =   1

********************************************************************************
*  Input for Configuration =   1                                               *
********************************************************************************

  Formula = Ag32                                                        

  Number of irreducible atoms/shells =      32


  Total number atoms/shells =      32

  Dimensionality = 3               :  Bulk   



  Supercell dimensions :  x =   2  y =   2  z =   2

  Cartesian lattice vectors (Angstroms) :

        8.170000    0.000000    0.000000
        0.000000    8.170000    0.000000
        0.000000    0.000000    8.170000

  Cell parameters (Angstroms/Degrees):

  a =       8.1700    alpha =  90.0000
  b =       8.1700    beta  =  90.0000
  c =       8.1700    gamma =  90.0000

  Initial cell volume =         545.338513 Angs**3

  Temperature of configuration =  3000.     K 

  Pressure of configuration =         0.000 GPa 

  Fractional coordinates of asymmetric unit :

--------------------------------------------------------------------------------
   No.  Atomic       x           y          z         Charge      Occupancy
        Label      (Frac)      (Frac)     (Frac)        (e)         (Frac)  
--------------------------------------------------------------------------------
      1 Ag    c    0.000000 *  0.000000 *  0.000000 *   0.00000    1.000000    
      2 Ag    c    0.000000 *  0.000000 *  0.500000 *   0.00000    1.000000    
      3 Ag    c    0.000000 *  0.500000 *  0.000000 *   0.00000    1.000000    
      4 Ag    c    0.000000 *  0.500000 *  0.500000 *   0.00000    1.000000    
      5 Ag    c    0.500000 *  0.000000 *  0.000000 *   0.00000    1.000000    
      6 Ag    c    0.500000 *  0.000000 *  0.500000 *   0.00000    1.000000    
      7 Ag    c    0.500000 *  0.500000 *  0.000000 *   0.00000    1.000000    
      8 Ag    c    0.500000 *  0.500000 *  0.500000 *   0.00000    1.000000    
      9 Ag    c    0.000000 *  0.250000 *  0.250000 *   0.00000    1.000000    
     10 Ag    c    0.000000 *  0.250000 *  0.750000 *   0.00000    1.000000    
     11 Ag    c    0.000000 *  0.750000 *  0.250000 *   0.00000    1.000000    
     12 Ag    c    0.000000 *  0.750000 *  0.750000 *   0.00000    1.000000    
     13 Ag    c    0.500000 *  0.250000 *  0.250000 *   0.00000    1.000000    
     14 Ag    c    0.500000 *  0.250000 *  0.750000 *   0.00000    1.000000    
     15 Ag    c    0.500000 *  0.750000 *  0.250000 *   0.00000    1.000000    
     16 Ag    c    0.500000 *  0.750000 *  0.750000 *   0.00000    1.000000    
     17 Ag    c    0.250000 *  0.000000 *  0.250000 *   0.00000    1.000000    
     18 Ag    c    0.250000 *  0.000000 *  0.750000 *   0.00000    1.000000    
     19 Ag    c    0.250000 *  0.500000 *  0.250000 *   0.00000    1.000000    
     20 Ag    c    0.250000 *  0.500000 *  0.750000 *   0.00000    1.000000    
     21 Ag    c    0.750000 *  0.000000 *  0.250000 *   0.00000    1.000000    
     22 Ag    c    0.750000 *  0.000000 *  0.750000 *   0.00000    1.000000    
     23 Ag    c    0.750000 *  0.500000 *  0.250000 *   0.00000    1.000000    
     24 Ag    c    0.750000 *  0.500000 *  0.750000 *   0.00000    1.000000    
     25 Ag    c    0.250000 *  0.250000 *  0.000000 *   0.00000    1.000000    
     26 Ag    c    0.250000 *  0.250000 *  0.500000 *   0.00000    1.000000    
     27 Ag    c    0.250000 *  0.750000 *  0.000000 *   0.00000    1.000000    
     28 Ag    c    0.250000 *  0.750000 *  0.500000 *   0.00000    1.000000    
     29 Ag    c    0.750000 *  0.250000 *  0.000000 *   0.00000    1.000000    
     30 Ag    c    0.750000 *  0.250000 *  0.500000 *   0.00000    1.000000    
     31 Ag    c    0.750000 *  0.750000 *  0.000000 *   0.00000    1.000000    
     32 Ag    c    0.750000 *  0.750000 *  0.500000 *   0.00000    1.000000    
--------------------------------------------------------------------------------



********************************************************************************
*  General input information                                                   *
********************************************************************************

  Species output for all configurations : 

--------------------------------------------------------------------------------
  Species    Type    Atomic    Atomic    Charge       Radii (Angs)     Library
                     Number     Mass       (e)     Cova   Ionic  VDW   Symbol
--------------------------------------------------------------------------------
    Ag       Core       47     107.87   0.000000   1.590  0.000  2.370          
--------------------------------------------------------------------------------


  Lattice summation method               =    Ewald          (3-D)
                                         =    Parry          (2-D)
                                         =    Saunders et al (1-D)
  Accuracy factor for lattice sums       =   12.000


  Time limit = Infinity

  Maximum range for interatomic potentials =    100000.000000 Angstroms

  General interatomic potentials :

--------------------------------------------------------------------------------
Atom  Types   Potential      Parameter       Value         Units   Cutoffs(Ang)
  1     2                                                            Min /  Max 
--------------------------------------------------------------------------------
Ag   c Ag   c Many-body                                             0.000  8.000
--------------------------------------------------------------------------------
Ag   c Ag   c Buckingham    Buckingham A     11454.950    eV        0.000 12.000
                            Buckingham rho  0.26432400    Ang       
                            Buckingham C     0.0000000    eV*Ang^6  
--------------------------------------------------------------------------------

  Embedded Atom Model Densities :

--------------------------------------------------------------------------------
  Atom(s)       Functional Form          A          B          C         n      
--------------------------------------------------------------------------------
  Ag   c        Exponential          1.388      2.173      2.889         0
--------------------------------------------------------------------------------


  Embedded Atom Model alloy parameters :

--------------------------------------------------------------------------------
  Atom(s)                          Scale factor 
--------------------------------------------------------------------------------
  Ag    c                            1.000000
--------------------------------------------------------------------------------

  Embedded Atom Model functional = Square Root

--------------------------------------------------------------------------------
  Atom                     A     
--------------------------------------------------------------------------------
  Ag    c               1.000000
--------------------------------------------------------------------------------


  Manybody second derivative cross term cutoffs to be scale by = 0.50000000

********************************************************************************
*  Output for configuration   1                                                *
********************************************************************************


  Components of energy : 

--------------------------------------------------------------------------------
  Interatomic potentials     =          39.71625760 eV    
  Many-body potentials       =        -134.45860512 eV    
  Monopole - monopole (real) =           0.00000000 eV    
  Monopole - monopole (recip)=           0.00000000 eV    
  Monopole - monopole (total)=           0.00000000 eV    
--------------------------------------------------------------------------------
  Total lattice energy       =         -94.74234752 eV    
--------------------------------------------------------------------------------
  Total lattice energy       =           -9141.1883 kJ/(mole unit cells)
--------------------------------------------------------------------------------

  Equations of motion will be integrated using the leapfrog Verlet algorithm.

********************************************************************************
*  Molecular Dynamics                                                          *
********************************************************************************

  Microcanonical ensemble (NVE) to be used

  No. of mobile ions        =                 32

  No. of degrees of freedom =                 93

  Time step                 =           0.015000 ps
  Equilibration time        =           5.000000 ps
  Production time           =          10.000000 ps
  Scaling time              =           4.995000 ps
  Scaling frequency         =           0.015000 ps
  Sampling frequency        =           0.015000 ps
  Write frequency           =           0.015000 ps
  TD-Force start time       =           0.000000 ps
  TD-Field start time       =           0.000000 ps



  Molecular dynamics equilibration :

  ** Time :            0.01500 ps :
     Properties:                   Instantaneous       Averaged
       Kinetic energy    (eV) =      12.021192         12.021192
       Potential energy  (eV) =     -94.742348        -94.742348
       Total energy      (eV) =     -82.721155        -82.721155
       Temperature       (K)  =    3000.000000       3000.000000
       Pressure         (GPa) =       2.339048          2.339048
  ** Time :            0.03000 ps :
     Properties:                   Instantaneous       Averaged
       Kinetic energy    (eV) =      10.571346         11.296269
       Potential energy  (eV) =     -93.330795        -94.036571
       Total energy      (eV) =     -82.759449        -82.740302
       Temperature       (K)  =    2638.177424       2819.088712
       Pressure         (GPa) =       4.081094          3.210071
  ** Time :            0.04500 ps :
     Properties:                   Instantaneous       Averaged
       Kinetic energy    (eV) =       9.013073         10.535204
       Potential energy  (eV) =     -89.246549        -92.439897
       Total energy      (eV) =     -80.233476        -81.904694
       Temperature       (K)  =    2249.295917       2629.157780
       Pressure         (GPa) =       9.079769          5.166637
  ** Time :            0.06000 ps :
     Properties:                   Instantaneous       Averaged
       Kinetic energy    (eV) =       9.171644         10.194314
       Potential energy  (eV) =     -84.653026        -90.493180
       Total energy      (eV) =     -75.481383        -80.298866
       Temperature       (K)  =    2288.868705       2544.085512
       Pressure         (GPa) =      14.640904          7.535204
  ** Time :            0.07500 ps :
     Properties:                   Instantaneous       Averaged
       Kinetic energy    (eV) =      11.252915         10.406034
       Potential energy  (eV) =     -83.214748        -89.037493
       Total energy      (eV) =     -71.961833        -78.631459
       Temperature       (K)  =    2808.269379       2596.922285
       Pressure         (GPa) =      17.056276          9.439418
  ** Time :            0.09000 ps :
     Properties:                   Instantaneous       Averaged
       Kinetic energy    (eV) =      11.062824         10.515499
       Potential energy  (eV) =     -83.015481        -88.033825
       Total energy      (eV) =     -71.952657        -77.518326
       Temperature       (K)  =    2760.830234       2624.240277
       Pressure         (GPa) =      17.355033         10.758687
  ** Time :            0.10500 ps :
     Properties:                   Instantaneous       Averaged
       Kinetic energy    (eV) =      10.534259         10.518179
       Potential energy  (eV) =     -81.428099        -87.090149
       Total energy      (eV) =     -70.893840        -76.571971
       Temperature       (K)  =    2628.921965       2624.909089
       Pressure         (GPa) =      18.861114         11.916177
  ** Time :            0.12000 ps :
     Properties:                   Instantaneous       Averaged
       Kinetic energy    (eV) =      10.978451         10.575713
       Potential energy  (eV) =     -80.439308        -86.258794
       Total energy      (eV) =     -69.460857        -75.683081
       Temperature       (K)  =    2739.774338       2639.267245
       Pressure         (GPa) =      20.262437         12.959459
  ** Time :            0.13500 ps :
     Properties:                   Instantaneous       Averaged
       Kinetic energy    (eV) =      10.666813         10.585835
       Potential energy  (eV) =     -79.458624        -85.503220
       Total energy      (eV) =     -68.791811        -74.917385
       Temperature       (K)  =    2662.002102       2641.793340
       Pressure         (GPa) =      21.637655         13.923703
  ** Time :            0.15000 ps :
     Properties:                   Instantaneous       Averaged
       Kinetic energy    (eV) =      10.200477         10.547299
       Potential energy  (eV) =     -77.449886        -84.697886
       Total energy      (eV) =     -67.249408        -74.150587
       Temperature       (K)  =    2545.623756       2632.176382
       Pressure         (GPa) =      23.698188         14.901152
  ** Time :            0.16500 ps :
     Properties:                   Instantaneous       Averaged
       Kinetic energy    (eV) =      11.362770         10.621433
       Potential energy  (eV) =     -76.698603        -83.970679
       Total energy      (eV) =     -65.335833        -73.349246
       Temperature       (K)  =    2835.684610       2650.677130
       Pressure         (GPa) =      24.628551         15.785461
  ** Time :            0.18000 ps :
     Properties:                   Instantaneous       Averaged
       Kinetic energy    (eV) =      12.217986         10.754479
       Potential energy  (eV) =     -78.444889        -83.510196
       Total energy      (eV) =     -66.226903        -72.755717
       Temperature       (K)  =    3049.111692       2683.880010
       Pressure         (GPa) =      23.036443         16.389709
  ** Time :            0.19500 ps :
     Properties:                   Instantaneous       Averaged
       Kinetic energy    (eV) =      11.678233         10.825537
       Potential energy  (eV) =     -79.855322        -83.229052
       Total energy      (eV) =     -68.177089        -72.403515
       Temperature       (K)  =    2914.411446       2701.613198
       Pressure         (GPa) =      21.435808         16.777871
  ** Time :            0.21000 ps :
     Properties:                   Instantaneous       Averaged
       Kinetic energy    (eV) =      11.221651         10.853831
       Potential energy  (eV) =     -79.627516        -82.971800
       Total energy      (eV) =     -68.405865        -72.117969
       Temperature       (K)  =    2800.467061       2708.674188
       Pressure         (GPa) =      21.438741         17.110790
  ** Time :            0.22500 ps :
     Properties:                   Instantaneous       Averaged
       Kinetic energy    (eV) =      11.260830         10.880964
       Potential energy  (eV) =     -79.254627        -82.723988
       Total energy      (eV) =     -67.993798        -71.843024
       Temperature       (K)  =    2810.244439       2715.445538
       Pressure         (GPa) =      21.713972         17.417669
  ** Time :            0.24000 ps :
     Properties:                   Instantaneous       Averaged
       Kinetic energy    (eV) =      11.716613         10.933192
       Potential energy  (eV) =     -79.569785        -82.526850
       Total energy      (eV) =     -67.853171        -71.593658
       Temperature       (K)  =    2923.989497       2728.479535
       Pressure         (GPa) =      21.368873         17.664619
  ** Time :            0.25500 ps :
     Properties:                   Instantaneous       Averaged
       Kinetic energy    (eV) =      11.885644         10.989219
       Potential energy  (eV) =     -80.343309        -82.398407
       Total energy      (eV) =     -68.457665        -71.409188
       Temperature       (K)  =    2966.172623       2742.461482
       Pressure         (GPa) =      20.523746         17.832803
  ** Time :            0.27000 ps :
     Properties:                   Instantaneous       Averaged
       Kinetic energy    (eV) =      11.602013         11.023263
       Potential energy  (eV) =     -80.994252        -82.320398
       Total energy      (eV) =     -69.392240        -71.297135
       Temperature       (K)  =    2895.389879       2750.957504
       Pressure         (GPa) =      19.778209         17.940881
  ** Time :            0.28500 ps :
     Properties:                   Instantaneous       Averaged
       Kinetic energy    (eV) =      11.048277         11.024579
       Potential energy  (eV) =     -80.594072        -82.229539
       Total energy      (eV) =     -69.545795        -71.204959
       Temperature       (K)  =    2757.199911       2751.286051
       Pressure         (GPa) =      19.984227         18.048426
  ** Time :            0.30000 ps :
     Properties:                   Instantaneous       Averaged
       Kinetic energy    (eV) =      11.144424         11.030572
       Potential energy  (eV) =     -80.195606        -82.127842
       Total energy      (eV) =     -69.051182        -71.097271
       Temperature       (K)  =    2781.194256       2752.781462
       Pressure         (GPa) =      20.575184         18.174764
  ** Time :            0.31500 ps :
     Properties:                   Instantaneous       Averaged
       Kinetic energy    (eV) =      10.685865         11.014157
       Potential energy  (eV) =     -79.517918        -82.003560
       Total energy      (eV) =     -68.832053        -70.989403
       Temperature       (K)  =    2666.756712       2748.685045
       Pressure         (GPa) =      21.534114         18.334733
  ** Time :            0.33000 ps :
     Properties:                   Instantaneous       Averaged
       Kinetic energy    (eV) =      10.779006         11.003468
       Potential energy  (eV) =     -78.164281        -81.829047
       Total energy      (eV) =     -67.385276        -70.825579
       Temperature       (K)  =    2690.000794       2746.017579
       Pressure         (GPa) =      23.045340         18.548851
  ** Time :            0.34500 ps :
     Properties:                   Instantaneous       Averaged
       Kinetic energy    (eV) =      11.815447         11.038772
       Potential energy  (eV) =     -78.604878        -81.688866
       Total energy      (eV) =     -66.789431        -70.650094
       Temperature       (K)  =    2948.654385       2754.827875
       Pressure         (GPa) =      22.828135         18.734907
  ** Time :            0.36000 ps :
     Properties:                   Instantaneous       Averaged
       Kinetic energy    (eV) =      11.170108         11.044244
       Potential energy  (eV) =     -79.185686        -81.584567
       Total energy      (eV) =     -68.015577        -70.540323
       Temperature       (K)  =    2787.604082       2756.193550
       Pressure         (GPa) =      22.113881         18.875698
  ** Time :            0.37500 ps :
     Properties:                   Instantaneous       Averaged
       Kinetic energy    (eV) =      10.505860         11.022709
       Potential energy  (eV) =     -77.652251        -81.427274
       Total energy      (eV) =     -67.146391        -70.404566
       Temperature       (K)  =    2621.834861       2750.819203
       Pressure         (GPa) =      23.420508         19.057490
  ** Time :            0.39000 ps :
     Properties:                   Instantaneous       Averaged
       Kinetic energy    (eV) =      11.343566         11.035049
       Potential energy  (eV) =     -77.495314        -81.276045
       Total energy      (eV) =     -66.151747        -70.240996
       Temperature       (K)  =    2830.892209       2753.898934
       Pressure         (GPa) =      23.778044         19.239050
  ** Time :            0.40500 ps :
     Properties:                   Instantaneous       Averaged
       Kinetic energy    (eV) =      10.996598         11.033625
       Potential energy  (eV) =     -77.468211        -81.135014
       Total energy      (eV) =     -66.471612        -70.101389
       Temperature       (K)  =    2744.303051       2753.543531
       Pressure         (GPa) =      23.714539         19.404809
  ** Time :            0.42000 ps :
     Properties:                   Instantaneous       Averaged
       Kinetic energy    (eV) =      11.344148         11.044715
       Potential energy  (eV) =     -78.146646        -81.028287
       Total energy      (eV) =     -66.802497        -69.983571
       Temperature       (K)  =    2831.037393       2756.311169
       Pressure         (GPa) =      23.072155         19.535785
  ** Time :            0.43500 ps :
     Properties:                   Instantaneous       Averaged
       Kinetic energy    (eV) =      11.111703         11.047025
       Potential energy  (eV) =     -78.060007        -80.925932
       Total energy      (eV) =     -66.948303        -69.878907
       Temperature       (K)  =    2773.028600       2756.887632
       Pressure         (GPa) =      22.773914         19.647445
  ** Time :            0.45000 ps :
     Properties:                   Instantaneous       Averaged
       Kinetic energy    (eV) =      11.583129         11.064895
       Potential energy  (eV) =     -78.641939        -80.849799
       Total energy      (eV) =     -67.058810        -69.784904
       Temperature       (K)  =    2890.677150       2761.347282
       Pressure         (GPa) =      22.224942         19.733361
  ** Time :            0.46500 ps :
     Properties:                   Instantaneous       Averaged
       Kinetic energy    (eV) =      11.062605         11.064822
       Potential energy  (eV) =     -78.587450        -80.776820
       Total energy      (eV) =     -67.524845        -69.711999
       Temperature       (K)  =    2760.775702       2761.328844
       Pressure         (GPa) =      22.265465         19.815042
  ** Time :            0.48000 ps :
     Properties:                   Instantaneous       Averaged
       Kinetic energy    (eV) =      10.753146         11.055082
       Potential energy  (eV) =     -77.742935        -80.682011
       Total energy      (eV) =     -66.989789        -69.626929
       Temperature       (K)  =    2683.547371       2758.898173
       Pressure         (GPa) =      23.234589         19.921903
  ** Time :            0.49500 ps :
     Properties:                   Instantaneous       Averaged
       Kinetic energy    (eV) =      11.356981         11.064230
       Potential energy  (eV) =     -77.039008        -80.571617
       Total energy      (eV) =     -65.682027        -69.507387
       Temperature       (K)  =    2834.239983       2761.181258
       Pressure         (GPa) =      23.847107         20.040849
  ** Time :            0.51000 ps :
     Properties:                   Instantaneous       Averaged
       Kinetic energy    (eV) =      12.900010         11.118224
       Potential energy  (eV) =     -79.686344        -80.545580
       Total energy      (eV) =     -66.786334        -69.427356
       Temperature       (K)  =    3219.317234       2774.655846
       Pressure         (GPa) =      21.273225         20.077095
  ** Time :            0.52500 ps :
     Properties:                   Instantaneous       Averaged
       Kinetic energy    (eV) =      11.647216         11.133338
       Potential energy  (eV) =     -81.611752        -80.576042
       Total energy      (eV) =     -69.964536        -69.442704
       Temperature       (K)  =    2906.670771       2778.427701
       Pressure         (GPa) =      19.016191         20.046784
  ** Time :            0.54000 ps :
     Properties:                   Instantaneous       Averaged
       Kinetic energy    (eV) =      10.833808         11.125018
       Potential energy  (eV) =     -80.551216        -80.575352
       Total energy      (eV) =     -69.717409        -69.450335
       Temperature       (K)  =    2703.677191       2776.351298
       Pressure         (GPa) =      19.987503         20.045137
  ** Time :            0.55500 ps :
     Properties:                   Instantaneous       Averaged
       Kinetic energy    (eV) =      11.752001         11.141963
       Potential energy  (eV) =     -80.495119        -80.573184
       Total energy      (eV) =     -68.743118        -69.431221
       Temperature       (K)  =    2932.820931       2780.580207
       Pressure         (GPa) =      20.522111         20.058028
  ** Time :            0.57000 ps :
     Properties:                   Instantaneous       Averaged
       Kinetic energy    (eV) =      11.598978         11.153990
       Potential energy  (eV) =     -81.271865        -80.591570
       Total energy      (eV) =     -69.672887        -69.437580
       Temperature       (K)  =    2894.632529       2783.581584
       Pressure         (GPa) =      19.798657         20.051202
  ** Time :            0.58500 ps :
     Properties:                   Instantaneous       Averaged
       Kinetic energy    (eV) =      11.887795         11.172805
       Potential energy  (eV) =     -81.824009        -80.623171
       Total energy      (eV) =     -69.936214        -69.450366
       Temperature       (K)  =    2966.709400       2788.277169
       Pressure         (GPa) =      19.057262         20.025717
  ** Time :            0.60000 ps :
     Properties:                   Instantaneous       Averaged
       Kinetic energy    (eV) =      11.948896         11.192208
       Potential energy  (eV) =     -83.076859        -80.684513
       Total energy      (eV) =     -71.127964        -69.492306
       Temperature       (K)  =    2981.957734       2793.119183
       Pressure         (GPa) =      17.590936         19.964847
  ** Time :            0.61500 ps :
     Properties:                   Instantaneous       Averaged
       Kinetic energy    (eV) =      11.588159         11.201865
       Potential energy  (eV) =     -83.567303        -80.754825
       Total energy      (eV) =     -71.979144        -69.552960
       Temperature       (K)  =    2891.932486       2795.529264
       Pressure         (GPa) =      16.875396         19.889495
  ** Time :            0.63000 ps :
     Properties:                   Instantaneous       Averaged
       Kinetic energy    (eV) =      10.726667         11.190551
       Potential energy  (eV) =     -82.644236        -80.799811
       Total energy      (eV) =     -71.917569        -69.609261
       Temperature       (K)  =    2676.939293       2792.705693
       Pressure         (GPa) =      17.746411         19.838469
  ** Time :            0.64500 ps :
     Properties:                   Instantaneous       Averaged
       Kinetic energy    (eV) =      10.331624         11.170576
       Potential energy  (eV) =     -80.409792        -80.790741
       Total energy      (eV) =     -70.078168        -69.620165
       Temperature       (K)  =    2578.352615       2787.720737
       Pressure         (GPa) =      20.042920         19.843224
  ** Time :            0.66000 ps :
     Properties:                   Instantaneous       Averaged
       Kinetic energy    (eV) =      11.286743         11.173216
       Potential energy  (eV) =     -79.541880        -80.762358
       Total energy      (eV) =     -68.255137        -69.589142
       Temperature       (K)  =    2816.711385       2788.379616
       Pressure         (GPa) =      21.254638         19.875301
  ** Time :            0.67500 ps :
     Properties:                   Instantaneous       Averaged
       Kinetic energy    (eV) =      11.455518         11.179489
       Potential energy  (eV) =     -79.845131        -80.741975
       Total energy      (eV) =     -68.389613        -69.562486
       Temperature       (K)  =    2858.830856       2789.945199
       Pressure         (GPa) =      21.075611         19.901975
  ** Time :            0.69000 ps :
     Properties:                   Instantaneous       Averaged
       Kinetic energy    (eV) =      11.442275         11.185202
       Potential energy  (eV) =     -80.384302        -80.734200
       Total energy      (eV) =     -68.942027        -69.548998
       Temperature       (K)  =    2855.525962       2791.370868
       Pressure         (GPa) =      20.859653         19.922794
  ** Time :            0.70500 ps :
     Properties:                   Instantaneous       Averaged
       Kinetic energy    (eV) =      10.125993         11.162666
       Potential energy  (eV) =     -78.861581        -80.694357
       Total energy      (eV) =     -68.735587        -69.531691
       Temperature       (K)  =    2527.035562       2785.746712
       Pressure         (GPa) =      22.424178         19.976015
  ** Time :            0.72000 ps :
     Properties:                   Instantaneous       Averaged
       Kinetic energy    (eV) =      11.560152         11.170947
       Potential energy  (eV) =     -77.790284        -80.633855
       Total energy      (eV) =     -66.230131        -69.462908
       Temperature       (K)  =    2884.943224       2787.813306
       Pressure         (GPa) =      23.678222         20.053144
  ** Time :            0.73500 ps :
     Properties:                   Instantaneous       Averaged
       Kinetic energy    (eV) =      12.207783         11.192106
       Potential energy  (eV) =     -80.098695        -80.622933
       Total energy      (eV) =     -67.890912        -69.430827
       Temperature       (K)  =    3046.565380       2793.093961
       Pressure         (GPa) =      21.422847         20.081097
  ** Time :            0.75000 ps :
     Properties:                   Instantaneous       Averaged
       Kinetic energy    (eV) =      11.649995         11.201264
       Potential energy  (eV) =     -81.011824        -80.630711
       Total energy      (eV) =     -69.361829        -69.429447
       Temperature       (K)  =    2907.364178       2795.379365
       Pressure         (GPa) =      20.113651         20.081748
  ** Time :            0.76500 ps :
     Properties:                   Instantaneous       Averaged
       Kinetic energy    (eV) =      11.195498         11.201151
       Potential energy  (eV) =     -80.907488        -80.636138
       Total energy      (eV) =     -69.711989        -69.434987
       Temperature       (K)  =    2793.940474       2795.351152
       Pressure         (GPa) =      20.029199         20.080718
  ** Time :            0.78000 ps :
     Properties:                   Instantaneous       Averaged
       Kinetic energy    (eV) =      11.311637         11.203276
       Potential energy  (eV) =     -80.459183        -80.632735
       Total energy      (eV) =     -69.147546        -69.429459
       Temperature       (K)  =    2822.923804       2795.881395
       Pressure         (GPa) =      20.599525         20.090695
  ** Time :            0.79500 ps :
     Properties:                   Instantaneous       Averaged
       Kinetic energy    (eV) =      11.605671         11.210868
       Potential energy  (eV) =     -80.796657        -80.635828
       Total energy      (eV) =     -69.190987        -69.424960
       Temperature       (K)  =    2896.302770       2797.776138
       Pressure         (GPa) =      20.436101         20.097212
  ** Time :            0.81000 ps :
     Properties:                   Instantaneous       Averaged
       Kinetic energy    (eV) =      11.027556         11.207474
       Potential energy  (eV) =     -80.761833        -80.638162
       Total energy      (eV) =     -69.734277        -69.430688
       Temperature       (K)  =    2752.028784       2796.928965
       Pressure         (GPa) =      20.139593         20.097997
  ** Time :            0.82500 ps :
     Properties:                   Instantaneous       Averaged
       Kinetic energy    (eV) =      11.500557         11.212802
       Potential energy  (eV) =     -80.981764        -80.644409
       Total energy      (eV) =     -69.481207        -69.431606
       Temperature       (K)  =    2870.070751       2798.258815
       Pressure         (GPa) =      19.884898         20.094122
  ** Time :            0.84000 ps :
     Properties:                   Instantaneous       Averaged
       Kinetic energy    (eV) =      10.620568         11.202227
       Potential energy  (eV) =     -80.480280        -80.641478
       Total energy      (eV) =     -69.859711        -69.439251
       Temperature       (K)  =    2650.461331       2795.619575
       Pressure         (GPa) =      20.525338         20.101823
  ** Time :            0.85500 ps :
     Properties:                   Instantaneous       Averaged
       Kinetic energy    (eV) =      10.926481         11.197389
       Potential energy  (eV) =     -79.575239        -80.622772
       Total energy      (eV) =     -68.648758        -69.425383
       Temperature       (K)  =    2726.804629       2794.412295
       Pressure         (GPa) =      21.947718         20.134207
  ** Time :            0.87000 ps :
     Properties:                   Instantaneous       Averaged
       Kinetic energy    (eV) =      10.363153         11.183006
       Potential energy  (eV) =     -78.294521        -80.582630
       Total energy      (eV) =     -67.931369        -69.399624
       Temperature       (K)  =    2586.220840       2790.822787
       Pressure         (GPa) =      23.331480         20.189332
  ** Time :            0.88500 ps :
     Properties:                   Instantaneous       Averaged
       Kinetic energy    (eV) =      11.733382         11.192334
       Potential energy  (eV) =     -78.317117        -80.544231
       Total energy      (eV) =     -66.583735        -69.351897
       Temperature       (K)  =    2928.174344       2793.150779
       Pressure         (GPa) =      23.612929         20.247359
  ** Time :            0.90000 ps :
     Properties:                   Instantaneous       Averaged
       Kinetic energy    (eV) =      11.729918         11.201294
       Potential energy  (eV) =     -80.013545        -80.535386
       Total energy      (eV) =     -68.283627        -69.334093
       Temperature       (K)  =    2927.309775       2795.386763
       Pressure         (GPa) =      21.939773         20.275566
  ** Time :            0.91500 ps :
     Properties:                   Instantaneous       Averaged
       Kinetic energy    (eV) =      11.076908         11.199255
       Potential energy  (eV) =     -79.849350        -80.524140
       Total energy      (eV) =     -68.772442        -69.324885
       Temperature       (K)  =    2764.345076       2794.877883
       Pressure         (GPa) =      21.681224         20.298610
  ** Time :            0.93000 ps :
     Properties:                   Instantaneous       Averaged
       Kinetic energy    (eV) =      11.455174         11.203382
       Potential energy  (eV) =     -79.611744        -80.509424
       Total energy      (eV) =     -68.156570        -69.306041
       Temperature       (K)  =    2858.744837       2795.907995
       Pressure         (GPa) =      21.824981         20.323229
  ** Time :            0.94500 ps :
     Properties:                   Instantaneous       Averaged
       Kinetic energy    (eV) =      11.041366         11.200811
       Potential energy  (eV) =     -79.570362        -80.494518
       Total energy      (eV) =     -68.528996        -69.293707
       Temperature       (K)  =    2755.475283       2795.266206
       Pressure         (GPa) =      21.994113         20.349751
  ** Time :            0.96000 ps :
     Properties:                   Instantaneous       Averaged
       Kinetic energy    (eV) =      11.110867         11.199405
       Potential energy  (eV) =     -78.826729        -80.468459
       Total energy      (eV) =     -67.715862        -69.269054
       Temperature       (K)  =    2772.819825       2794.915481
       Pressure         (GPa) =      22.878945         20.389269
  ** Time :            0.97500 ps :
     Properties:                   Instantaneous       Averaged
       Kinetic energy    (eV) =      11.512646         11.204224
       Potential energy  (eV) =     -79.696144        -80.456577
       Total energy      (eV) =     -68.183498        -69.252353
       Temperature       (K)  =    2873.087499       2796.118127
       Pressure         (GPa) =      22.314137         20.418883
  ** Time :            0.99000 ps :
     Properties:                   Instantaneous       Averaged
       Kinetic energy    (eV) =      11.138965         11.203236
       Potential energy  (eV) =     -79.383801        -80.440323
       Total energy      (eV) =     -68.244836        -69.237087
       Temperature       (K)  =    2779.831926       2795.871367
       Pressure         (GPa) =      22.420417         20.449209
  ** Time :            1.00500 ps :
     Properties:                   Instantaneous       Averaged
       Kinetic energy    (eV) =      11.461299         11.207087
       Potential energy  (eV) =     -79.342860        -80.423943
       Total energy      (eV) =     -67.881561        -69.216856
       Temperature       (K)  =    2860.273486       2796.832592
       Pressure         (GPa) =      22.491074         20.479685
  ** Time :            1.02000 ps :
     Properties:                   Instantaneous       Averaged
       Kinetic energy    (eV) =      11.891092         11.217146
       Potential energy  (eV) =     -80.226166        -80.421034
       Total energy      (eV) =     -68.335075        -69.203888
       Temperature       (K)  =    2967.532173       2799.342880
       Pressure         (GPa) =      21.874469         20.500196
  ** Time :            1.03500 ps :
     Properties:                   Instantaneous       Averaged
       Kinetic energy    (eV) =      11.528627         11.221660
       Potential energy  (eV) =     -81.140772        -80.431465
       Total energy      (eV) =     -69.612144        -69.209805
       Temperature       (K)  =    2877.075816       2800.469445
       Pressure         (GPa) =      21.017194         20.507689
  ** Time :            1.05000 ps :
     Properties:                   Instantaneous       Averaged
       Kinetic energy    (eV) =      11.413149         11.224396
       Potential energy  (eV) =     -81.260783        -80.443313
       Total energy      (eV) =     -69.847634        -69.218917
       Temperature       (K)  =    2848.257164       2801.152126
       Pressure         (GPa) =      20.732263         20.510897
  ** Time :            1.06500 ps :
     Properties:                   Instantaneous       Averaged
       Kinetic energy    (eV) =      11.204998         11.224123
       Potential energy  (eV) =     -81.250959        -80.454688
       Total energy      (eV) =     -70.045961        -69.230565
       Temperature       (K)  =    2796.311120       2801.083943
       Pressure         (GPa) =      20.434353         20.509819
  ** Time :            1.08000 ps :
     Properties:                   Instantaneous       Averaged
       Kinetic energy    (eV) =      11.210186         11.223929
       Potential energy  (eV) =     -80.982174        -80.462014
       Total energy      (eV) =     -69.771988        -69.238085
       Temperature       (K)  =    2797.605906       2801.035637
       Pressure         (GPa) =      20.639246         20.511617
  ** Time :            1.09500 ps :
     Properties:                   Instantaneous       Averaged
       Kinetic energy    (eV) =      10.915913         11.219710
       Potential energy  (eV) =     -80.483568        -80.462310
       Total energy      (eV) =     -69.567656        -69.242600
       Temperature       (K)  =    2724.167202       2799.982645
       Pressure         (GPa) =      21.403181         20.523830
  ** Time :            1.11000 ps :
     Properties:                   Instantaneous       Averaged
       Kinetic energy    (eV) =      10.320861         11.207563
       Potential energy  (eV) =     -78.964960        -80.442075
       Total energy      (eV) =     -68.644099        -69.234512
       Temperature       (K)  =    2575.666466       2796.951345
       Pressure         (GPa) =      23.049292         20.557958
  ** Time :            1.12500 ps :
     Properties:                   Instantaneous       Averaged
       Kinetic energy    (eV) =      11.181200         11.207212
       Potential energy  (eV) =     -77.799466        -80.406840
       Total energy      (eV) =     -66.618266        -69.199629
       Temperature       (K)  =    2790.372215       2796.863623
       Pressure         (GPa) =      24.025820         20.604196
  ** Time :            1.14000 ps :
     Properties:                   Instantaneous       Averaged
       Kinetic energy    (eV) =      12.232946         11.220708
       Potential energy  (eV) =     -80.335097        -80.405896
       Total energy      (eV) =     -68.102151        -69.185188
       Temperature       (K)  =    3052.845000       2800.231799
       Pressure         (GPa) =      21.309657         20.613478
  ** Time :            1.15500 ps :
     Properties:                   Instantaneous       Averaged
       Kinetic energy    (eV) =      10.926639         11.216889
       Potential energy  (eV) =     -80.529505        -80.407502
       Total energy      (eV) =     -69.602866        -69.190612
       Temperature       (K)  =    2726.844003       2799.278711
       Pressure         (GPa) =      20.419390         20.610958
  ** Time :            1.17000 ps :
     Properties:                   Instantaneous       Averaged
       Kinetic energy    (eV) =      10.271393         11.204767
       Potential energy  (eV) =     -79.077738        -80.390453
       Total energy      (eV) =     -68.806345        -69.185686
       Temperature       (K)  =    2563.321416       2796.253618
       Pressure         (GPa) =      21.805725         20.626275
  ** Time :            1.18500 ps :
     Properties:                   Instantaneous       Averaged
       Kinetic energy    (eV) =      11.168643         11.204310
       Potential energy  (eV) =     -77.832934        -80.358080
       Total energy      (eV) =     -66.664292        -69.153770
       Temperature       (K)  =    2787.238364       2796.139500
       Pressure         (GPa) =      23.358320         20.660858
  ** Time :            1.20000 ps :
     Properties:                   Instantaneous       Averaged
       Kinetic energy    (eV) =      12.683467         11.222800
       Potential energy  (eV) =     -80.491415        -80.359746
       Total energy      (eV) =     -67.807949        -69.136947
       Temperature       (K)  =    3165.276806       2800.753717
       Pressure         (GPa) =      21.316383         20.669052
  ** Time :            1.21500 ps :
     Properties:                   Instantaneous       Averaged
       Kinetic energy    (eV) =      11.531919         11.226616
       Potential energy  (eV) =     -82.308824        -80.383809
       Total energy      (eV) =     -70.776905        -69.157193
       Temperature       (K)  =    2877.897420       2801.706108
       Pressure         (GPa) =      19.418154         20.653609
  ** Time :            1.23000 ps :
     Properties:                   Instantaneous       Averaged
       Kinetic energy    (eV) =      10.624966         11.219279
       Potential energy  (eV) =     -81.074284        -80.392230
       Total energy      (eV) =     -70.449318        -69.172951
       Temperature       (K)  =    2651.558710       2799.875042
       Pressure         (GPa) =      20.417140         20.650725
  ** Time :            1.24500 ps :
     Properties:                   Instantaneous       Averaged
       Kinetic energy    (eV) =      11.794755         11.226212
       Potential energy  (eV) =     -80.891951        -80.398250
       Total energy      (eV) =     -69.097196        -69.172038
       Temperature       (K)  =    2943.490531       2801.605349
       Pressure         (GPa) =      20.708478         20.651421
  ** Time :            1.26000 ps :
     Properties:                   Instantaneous       Averaged
       Kinetic energy    (eV) =      12.193770         11.237731
       Potential energy  (eV) =     -82.649274        -80.425048
       Total energy      (eV) =     -70.455505        -69.187317
       Temperature       (K)  =    3043.068332       2804.479909
       Pressure         (GPa) =      18.964753         20.631341
  ** Time :            1.27500 ps :
     Properties:                   Instantaneous       Averaged
       Kinetic energy    (eV) =      11.280493         11.238234
       Potential energy  (eV) =     -83.257654        -80.458373
       Total energy      (eV) =     -71.977162        -69.220139
       Temperature       (K)  =    2815.151553       2804.605458
       Pressure         (GPa) =      18.189950         20.602619
  ** Time :            1.29000 ps :
     Properties:                   Instantaneous       Averaged
       Kinetic energy    (eV) =      10.251457         11.226760
       Potential energy  (eV) =     -81.387262        -80.469174
       Total energy      (eV) =     -71.135805        -69.242414
       Temperature       (K)  =    2558.346264       2801.741979
       Pressure         (GPa) =      19.898120         20.594427
  ** Time :            1.30500 ps :
     Properties:                   Instantaneous       Averaged
       Kinetic energy    (eV) =      10.972410         11.223836
       Potential energy  (eV) =     -79.737200        -80.460761
       Total energy      (eV) =     -68.764790        -69.236924
       Temperature       (K)  =    2738.266753       2801.012378
       Pressure         (GPa) =      21.829716         20.608626
  ** Time :            1.32000 ps :
     Properties:                   Instantaneous       Averaged
       Kinetic energy    (eV) =      11.108965         11.222531
       Potential energy  (eV) =     -79.613424        -80.451132
       Total energy      (eV) =     -68.504459        -69.228601
       Temperature       (K)  =    2772.345320       2800.686616
       Pressure         (GPa) =      22.498343         20.630100
  ** Time :            1.33500 ps :
     Properties:                   Instantaneous       Averaged
       Kinetic energy    (eV) =      11.273263         11.223101
       Potential energy  (eV) =     -78.883869        -80.433522
       Total energy      (eV) =     -67.610606        -69.210421
       Temperature       (K)  =    2813.347246       2800.828870
       Pressure         (GPa) =      23.431793         20.661580
  ** Time :            1.35000 ps :
     Properties:                   Instantaneous       Averaged
       Kinetic energy    (eV) =      11.571425         11.226971
       Potential energy  (eV) =     -79.142274        -80.419175
       Total energy      (eV) =     -67.570849        -69.192204
       Temperature       (K)  =    2887.756449       2801.794732
       Pressure         (GPa) =      23.021223         20.687798
  ** Time :            1.36500 ps :
     Properties:                   Instantaneous       Averaged
       Kinetic energy    (eV) =      11.398958         11.228861
       Potential energy  (eV) =     -79.258408        -80.406419
       Total energy      (eV) =     -67.859450        -69.177558
       Temperature       (K)  =    2844.715673       2802.266391
       Pressure         (GPa) =      22.356145         20.706132
  ** Time :            1.38000 ps :
     Properties:                   Instantaneous       Averaged
       Kinetic energy    (eV) =      10.978152         11.226136
       Potential energy  (eV) =     -79.230804        -80.393641
       Total energy      (eV) =     -68.252652        -69.167505
       Temperature       (K)  =    2739.699746       2801.586319
       Pressure         (GPa) =      22.115280         20.721448
  ** Time :            1.39500 ps :
     Properties:                   Instantaneous       Averaged
       Kinetic energy    (eV) =      10.744135         11.220953
       Potential energy  (eV) =     -77.884048        -80.366656
       Total energy      (eV) =     -67.139913        -69.145703
       Temperature       (K)  =    2681.298482       2800.292901
       Pressure         (GPa) =      23.198639         20.748085
  ** Time :            1.41000 ps :
     Properties:                   Instantaneous       Averaged
       Kinetic energy    (eV) =      12.336393         11.232819
       Potential energy  (eV) =     -79.543989        -80.357904
       Total energy      (eV) =     -67.207596        -69.125085
       Temperature       (K)  =    3078.661348       2803.254268
       Pressure         (GPa) =      22.014817         20.761561
  ** Time :            1.42500 ps :
     Properties:                   Instantaneous       Averaged
       Kinetic energy    (eV) =      11.531092         11.235959
       Potential energy  (eV) =     -80.742899        -80.361957
       Total energy      (eV) =     -69.211806        -69.125997
       Temperature       (K)  =    2877.690953       2804.037812
       Pressure         (GPa) =      20.654533         20.760434
  ** Time :            1.44000 ps :
     Properties:                   Instantaneous       Averaged
       Kinetic energy    (eV) =      11.837195         11.242222
       Potential energy  (eV) =     -81.601150        -80.374865
       Total energy      (eV) =     -69.763956        -69.132643
       Temperature       (K)  =    2954.081673       2805.600769
       Pressure         (GPa) =      19.685077         20.749232
  ** Time :            1.45500 ps :
     Properties:                   Instantaneous       Averaged
       Kinetic energy    (eV) =      11.160528         11.241380
       Potential energy  (eV) =     -82.007271        -80.391694
       Total energy      (eV) =     -70.846744        -69.150314
       Temperature       (K)  =    2785.213194       2805.390588
       Pressure         (GPa) =      19.028689         20.731495
  ** Time :            1.47000 ps :
     Properties:                   Instantaneous       Averaged
       Kinetic energy    (eV) =      11.063660         11.239566
       Potential energy  (eV) =     -81.224797        -80.400195
       Total energy      (eV) =     -70.161138        -69.160629
       Temperature       (K)  =    2761.038835       2804.938019
       Pressure         (GPa) =      19.796206         20.721951
  ** Time :            1.48500 ps :
     Properties:                   Instantaneous       Averaged
       Kinetic energy    (eV) =      11.003104         11.237178
       Potential energy  (eV) =     -81.015720        -80.406412
       Total energy      (eV) =     -70.012616        -69.169234
       Temperature       (K)  =    2745.926559       2804.341943
       Pressure         (GPa) =      20.226695         20.716949
  ** Time :            1.50000 ps :
     Properties:                   Instantaneous       Averaged
       Kinetic energy    (eV) =      11.068587         11.235492
       Potential energy  (eV) =     -80.126767        -80.403616
       Total energy      (eV) =     -69.058180        -69.168124
       Temperature       (K)  =    2762.268590       2803.921210
       Pressure         (GPa) =      21.083127         20.720610
  ** Time :            1.51500 ps :
     Properties:                   Instantaneous       Averaged
       Kinetic energy    (eV) =      11.798247         11.241064
       Potential energy  (eV) =     -80.734214        -80.406889
       Total energy      (eV) =     -68.935967        -69.165825
       Temperature       (K)  =    2944.361872       2805.311711
       Pressure         (GPa) =      20.569319         20.719112
  ** Time :            1.53000 ps :
     Properties:                   Instantaneous       Averaged
       Kinetic energy    (eV) =      11.283747         11.241482
       Potential energy  (eV) =     -81.162284        -80.414295
       Total energy      (eV) =     -69.878537        -69.172813
       Temperature       (K)  =    2815.963800       2805.416144
       Pressure         (GPa) =      20.038069         20.712436
  ** Time :            1.54500 ps :
     Properties:                   Instantaneous       Averaged
       Kinetic energy    (eV) =      10.191567         11.231289
       Potential energy  (eV) =     -79.446313        -80.404897
       Total energy      (eV) =     -69.254746        -69.173608
       Temperature       (K)  =    2543.399983       2802.872297
       Pressure         (GPa) =      21.688154         20.721909
  ** Time :            1.56000 ps :
     Properties:                   Instantaneous       Averaged
       Kinetic energy    (eV) =      10.877782         11.227890
       Potential energy  (eV) =     -77.741919        -80.379291
       Total energy      (eV) =     -66.864137        -69.151402
       Temperature       (K)  =    2714.651382       2802.024019
       Pressure         (GPa) =      23.779605         20.751309
  ** Time :            1.57500 ps :
     Properties:                   Instantaneous       Averaged
       Kinetic energy    (eV) =      11.789472         11.233238
       Potential energy  (eV) =     -78.361086        -80.360070
       Total energy      (eV) =     -66.571614        -69.126832
       Temperature       (K)  =    2942.172079       2803.358763
       Pressure         (GPa) =      23.519677         20.777675
  ** Time :            1.59000 ps :
     Properties:                   Instantaneous       Averaged
       Kinetic energy    (eV) =      11.565170         11.236370
       Potential energy  (eV) =     -79.451531        -80.351499
       Total energy      (eV) =     -67.886361        -69.115130
       Temperature       (K)  =    2886.195519       2804.140242
       Pressure         (GPa) =      22.342564         20.792438
  ** Time :            1.60500 ps :
     Properties:                   Instantaneous       Averaged
       Kinetic energy    (eV) =      10.866908         11.232917
       Potential energy  (eV) =     -78.942929        -80.338335
       Total energy      (eV) =     -68.076022        -69.105418
       Temperature       (K)  =    2711.937627       2803.278535
       Pressure         (GPa) =      22.551685         20.808880
  ** Time :            1.62000 ps :
     Properties:                   Instantaneous       Averaged
       Kinetic energy    (eV) =      11.522377         11.235597
       Potential energy  (eV) =     -79.092383        -80.326799
       Total energy      (eV) =     -67.570005        -69.091202
       Temperature       (K)  =    2875.516061       2803.947401
       Pressure         (GPa) =      22.576759         20.825249
  ** Time :            1.63500 ps :
     Properties:                   Instantaneous       Averaged
       Kinetic energy    (eV) =      10.742569         11.231074
       Potential energy  (eV) =     -78.785456        -80.312658
       Total energy      (eV) =     -68.042888        -69.081584
       Temperature       (K)  =    2680.907640       2802.818596
       Pressure         (GPa) =      22.540541         20.840985
  ** Time :            1.65000 ps :
     Properties:                   Instantaneous       Averaged
       Kinetic energy    (eV) =      11.664076         11.235010
       Potential energy  (eV) =     -78.846179        -80.299326
       Total energy      (eV) =     -67.182102        -69.064316
       Temperature       (K)  =    2910.878434       2803.800958
       Pressure         (GPa) =      22.285969         20.854122
  ** Time :            1.66500 ps :
     Properties:                   Instantaneous       Averaged
       Kinetic energy    (eV) =      11.985336         11.241770
       Potential energy  (eV) =     -80.418131        -80.300396
       Total energy      (eV) =     -68.432795        -69.058627
       Temperature       (K)  =    2991.051764       2805.487902
       Pressure         (GPa) =      20.689772         20.852641
  ** Time :            1.68000 ps :
     Properties:                   Instantaneous       Averaged
       Kinetic energy    (eV) =      12.018543         11.248705
       Potential energy  (eV) =     -82.002522        -80.315594
       Total energy      (eV) =     -69.983979        -69.066889
       Temperature       (K)  =    2999.338905       2807.218715
       Pressure         (GPa) =      19.104529         20.837033
  ** Time :            1.69500 ps :
     Properties:                   Instantaneous       Averaged
       Kinetic energy    (eV) =      11.184694         11.248139
       Potential energy  (eV) =     -82.485920        -80.334800
       Total energy      (eV) =     -71.301227        -69.086662
       Temperature       (K)  =    2791.244065       2807.077346
       Pressure         (GPa) =      18.639791         20.817588
  ** Time :            1.71000 ps :
     Properties:                   Instantaneous       Averaged
       Kinetic energy    (eV) =      11.108913         11.246918
       Potential energy  (eV) =     -81.617174        -80.346049
       Total energy      (eV) =     -70.508261        -69.099132
       Temperature       (K)  =    2772.332294       2806.772565
       Pressure         (GPa) =      19.622973         20.807109
  ** Time :            1.72500 ps :
     Properties:                   Instantaneous       Averaged
       Kinetic energy    (eV) =      11.538188         11.249450
       Potential energy  (eV) =     -81.996484        -80.360401
       Total energy      (eV) =     -70.458295        -69.110951
       Temperature       (K)  =    2879.461942       2807.404646
       Pressure         (GPa) =      19.412882         20.794985
  ** Time :            1.74000 ps :
     Properties:                   Instantaneous       Averaged
       Kinetic energy    (eV) =      10.938717         11.246772
       Potential energy  (eV) =     -81.438709        -80.369697
       Total energy      (eV) =     -70.499991        -69.122925
       Temperature       (K)  =    2729.858394       2806.736144
       Pressure         (GPa) =      19.699707         20.785543
  ** Time :            1.75500 ps :
     Properties:                   Instantaneous       Averaged
       Kinetic energy    (eV) =      10.979456         11.244487
       Potential energy  (eV) =     -80.262350        -80.368779
       Total energy      (eV) =     -69.282894        -69.124292
       Temperature       (K)  =    2740.025104       2806.165964
       Pressure         (GPa) =      20.738030         20.785137
  ** Time :            1.77000 ps :
     Properties:                   Instantaneous       Averaged
       Kinetic energy    (eV) =      11.476605         11.246454
       Potential energy  (eV) =     -80.379869        -80.368873
       Total energy      (eV) =     -68.903265        -69.122419
       Temperature       (K)  =    2864.093172       2806.656873
       Pressure         (GPa) =      20.705012         20.784458
  ** Time :            1.78500 ps :
     Properties:                   Instantaneous       Averaged
       Kinetic energy    (eV) =      10.601750         11.241036
       Potential energy  (eV) =     -79.527386        -80.361802
       Total energy      (eV) =     -68.925636        -69.120766
       Temperature       (K)  =    2645.765078       2805.304841
       Pressure         (GPa) =      21.170082         20.787699
  ** Time :            1.80000 ps :
     Properties:                   Instantaneous       Averaged
       Kinetic energy    (eV) =      10.869536         11.237940
       Potential energy  (eV) =     -78.820205        -80.348955
       Total energy      (eV) =     -67.950670        -69.111015
       Temperature       (K)  =    2712.593406       2804.532246
       Pressure         (GPa) =      22.013215         20.797911
  ** Time :            1.81500 ps :
     Properties:                   Instantaneous       Averaged
       Kinetic energy    (eV) =      10.599871         11.232667
       Potential energy  (eV) =     -77.634924        -80.326525
       Total energy      (eV) =     -67.035052        -69.093858
       Temperature       (K)  =    2645.296113       2803.216245
       Pressure         (GPa) =      23.382483         20.819272
  ** Time :            1.83000 ps :
     Properties:                   Instantaneous       Averaged
       Kinetic energy    (eV) =      10.909046         11.230014
       Potential energy  (eV) =     -77.025034        -80.299464
       Total energy      (eV) =     -66.115988        -69.069449
       Temperature       (K)  =    2722.453638       2802.554256
       Pressure         (GPa) =      24.311685         20.847898
  ** Time :            1.84500 ps :
     Properties:                   Instantaneous       Averaged
       Kinetic energy    (eV) =      11.269792         11.230338
       Potential energy  (eV) =     -77.126868        -80.273670
       Total energy      (eV) =     -65.857076        -69.043332
       Temperature       (K)  =    2812.481111       2802.634962
       Pressure         (GPa) =      24.416381         20.876910
  ** Time :            1.86000 ps :
     Properties:                   Instantaneous       Averaged
       Kinetic energy    (eV) =      11.730108         11.234368
       Potential energy  (eV) =     -78.067428        -80.255878
       Total energy      (eV) =     -66.337320        -69.021510
       Temperature       (K)  =    2927.357283       2803.640787
       Pressure         (GPa) =      23.681772         20.899530
  ** Time :            1.87500 ps :
     Properties:                   Instantaneous       Averaged
       Kinetic energy    (eV) =      11.298473         11.234881
       Potential energy  (eV) =     -78.998599        -80.245820
       Total energy      (eV) =     -67.700126        -69.010939
       Temperature       (K)  =    2819.638814       2803.768772
       Pressure         (GPa) =      22.730187         20.914175
  ** Time :            1.89000 ps :
     Properties:                   Instantaneous       Averaged
       Kinetic energy    (eV) =      11.495676         11.236951
       Potential energy  (eV) =     -78.900300        -80.235141
       Total energy      (eV) =     -67.404624        -68.998190
       Temperature       (K)  =    2868.852496       2804.285309
       Pressure         (GPa) =      22.467945         20.926507
  ** Time :            1.90500 ps :
     Properties:                   Instantaneous       Averaged
       Kinetic energy    (eV) =      12.298670         11.245311
       Potential energy  (eV) =     -81.793890        -80.247415
       Total energy      (eV) =     -69.495220        -69.002104
       Temperature       (K)  =    3069.247161       2806.371623
       Pressure         (GPa) =      19.655283         20.916497
  ** Time :            1.92000 ps :
     Properties:                   Instantaneous       Averaged
       Kinetic energy    (eV) =      11.012877         11.243495
       Potential energy  (eV) =     -82.002245        -80.261124
       Total energy      (eV) =     -70.989368        -69.017629
       Temperature       (K)  =    2748.365490       2805.918450
       Pressure         (GPa) =      18.955595         20.901177
  ** Time :            1.93500 ps :
     Properties:                   Instantaneous       Averaged
       Kinetic energy    (eV) =      11.501221         11.245493
       Potential energy  (eV) =     -81.482447        -80.270592
       Total energy      (eV) =     -69.981226        -69.025099
       Temperature       (K)  =    2870.236416       2806.417039
       Pressure         (GPa) =      19.354244         20.889186
  ** Time :            1.95000 ps :
     Properties:                   Instantaneous       Averaged
       Kinetic energy    (eV) =      11.807538         11.249816
       Potential energy  (eV) =     -82.810276        -80.290128
       Total energy      (eV) =     -71.002739        -69.040312
       Temperature       (K)  =    2946.680491       2807.495989
       Pressure         (GPa) =      18.224246         20.868686
  ** Time :            1.96500 ps :
     Properties:                   Instantaneous       Averaged
       Kinetic energy    (eV) =      10.662024         11.245329
       Potential energy  (eV) =     -82.053477        -80.303589
       Total energy      (eV) =     -71.391453        -69.058259
       Temperature       (K)  =    2660.807059       2806.376226
       Pressure         (GPa) =      18.932878         20.853909
  ** Time :            1.98000 ps :
     Properties:                   Instantaneous       Averaged
       Kinetic energy    (eV) =      10.268139         11.237926
       Potential energy  (eV) =     -79.821720        -80.299938
       Total energy      (eV) =     -69.553581        -69.062012
       Temperature       (K)  =    2562.509239       2804.528749
       Pressure         (GPa) =      21.159013         20.856220
  ** Time :            1.99500 ps :
     Properties:                   Instantaneous       Averaged
       Kinetic energy    (eV) =      11.634875         11.240911
       Potential energy  (eV) =     -79.288864        -80.292336
       Total energy      (eV) =     -67.653989        -69.051425
       Temperature       (K)  =    2903.590851       2805.273576
       Pressure         (GPa) =      21.915145         20.864182
  ** Time :            2.01000 ps :
     Properties:                   Instantaneous       Averaged
       Kinetic energy    (eV) =      11.855212         11.245495
       Potential energy  (eV) =     -80.623636        -80.294808
       Total energy      (eV) =     -68.768424        -69.049313
       Temperature       (K)  =    2958.578046       2806.417640
       Pressure         (GPa) =      20.642543         20.862528
  ** Time :            2.02500 ps :
     Properties:                   Instantaneous       Averaged
       Kinetic energy    (eV) =      11.009124         11.243744
       Potential energy  (eV) =     -80.365050        -80.295329
       Total energy      (eV) =     -69.355926        -69.051584
       Temperature       (K)  =    2747.428960       2805.980686
       Pressure         (GPa) =      20.720854         20.861479
  ** Time :            2.04000 ps :
     Properties:                   Instantaneous       Averaged
       Kinetic energy    (eV) =      10.259962         11.236511
       Potential energy  (eV) =     -78.164597        -80.279662
       Total energy      (eV) =     -67.904635        -69.043151
       Temperature       (K)  =    2560.468589       2804.175450
       Pressure         (GPa) =      22.675170         20.874815
  ** Time :            2.05500 ps :
     Properties:                   Instantaneous       Averaged
       Kinetic energy    (eV) =      11.515810         11.238549
       Potential energy  (eV) =     -77.840581        -80.261858
       Total energy      (eV) =     -66.324771        -69.023309
       Temperature       (K)  =    2873.877182       2804.684222
       Pressure         (GPa) =      23.579155         20.894554
  ** Time :            2.07000 ps :
     Properties:                   Instantaneous       Averaged
       Kinetic energy    (eV) =      11.251855         11.238646
       Potential energy  (eV) =     -77.799665        -80.244016
       Total energy      (eV) =     -66.547809        -69.005370
       Temperature       (K)  =    2808.004877       2804.708285
       Pressure         (GPa) =      23.839278         20.915893
  ** Time :            2.08500 ps :
     Properties:                   Instantaneous       Averaged
       Kinetic energy    (eV) =      11.218489         11.238501
       Potential energy  (eV) =     -77.436679        -80.223819
       Total energy      (eV) =     -66.218190        -68.985319
       Temperature       (K)  =    2799.677960       2804.672096
       Pressure         (GPa) =      24.289984         20.940167
  ** Time :            2.10000 ps :
     Properties:                   Instantaneous       Averaged
       Kinetic energy    (eV) =      11.016775         11.236917
       Potential energy  (eV) =     -76.736449        -80.198910
       Total energy      (eV) =     -65.719674        -68.961993
       Temperature       (K)  =    2749.338355       2804.276854
       Pressure         (GPa) =      25.020606         20.969313
  ** Time :            2.11500 ps :
     Properties:                   Instantaneous       Averaged
       Kinetic energy    (eV) =      11.088186         11.235862
       Potential energy  (eV) =     -75.980474        -80.168992
       Total energy      (eV) =     -64.892288        -68.933130
       Temperature       (K)  =    2767.159683       2804.013612
       Pressure         (GPa) =      26.002549         21.005010
  ** Time :            2.13000 ps :
     Properties:                   Instantaneous       Averaged
       Kinetic energy    (eV) =      11.220291         11.235753
       Potential energy  (eV) =     -75.672269        -80.137325
       Total energy      (eV) =     -64.451978        -68.901572
       Temperature       (K)  =    2800.127573       2803.986246
       Pressure         (GPa) =      26.576603         21.044246
  ** Time :            2.14500 ps :
     Properties:                   Instantaneous       Averaged
       Kinetic energy    (eV) =      11.472232         11.237406
       Potential energy  (eV) =     -76.128542        -80.109291
       Total energy      (eV) =     -64.656310        -68.871885
       Temperature       (K)  =    2863.001807       2804.398942
       Pressure         (GPa) =      26.280822         21.080866
  ** Time :            2.16000 ps :
     Properties:                   Instantaneous       Averaged
       Kinetic energy    (eV) =      11.199294         11.237142
       Potential energy  (eV) =     -76.194769        -80.082107
       Total energy      (eV) =     -64.995475        -68.844965
       Temperature       (K)  =    2794.887699       2804.332892
       Pressure         (GPa) =      25.903112         21.114354
  ** Time :            2.17500 ps :
     Properties:                   Instantaneous       Averaged
       Kinetic energy    (eV) =      11.934903         11.241954
       Potential energy  (eV) =     -77.062345        -80.061281
       Total energy      (eV) =     -65.127442        -68.819327
       Temperature       (K)  =    2978.465652       2805.533807
       Pressure         (GPa) =      24.777092         21.139614
  ** Time :            2.19000 ps :
     Properties:                   Instantaneous       Averaged
       Kinetic energy    (eV) =      11.667008         11.244865
       Potential energy  (eV) =     -78.236521        -80.048783
       Total energy      (eV) =     -66.569513        -68.803918
       Temperature       (K)  =    2911.610043       2806.260357
       Pressure         (GPa) =      23.131824         21.153259
  ** Time :            2.20500 ps :
     Properties:                   Instantaneous       Averaged
       Kinetic energy    (eV) =      11.388833         11.245844
       Potential energy  (eV) =     -78.226193        -80.036384
       Total energy      (eV) =     -66.837360        -68.790540
       Temperature       (K)  =    2842.188865       2806.504768
       Pressure         (GPa) =      22.766145         21.164231
  ** Time :            2.22000 ps :
     Properties:                   Instantaneous       Averaged
       Kinetic energy    (eV) =      11.432076         11.247103
       Potential energy  (eV) =     -78.814897        -80.028131
       Total energy      (eV) =     -67.382821        -68.781028
       Temperature       (K)  =    2852.980498       2806.818794
       Pressure         (GPa) =      22.371531         21.172388
  ** Time :            2.23500 ps :
     Properties:                   Instantaneous       Averaged
       Kinetic energy    (eV) =      11.304307         11.247487
       Potential energy  (eV) =     -78.703150        -80.019238
       Total energy      (eV) =     -67.398843        -68.771752
       Temperature       (K)  =    2821.094648       2806.914605
       Pressure         (GPa) =      22.778576         21.183168
  ** Time :            2.25000 ps :
     Properties:                   Instantaneous       Averaged
       Kinetic energy    (eV) =      11.287233         11.247752
       Potential energy  (eV) =     -78.700818        -80.010449
       Total energy      (eV) =     -67.413585        -68.762697
       Temperature       (K)  =    2816.833707       2806.980732
       Pressure         (GPa) =      22.933234         21.194835
  ** Time :            2.26500 ps :
     Properties:                   Instantaneous       Averaged
       Kinetic energy    (eV) =      11.092123         11.246721
       Potential energy  (eV) =     -78.421869        -79.999928
       Total energy      (eV) =     -67.329746        -68.753208
       Temperature       (K)  =    2768.142167       2806.723523
       Pressure         (GPa) =      23.009924         21.206856
  ** Time :            2.28000 ps :
     Properties:                   Instantaneous       Averaged
       Kinetic energy    (eV) =      10.974499         11.244930
       Potential energy  (eV) =     -77.739783        -79.985059
       Total energy      (eV) =     -66.765284        -68.740129
       Temperature       (K)  =    2738.788004       2806.276579
       Pressure         (GPa) =      23.471892         21.221757
  ** Time :            2.29500 ps :
     Properties:                   Instantaneous       Averaged
       Kinetic energy    (eV) =      11.411275         11.246017
       Potential energy  (eV) =     -78.041691        -79.972357
       Total energy      (eV) =     -66.630416        -68.726340
       Temperature       (K)  =    2847.789379       2806.547904
       Pressure         (GPa) =      23.411686         21.236071
  ** Time :            2.31000 ps :
     Properties:                   Instantaneous       Averaged
       Kinetic energy    (eV) =      11.033278         11.244636
       Potential energy  (eV) =     -77.955728        -79.959262
       Total energy      (eV) =     -66.922450        -68.714627
       Temperature       (K)  =    2753.456874       2806.203157
       Pressure         (GPa) =      23.715811         21.252173
  ** Time :            2.32500 ps :
     Properties:                   Instantaneous       Averaged
       Kinetic energy    (eV) =      10.864927         11.242186
       Potential energy  (eV) =     -77.035852        -79.940402
       Total energy      (eV) =     -66.170925        -68.698216
       Temperature       (K)  =    2711.443170       2805.591803
       Pressure         (GPa) =      24.912270         21.275786
  ** Time :            2.34000 ps :
     Properties:                   Instantaneous       Averaged
       Kinetic energy    (eV) =      11.488000         11.243762
       Potential energy  (eV) =     -77.133906        -79.922411
       Total energy      (eV) =     -65.645906        -68.678649
       Temperature       (K)  =    2866.936978       2805.985041
       Pressure         (GPa) =      25.124832         21.300460
  ** Time :            2.35500 ps :
     Properties:                   Instantaneous       Averaged
       Kinetic energy    (eV) =      11.449458         11.245072
       Potential energy  (eV) =     -77.551190        -79.907308
       Total energy      (eV) =     -66.101732        -68.662236
       Temperature       (K)  =    2857.318529       2806.312006
       Pressure         (GPa) =      24.522196         21.320980
  ** Time :            2.37000 ps :
     Properties:                   Instantaneous       Averaged
       Kinetic energy    (eV) =      11.581894         11.247204
       Potential energy  (eV) =     -77.898741        -79.894596
       Total energy      (eV) =     -66.316847        -68.647392
       Temperature       (K)  =    2890.369103       2806.844013
       Pressure         (GPa) =      23.816378         21.336774
  ** Time :            2.38500 ps :
     Properties:                   Instantaneous       Averaged
       Kinetic energy    (eV) =      11.456440         11.248520
       Potential energy  (eV) =     -78.278629        -79.884432
       Total energy      (eV) =     -66.822189        -68.635912
       Temperature       (K)  =    2859.060833       2807.172420
       Pressure         (GPa) =      23.036084         21.347462
  ** Time :            2.40000 ps :
     Properties:                   Instantaneous       Averaged
       Kinetic energy    (eV) =      10.932365         11.246544
       Potential energy  (eV) =     -77.766794        -79.871197
       Total energy      (eV) =     -66.834429        -68.624653
       Temperature       (K)  =    2728.272980       2806.679299
       Pressure         (GPa) =      23.308769         21.359720
  ** Time :            2.41500 ps :
     Properties:                   Instantaneous       Averaged
       Kinetic energy    (eV) =      11.058088         11.245373
       Potential energy  (eV) =     -76.866689        -79.852535
       Total energy      (eV) =     -65.808601        -68.607162
       Temperature       (K)  =    2759.648497       2806.387182
       Pressure         (GPa) =      24.482207         21.379114
  ** Time :            2.43000 ps :
     Properties:                   Instantaneous       Averaged
       Kinetic energy    (eV) =      11.900394         11.249417
       Potential energy  (eV) =     -77.567152        -79.838428
       Total energy      (eV) =     -65.666758        -68.589012
       Temperature       (K)  =    2969.853679       2807.396235
       Pressure         (GPa) =      24.402589         21.397777
  ** Time :            2.44500 ps :
     Properties:                   Instantaneous       Averaged
       Kinetic energy    (eV) =      11.510078         11.251016
       Potential energy  (eV) =     -78.515127        -79.830310
       Total energy      (eV) =     -67.005049        -68.579294
       Temperature       (K)  =    2872.446775       2807.795318
       Pressure         (GPa) =      23.534847         21.410888
  ** Time :            2.46000 ps :
     Properties:                   Instantaneous       Averaged
       Kinetic energy    (eV) =      11.402215         11.251938
[...]
       Total energy      (eV) =     -68.428574        -68.510644
       Temperature       (K)  =    3026.035036       2764.684611
       Pressure         (GPa) =      20.575809         21.722156
  ** Time :            9.36000 ps :
     Properties:                   Instantaneous       Averaged
       Kinetic energy    (eV) =      11.613533         11.079126
       Potential energy  (eV) =     -80.196498        -79.589886
       Total energy      (eV) =     -68.582965        -68.510760
       Temperature       (K)  =    2898.264896       2764.898682
       Pressure         (GPa) =      20.973383         21.720956
  ** Time :            9.37500 ps :
     Properties:                   Instantaneous       Averaged
       Kinetic energy    (eV) =      11.190817         11.079305
       Potential energy  (eV) =     -79.698445        -79.590060
       Total energy      (eV) =     -68.507627        -68.510755
       Temperature       (K)  =    2792.772280       2764.943280
       Pressure         (GPa) =      21.585199         21.720739
  ** Time :            9.39000 ps :
     Properties:                   Instantaneous       Averaged
       Kinetic energy    (eV) =      11.035886         11.079236
       Potential energy  (eV) =     -79.606627        -79.590086
       Total energy      (eV) =     -68.570741        -68.510851
       Temperature       (K)  =    2754.107705       2764.925971
       Pressure         (GPa) =      21.733206         21.720758
  ** Time :            9.40500 ps :
     Properties:                   Instantaneous       Averaged
       Kinetic energy    (eV) =      11.420793         11.079780
       Potential energy  (eV) =     -79.872477        -79.590537
       Total energy      (eV) =     -68.451684        -68.510756
       Temperature       (K)  =    2850.164719       2765.061918
       Pressure         (GPa) =      21.298042         21.720084
  ** Time :            9.42000 ps :
     Properties:                   Instantaneous       Averaged
       Kinetic energy    (eV) =      12.292622         11.081712
       Potential energy  (eV) =     -80.981425        -79.592751
       Total energy      (eV) =     -68.688802        -68.511040
       Temperature       (K)  =    3067.737911       2765.543886
       Pressure         (GPa) =      20.243693         21.717733
  ** Time :            9.43500 ps :
     Properties:                   Instantaneous       Averaged
       Kinetic energy    (eV) =      11.211376         11.081918
       Potential energy  (eV) =     -79.919469        -79.593271
       Total energy      (eV) =     -68.708093        -68.511353
       Temperature       (K)  =    2797.902793       2765.595331
       Pressure         (GPa) =      21.092891         21.716740
  ** Time :            9.45000 ps :
     Properties:                   Instantaneous       Averaged
       Kinetic energy    (eV) =       9.276091         11.079051
       Potential energy  (eV) =     -77.548358        -79.590025
       Total energy      (eV) =     -68.272267        -68.510974
       Temperature       (K)  =    2314.934576       2764.879996
       Pressure         (GPa) =      22.983707         21.718751
  ** Time :            9.46500 ps :
     Properties:                   Instantaneous       Averaged
       Kinetic energy    (eV) =       9.705365         11.076874
       Potential energy  (eV) =     -78.427319        -79.588182
       Total energy      (eV) =     -68.721955        -68.511308
       Temperature       (K)  =    2422.063736       2764.336706
       Pressure         (GPa) =      22.331110         21.719721
  ** Time :            9.48000 ps :
     Properties:                   Instantaneous       Averaged
       Kinetic energy    (eV) =       9.611759         11.074556
       Potential energy  (eV) =     -78.232184        -79.586037
       Total energy      (eV) =     -68.620425        -68.511481
       Temperature       (K)  =    2398.703613       2763.758172
       Pressure         (GPa) =      22.271655         21.720595
  ** Time :            9.49500 ps :
     Properties:                   Instantaneous       Averaged
       Kinetic energy    (eV) =       9.729946         11.072432
       Potential energy  (eV) =     -78.071033        -79.583643
       Total energy      (eV) =     -68.341087        -68.511211
       Temperature       (K)  =    2428.198326       2763.228062
       Pressure         (GPa) =      22.179922         21.721320
  ** Time :            9.51000 ps :
     Properties:                   Instantaneous       Averaged
       Kinetic energy    (eV) =      12.214872         11.074234
       Potential energy  (eV) =     -80.906237        -79.585729
       Total energy      (eV) =     -68.691365        -68.511496
       Temperature       (K)  =    3048.334639       2763.677757
       Pressure         (GPa) =      19.646879         21.718048
  ** Time :            9.52500 ps :
     Properties:                   Instantaneous       Averaged
       Kinetic energy    (eV) =      13.174050         11.077541
       Potential energy  (eV) =     -81.911236        -79.589392
       Total energy      (eV) =     -68.737187        -68.511851
       Temperature       (K)  =    3287.706311       2764.502999
       Pressure         (GPa) =      18.718477         21.713325
  ** Time :            9.54000 ps :
     Properties:                   Instantaneous       Averaged
       Kinetic energy    (eV) =      11.411077         11.078065
       Potential energy  (eV) =     -79.789442        -79.589706
       Total energy      (eV) =     -68.378365        -68.511641
       Temperature       (K)  =    2847.740071       2764.633875
       Pressure         (GPa) =      20.475298         21.711378
  ** Time :            9.55500 ps :
     Properties:                   Instantaneous       Averaged
       Kinetic energy    (eV) =      10.972324         11.077899
       Potential energy  (eV) =     -79.382572        -79.589381
       Total energy      (eV) =     -68.410248        -68.511482
       Temperature       (K)  =    2738.245174       2764.592448
       Pressure         (GPa) =      21.069763         21.710371
  ** Time :            9.57000 ps :
     Properties:                   Instantaneous       Averaged
       Kinetic energy    (eV) =      11.445481         11.078475
       Potential energy  (eV) =     -80.095125        -79.590174
       Total energy      (eV) =     -68.649644        -68.511699
       Temperature       (K)  =    2856.325988       2764.736231
       Pressure         (GPa) =      21.007049         21.709268
  ** Time :            9.58500 ps :
     Properties:                   Instantaneous       Averaged
       Kinetic energy    (eV) =      10.400676         11.077415
       Potential energy  (eV) =     -78.874480        -79.589054
       Total energy      (eV) =     -68.473805        -68.511639
       Temperature       (K)  =    2595.585032       2764.471519
       Pressure         (GPa) =      22.462661         21.710448
  ** Time :            9.60000 ps :
     Properties:                   Instantaneous       Averaged
       Kinetic energy    (eV) =       9.600321         11.075107
       Potential energy  (eV) =     -77.992603        -79.586559
       Total energy      (eV) =     -68.392282        -68.511453
       Temperature       (K)  =    2395.849022       2763.895546
       Pressure         (GPa) =      23.503585         21.713249
  ** Time :            9.61500 ps :
     Properties:                   Instantaneous       Averaged
       Kinetic energy    (eV) =       9.952790         11.073356
       Potential energy  (eV) =     -78.437258        -79.584766
       Total energy      (eV) =     -68.484469        -68.511411
       Temperature       (K)  =    2483.810940       2763.458597
       Pressure         (GPa) =      23.235103         21.715623
  ** Time :            9.63000 ps :
     Properties:                   Instantaneous       Averaged
       Kinetic energy    (eV) =      10.463557         11.072406
       Potential energy  (eV) =     -78.947155        -79.583773
       Total energy      (eV) =     -68.483598        -68.511367
       Temperature       (K)  =    2611.277787       2763.221555
       Pressure         (GPa) =      22.666533         21.717105
  ** Time :            9.64500 ps :
     Properties:                   Instantaneous       Averaged
       Kinetic energy    (eV) =      10.788287         11.071964
       Potential energy  (eV) =     -79.240134        -79.583239
       Total energy      (eV) =     -68.451847        -68.511275
       Temperature       (K)  =    2692.316985       2763.111283
       Pressure         (GPa) =      22.268393         21.717962
  ** Time :            9.66000 ps :
     Properties:                   Instantaneous       Averaged
       Kinetic energy    (eV) =      11.487260         11.072609
       Potential energy  (eV) =     -79.945087        -79.583801
       Total energy      (eV) =     -68.457826        -68.511192
       Temperature       (K)  =    2866.752320       2763.272217
       Pressure         (GPa) =      21.678381         21.717901
  ** Time :            9.67500 ps :
     Properties:                   Instantaneous       Averaged
       Kinetic energy    (eV) =      11.994374         11.074038
       Potential energy  (eV) =     -80.641258        -79.585440
       Total energy      (eV) =     -68.646884        -68.511402
       Temperature       (K)  =    2993.307223       2763.628860
       Pressure         (GPa) =      21.191372         21.717084
  ** Time :            9.69000 ps :
     Properties:                   Instantaneous       Averaged
       Kinetic energy    (eV) =      10.457529         11.073084
       Potential energy  (eV) =     -78.921656        -79.584413
       Total energy      (eV) =     -68.464127        -68.511329
       Temperature       (K)  =    2609.773363       2763.390694
       Pressure         (GPa) =      22.464828         21.718242
  ** Time :            9.70500 ps :
     Properties:                   Instantaneous       Averaged
       Kinetic energy    (eV) =       9.672501         11.070919
       Potential energy  (eV) =     -78.044078        -79.582032
       Total energy      (eV) =     -68.371577        -68.511113
       Temperature       (K)  =    2413.862262       2762.850464
       Pressure         (GPa) =      22.945700         21.720139
  ** Time :            9.72000 ps :
     Properties:                   Instantaneous       Averaged
       Kinetic energy    (eV) =      10.410626         11.069900
       Potential energy  (eV) =     -78.967729        -79.581084
       Total energy      (eV) =     -68.557103        -68.511184
       Temperature       (K)  =    2598.068145       2762.596171
       Pressure         (GPa) =      22.093413         21.720715
  ** Time :            9.73500 ps :
     Properties:                   Instantaneous       Averaged
       Kinetic energy    (eV) =      10.442524         11.068933
       Potential energy  (eV) =     -79.015686        -79.580213
       Total energy      (eV) =     -68.573162        -68.511279
       Temperature       (K)  =    2606.028821       2762.354927
       Pressure         (GPa) =      22.001969         21.721148
  ** Time :            9.75000 ps :
     Properties:                   Instantaneous       Averaged
       Kinetic energy    (eV) =      10.006682         11.067299
       Potential energy  (eV) =     -78.425499        -79.578436
       Total energy      (eV) =     -68.418817        -68.511137
       Temperature       (K)  =    2497.260268       2761.947089
       Pressure         (GPa) =      22.444434         21.722261
  ** Time :            9.76500 ps :
     Properties:                   Instantaneous       Averaged
       Kinetic energy    (eV) =      10.302550         11.066124
       Potential energy  (eV) =     -78.853517        -79.577323
       Total energy      (eV) =     -68.550967        -68.511198
       Temperature       (K)  =    2571.096977       2761.653924
       Pressure         (GPa) =      22.095970         21.722835
  ** Time :            9.78000 ps :
     Properties:                   Instantaneous       Averaged
       Kinetic energy    (eV) =      10.707506         11.065574
       Potential energy  (eV) =     -79.181844        -79.576716
       Total energy      (eV) =     -68.474338        -68.511142
       Temperature       (K)  =    2672.157387       2761.516660
       Pressure         (GPa) =      21.721633         21.722833
  ** Time :            9.79500 ps :
     Properties:                   Instantaneous       Averaged
       Kinetic energy    (eV) =      10.799413         11.065167
       Potential energy  (eV) =     -79.343458        -79.576359
       Total energy      (eV) =     -68.544045        -68.511192
       Temperature       (K)  =    2695.093721       2761.414940
       Pressure         (GPa) =      21.513681         21.722513
  ** Time :            9.81000 ps :
     Properties:                   Instantaneous       Averaged
       Kinetic energy    (eV) =      10.263260         11.063940
       Potential energy  (eV) =     -78.801658        -79.575174
       Total energy      (eV) =     -68.538398        -68.511234
       Temperature       (K)  =    2561.291682       2761.108941
       Pressure         (GPa) =      21.997561         21.722934
  ** Time :            9.82500 ps :
     Properties:                   Instantaneous       Averaged
       Kinetic energy    (eV) =      10.147841         11.062542
       Potential energy  (eV) =     -78.386408        -79.573359
       Total energy      (eV) =     -68.238567        -68.510818
       Temperature       (K)  =    2532.487744       2760.759901
       Pressure         (GPa) =      22.335808         21.723869
  ** Time :            9.84000 ps :
     Properties:                   Instantaneous       Averaged
       Kinetic energy    (eV) =      11.982571         11.063944
       Potential energy  (eV) =     -80.741656        -79.575140
       Total energy      (eV) =     -68.759085        -68.511196
       Temperature       (K)  =    2990.361728       2761.109904
       Pressure         (GPa) =      20.525262         21.722042
  ** Time :            9.85500 ps :
     Properties:                   Instantaneous       Averaged
       Kinetic energy    (eV) =      12.225303         11.065712
       Potential energy  (eV) =     -80.731550        -79.576900
       Total energy      (eV) =     -68.506247        -68.511188
       Temperature       (K)  =    3050.937739       2761.551042
       Pressure         (GPa) =      20.465805         21.720130
  ** Time :            9.87000 ps :
     Properties:                   Instantaneous       Averaged
       Kinetic energy    (eV) =      11.853266         11.066909
       Potential energy  (eV) =     -80.408754        -79.578165
       Total energy      (eV) =     -68.555488        -68.511256
       Temperature       (K)  =    2958.092429       2761.849737
       Pressure         (GPa) =      20.825240         21.718770
  ** Time :            9.88500 ps :
     Properties:                   Instantaneous       Averaged
       Kinetic energy    (eV) =      11.003659         11.066813
       Potential energy  (eV) =     -79.639990        -79.578258
       Total energy      (eV) =     -68.636331        -68.511446
       Temperature       (K)  =    2746.065133       2761.825785
       Pressure         (GPa) =      21.513672         21.718459
  ** Time :            9.90000 ps :
     Properties:                   Instantaneous       Averaged
       Kinetic energy    (eV) =      10.062470         11.065291
       Potential energy  (eV) =     -78.594340        -79.576768
       Total energy      (eV) =     -68.531870        -68.511477
       Temperature       (K)  =    2511.182730       2761.446023
       Pressure         (GPa) =      22.379782         21.719461
  ** Time :            9.91500 ps :
     Properties:                   Instantaneous       Averaged
       Kinetic energy    (eV) =       9.942758         11.063593
       Potential energy  (eV) =     -78.600764        -79.575291
       Total energy      (eV) =     -68.658005        -68.511698
       Temperature       (K)  =    2481.307532       2761.022212
       Pressure         (GPa) =      22.355339         21.720423
  ** Time :            9.93000 ps :
     Properties:                   Instantaneous       Averaged
       Kinetic energy    (eV) =      10.118796         11.062166
       Potential energy  (eV) =     -78.554677        -79.573749
       Total energy      (eV) =     -68.435881        -68.511584
       Temperature       (K)  =    2525.239303       2760.666045
       Pressure         (GPa) =      22.385153         21.721427
  ** Time :            9.94500 ps :
     Properties:                   Instantaneous       Averaged
       Kinetic energy    (eV) =      11.355141         11.062608
       Potential energy  (eV) =     -79.892756        -79.574231
       Total energy      (eV) =     -68.537615        -68.511623
       Temperature       (K)  =    2833.780637       2760.776323
       Pressure         (GPa) =      21.536662         21.721148
  ** Time :            9.96000 ps :
     Properties:                   Instantaneous       Averaged
       Kinetic energy    (eV) =      12.108320         11.064182
       Potential energy  (eV) =     -80.646475        -79.575845
       Total energy      (eV) =     -68.538155        -68.511663
       Temperature       (K)  =    3021.743547       2761.169346
       Pressure         (GPa) =      20.936283         21.719966
  ** Time :            9.97500 ps :
     Properties:                   Instantaneous       Averaged
       Kinetic energy    (eV) =      12.150851         11.065817
       Potential energy  (eV) =     -80.642424        -79.577449
       Total energy      (eV) =     -68.491573        -68.511633
       Temperature       (K)  =    3032.357548       2761.577148
       Pressure         (GPa) =      20.842828         21.718647
  ** Time :            9.99000 ps :
     Properties:                   Instantaneous       Averaged
       Kinetic energy    (eV) =      11.481554         11.066441
       Potential energy  (eV) =     -80.064188        -79.578180
       Total energy      (eV) =     -68.582634        -68.511739
       Temperature       (K)  =    2865.328262       2761.732931
       Pressure         (GPa) =      21.174553         21.717830
  ** Time :           10.00500 ps :
     Properties:                   Instantaneous       Averaged
       Kinetic energy    (eV) =      10.629915         11.065786
       Potential energy  (eV) =     -78.966485        -79.577263
       Total energy      (eV) =     -68.336570        -68.511477
       Temperature       (K)  =    2652.793782       2761.569603
       Pressure         (GPa) =      21.761134         21.717895

  Peak dynamic memory used =       0.57 MB 


  Timing analysis for GULP :

--------------------------------------------------------------------------------
  Task / Subroutine                                          Time (Seconds)
--------------------------------------------------------------------------------
  Calculation of real space energy and derivatives                1.4160
  Calculation of many-body energy and derivatives                 0.7480
  Molecular dynamics - update of geometry                         0.0040
  Molecular dynamics - corrector                                  0.0040
--------------------------------------------------------------------------------
  Total CPU time                                                  2.4920
--------------------------------------------------------------------------------


  Dump file written as Recovery_2_3000_0.015.res                               
  GULP ASCII trajectory file written as Trajectories_2_3000_0.015.trg           


  Job Finished at 18:24.34 17th May        2018                               

