********************************************************************************
*                       GENERAL UTILITY LATTICE PROGRAM                        *
*                                 Julian Gale                                  *
*                       Curtin Institute for Computation                       *
*                           Department of Chemistry                            *
*                    Curtin University, Western Australia                      *
********************************************************************************
* Version = 5.0.0 * Last modified =  18th April 2018                           *
********************************************************************************
*  single       - perform a single point run                                   *
*  md           - perform molecular dynamics run                               *
*  conv         - constant volume calculation                                  *
********************************************************************************
* molecular dynamics of silver                                                 *
********************************************************************************


  Job Started  at 18:24.29 17th May        2018                               

  Number of CPUs =     1


  Total number of configurations input =   1

********************************************************************************
*  Input for Configuration =   1                                               *
********************************************************************************

  Formula = Ag32                                                        

  Number of irreducible atoms/shells =      32


  Total number atoms/shells =      32

  Dimensionality = 3               :  Bulk   



  Supercell dimensions :  x =   2  y =   2  z =   2

  Cartesian lattice vectors (Angstroms) :

        8.170000    0.000000    0.000000
        0.000000    8.170000    0.000000
        0.000000    0.000000    8.170000

  Cell parameters (Angstroms/Degrees):

  a =       8.1700    alpha =  90.0000
  b =       8.1700    beta  =  90.0000
  c =       8.1700    gamma =  90.0000

  Initial cell volume =         545.338513 Angs**3

  Temperature of configuration =  3000.     K 

  Pressure of configuration =         0.000 GPa 

  Fractional coordinates of asymmetric unit :

--------------------------------------------------------------------------------
   No.  Atomic       x           y          z         Charge      Occupancy
        Label      (Frac)      (Frac)     (Frac)        (e)         (Frac)  
--------------------------------------------------------------------------------
      1 Ag    c    0.000000 *  0.000000 *  0.000000 *   0.00000    1.000000    
      2 Ag    c    0.000000 *  0.000000 *  0.500000 *   0.00000    1.000000    
      3 Ag    c    0.000000 *  0.500000 *  0.000000 *   0.00000    1.000000    
      4 Ag    c    0.000000 *  0.500000 *  0.500000 *   0.00000    1.000000    
      5 Ag    c    0.500000 *  0.000000 *  0.000000 *   0.00000    1.000000    
      6 Ag    c    0.500000 *  0.000000 *  0.500000 *   0.00000    1.000000    
      7 Ag    c    0.500000 *  0.500000 *  0.000000 *   0.00000    1.000000    
      8 Ag    c    0.500000 *  0.500000 *  0.500000 *   0.00000    1.000000    
      9 Ag    c    0.000000 *  0.250000 *  0.250000 *   0.00000    1.000000    
     10 Ag    c    0.000000 *  0.250000 *  0.750000 *   0.00000    1.000000    
     11 Ag    c    0.000000 *  0.750000 *  0.250000 *   0.00000    1.000000    
     12 Ag    c    0.000000 *  0.750000 *  0.750000 *   0.00000    1.000000    
     13 Ag    c    0.500000 *  0.250000 *  0.250000 *   0.00000    1.000000    
     14 Ag    c    0.500000 *  0.250000 *  0.750000 *   0.00000    1.000000    
     15 Ag    c    0.500000 *  0.750000 *  0.250000 *   0.00000    1.000000    
     16 Ag    c    0.500000 *  0.750000 *  0.750000 *   0.00000    1.000000    
     17 Ag    c    0.250000 *  0.000000 *  0.250000 *   0.00000    1.000000    
     18 Ag    c    0.250000 *  0.000000 *  0.750000 *   0.00000    1.000000    
     19 Ag    c    0.250000 *  0.500000 *  0.250000 *   0.00000    1.000000    
     20 Ag    c    0.250000 *  0.500000 *  0.750000 *   0.00000    1.000000    
     21 Ag    c    0.750000 *  0.000000 *  0.250000 *   0.00000    1.000000    
     22 Ag    c    0.750000 *  0.000000 *  0.750000 *   0.00000    1.000000    
     23 Ag    c    0.750000 *  0.500000 *  0.250000 *   0.00000    1.000000    
     24 Ag    c    0.750000 *  0.500000 *  0.750000 *   0.00000    1.000000    
     25 Ag    c    0.250000 *  0.250000 *  0.000000 *   0.00000    1.000000    
     26 Ag    c    0.250000 *  0.250000 *  0.500000 *   0.00000    1.000000    
     27 Ag    c    0.250000 *  0.750000 *  0.000000 *   0.00000    1.000000    
     28 Ag    c    0.250000 *  0.750000 *  0.500000 *   0.00000    1.000000    
     29 Ag    c    0.750000 *  0.250000 *  0.000000 *   0.00000    1.000000    
     30 Ag    c    0.750000 *  0.250000 *  0.500000 *   0.00000    1.000000    
     31 Ag    c    0.750000 *  0.750000 *  0.000000 *   0.00000    1.000000    
     32 Ag    c    0.750000 *  0.750000 *  0.500000 *   0.00000    1.000000    
--------------------------------------------------------------------------------



********************************************************************************
*  General input information                                                   *
********************************************************************************

  Species output for all configurations : 

--------------------------------------------------------------------------------
  Species    Type    Atomic    Atomic    Charge       Radii (Angs)     Library
                     Number     Mass       (e)     Cova   Ionic  VDW   Symbol
--------------------------------------------------------------------------------
    Ag       Core       47     107.87   0.000000   1.590  0.000  2.370          
--------------------------------------------------------------------------------


  Lattice summation method               =    Ewald          (3-D)
                                         =    Parry          (2-D)
                                         =    Saunders et al (1-D)
  Accuracy factor for lattice sums       =   12.000


  Time limit = Infinity

  Maximum range for interatomic potentials =    100000.000000 Angstroms

  General interatomic potentials :

--------------------------------------------------------------------------------
Atom  Types   Potential      Parameter       Value         Units   Cutoffs(Ang)
  1     2                                                            Min /  Max 
--------------------------------------------------------------------------------
Ag   c Ag   c Many-body                                             0.000  8.000
--------------------------------------------------------------------------------
Ag   c Ag   c Buckingham    Buckingham A     11454.950    eV        0.000 12.000
                            Buckingham rho  0.26432400    Ang       
                            Buckingham C     0.0000000    eV*Ang^6  
--------------------------------------------------------------------------------

  Embedded Atom Model Densities :

--------------------------------------------------------------------------------
  Atom(s)       Functional Form          A          B          C         n      
--------------------------------------------------------------------------------
  Ag   c        Exponential          1.388      2.173      2.889         0
--------------------------------------------------------------------------------


  Embedded Atom Model alloy parameters :

--------------------------------------------------------------------------------
  Atom(s)                          Scale factor 
--------------------------------------------------------------------------------
  Ag    c                            1.000000
--------------------------------------------------------------------------------

  Embedded Atom Model functional = Square Root

--------------------------------------------------------------------------------
  Atom                     A     
--------------------------------------------------------------------------------
  Ag    c               1.000000
--------------------------------------------------------------------------------


  Manybody second derivative cross term cutoffs to be scale by = 0.50000000

********************************************************************************
*  Output for configuration   1                                                *
********************************************************************************


  Components of energy : 

--------------------------------------------------------------------------------
  Interatomic potentials     =          39.71625760 eV    
  Many-body potentials       =        -134.45860512 eV    
  Monopole - monopole (real) =           0.00000000 eV    
  Monopole - monopole (recip)=           0.00000000 eV    
  Monopole - monopole (total)=           0.00000000 eV    
--------------------------------------------------------------------------------
  Total lattice energy       =         -94.74234752 eV    
--------------------------------------------------------------------------------
  Total lattice energy       =           -9141.1883 kJ/(mole unit cells)
--------------------------------------------------------------------------------

  Equations of motion will be integrated using the leapfrog Verlet algorithm.

********************************************************************************
*  Molecular Dynamics                                                          *
********************************************************************************

  Microcanonical ensemble (NVE) to be used

  No. of mobile ions        =                 32

  No. of degrees of freedom =                 93

  Time step                 =           0.014000 ps
  Equilibration time        =           5.000000 ps
  Production time           =          10.000000 ps
  Scaling time              =           4.998000 ps
  Scaling frequency         =           0.014000 ps
  Sampling frequency        =           0.014000 ps
  Write frequency           =           0.014000 ps
  TD-Force start time       =           0.000000 ps
  TD-Field start time       =           0.000000 ps



  Molecular dynamics equilibration :

  ** Time :            0.01400 ps :
     Properties:                   Instantaneous       Averaged
       Kinetic energy    (eV) =      12.021192         12.021192
       Potential energy  (eV) =     -94.742348        -94.742348
       Total energy      (eV) =     -82.721155        -82.721155
       Temperature       (K)  =    3000.000000       3000.000000
       Pressure         (GPa) =       2.339048          2.339048
  ** Time :            0.02800 ps :
     Properties:                   Instantaneous       Averaged
       Kinetic energy    (eV) =      10.771076         11.396134
       Potential energy  (eV) =     -93.524109        -94.133228
       Total energy      (eV) =     -82.753033        -82.737094
       Temperature       (K)  =    2688.021840       2844.010920
       Pressure         (GPa) =       3.850519          3.094783
  ** Time :            0.04200 ps :
     Properties:                   Instantaneous       Averaged
       Kinetic energy    (eV) =       9.370703         10.720990
       Potential energy  (eV) =     -89.921977        -92.729478
       Total energy      (eV) =     -80.551274        -82.008487
       Temperature       (K)  =    2338.545877       2675.522572
       Pressure         (GPa) =       8.312676          4.834081
  ** Time :            0.05600 ps :
     Properties:                   Instantaneous       Averaged
       Kinetic energy    (eV) =       9.066884         10.307464
       Potential energy  (eV) =     -85.307866        -90.874075
       Total energy      (eV) =     -76.240982        -80.566611
       Temperature       (K)  =    2262.724900       2572.323154
       Pressure         (GPa) =      13.823914          7.081539
  ** Time :            0.07000 ps :
     Properties:                   Instantaneous       Averaged
       Kinetic energy    (eV) =      10.939676         10.433906
       Potential energy  (eV) =     -83.092698        -89.317799
       Total energy      (eV) =     -72.153022        -78.883893
       Temperature       (K)  =    2730.097583       2603.878040
       Pressure         (GPa) =      17.038402          9.072912
  ** Time :            0.08400 ps :
     Properties:                   Instantaneous       Averaged
       Kinetic energy    (eV) =      11.424303         10.598972
       Potential energy  (eV) =     -83.041689        -88.271781
       Total energy      (eV) =     -71.617385        -77.672809
       Temperature       (K)  =    2851.040834       2645.071839
       Pressure         (GPa) =      17.427001         10.465260
  ** Time :            0.09800 ps :
     Properties:                   Instantaneous       Averaged
       Kinetic energy    (eV) =      10.733587         10.618203
       Potential energy  (eV) =     -81.998065        -87.375536
       Total energy      (eV) =     -71.264478        -76.757333
       Temperature       (K)  =    2678.666280       2649.871045
       Pressure         (GPa) =      18.340857         11.590345
  ** Time :            0.11200 ps :
     Properties:                   Instantaneous       Averaged
       Kinetic energy    (eV) =      10.911832         10.654907
       Potential energy  (eV) =     -80.675808        -86.538070
       Total energy      (eV) =     -69.763976        -75.883163
       Temperature       (K)  =    2723.148840       2659.030769
       Pressure         (GPa) =      19.845307         12.622215
  ** Time :            0.12600 ps :
     Properties:                   Instantaneous       Averaged
       Kinetic energy    (eV) =      11.053431         10.699187
       Potential energy  (eV) =     -79.982301        -85.809651
       Total energy      (eV) =     -68.928870        -75.110464
       Temperature       (K)  =    2758.486133       2670.081365
       Pressure         (GPa) =      20.982713         13.551160
  ** Time :            0.14000 ps :
     Properties:                   Instantaneous       Averaged
       Kinetic energy    (eV) =      10.554807         10.684749
       Potential energy  (eV) =     -78.638704        -85.092556
       Total energy      (eV) =     -68.083897        -74.407807
       Temperature       (K)  =    2634.049949       2666.478223
       Pressure         (GPa) =      22.560827         14.452126
  ** Time :            0.15400 ps :
     Properties:                   Instantaneous       Averaged
       Kinetic energy    (eV) =      10.534023         10.671047
       Potential energy  (eV) =     -76.773448        -84.336274
       Total energy      (eV) =     -66.239425        -73.665227
       Temperature       (K)  =    2628.863017       2663.058659
       Pressure         (GPa) =      24.425296         15.358778
  ** Time :            0.16800 ps :
     Properties:                   Instantaneous       Averaged
       Kinetic energy    (eV) =      11.815227         10.766395
       Potential energy  (eV) =     -76.910032        -83.717420
       Total energy      (eV) =     -65.094805        -72.951025
       Temperature       (K)  =    2948.599455       2686.853726
       Pressure         (GPa) =      24.521187         16.122312
  ** Time :            0.18200 ps :
     Properties:                   Instantaneous       Averaged
       Kinetic energy    (eV) =      12.278159         10.882685
       Potential energy  (eV) =     -78.780614        -83.337666
       Total energy      (eV) =     -66.502455        -72.454981
       Temperature       (K)  =    3064.128334       2715.874849
       Pressure         (GPa) =      22.721099         16.629911
  ** Time :            0.19600 ps :
     Properties:                   Instantaneous       Averaged
       Kinetic energy    (eV) =      11.650176         10.937505
       Potential energy  (eV) =     -79.823159        -83.086630
       Total energy      (eV) =     -68.172983        -72.149124
       Temperature       (K)  =    2907.409417       2729.555890
       Pressure         (GPa) =      21.454828         16.974548
  ** Time :            0.21000 ps :
     Properties:                   Instantaneous       Averaged
       Kinetic energy    (eV) =      11.306076         10.962077
       Potential energy  (eV) =     -79.564047        -82.851791
       Total energy      (eV) =     -68.257972        -71.889714
       Temperature       (K)  =    2821.536038       2735.687900
       Pressure         (GPa) =      21.529336         17.278201
  ** Time :            0.22400 ps :
     Properties:                   Instantaneous       Averaged
       Kinetic energy    (eV) =      11.348464         10.986226
       Potential energy  (eV) =     -79.206213        -82.623942
       Total energy      (eV) =     -67.857750        -71.637716
       Temperature       (K)  =    2832.114356       2741.714553
       Pressure         (GPa) =      21.798861         17.560742
  ** Time :            0.23800 ps :
     Properties:                   Instantaneous       Averaged
       Kinetic energy    (eV) =      11.741864         11.030675
       Potential energy  (eV) =     -79.441451        -82.436737
       Total energy      (eV) =     -67.699587        -71.406062
       Temperature       (K)  =    2930.291023       2752.807287
       Pressure         (GPa) =      21.532561         17.794378
  ** Time :            0.25200 ps :
     Properties:                   Instantaneous       Averaged
       Kinetic energy    (eV) =      11.925651         11.080396
       Potential energy  (eV) =     -80.135305        -82.308880
       Total energy      (eV) =     -68.209654        -71.228484
       Temperature       (K)  =    2976.156861       2765.215596
       Pressure         (GPa) =      20.780287         17.960262
  ** Time :            0.26600 ps :
     Properties:                   Instantaneous       Averaged
       Kinetic energy    (eV) =      11.773052         11.116852
       Potential energy  (eV) =     -80.852098        -82.232207
       Total energy      (eV) =     -69.079046        -71.115355
       Temperature       (K)  =    2938.074234       2774.313419
       Pressure         (GPa) =      20.001352         18.067688
  ** Time :            0.28000 ps :
     Properties:                   Instantaneous       Averaged
       Kinetic energy    (eV) =      11.246620         11.123340
       Potential energy  (eV) =     -80.715259        -82.156360
       Total energy      (eV) =     -69.468639        -71.033020
       Temperature       (K)  =    2806.698347       2775.932666
       Pressure         (GPa) =      19.950239         18.161816
  ** Time :            0.29400 ps :
     Properties:                   Instantaneous       Averaged
       Kinetic energy    (eV) =      11.264059         11.130041
       Potential energy  (eV) =     -80.258310        -82.065976
       Total energy      (eV) =     -68.994252        -70.935935
       Temperature       (K)  =    2811.050278       2777.604933
       Pressure         (GPa) =      20.437272         18.270171
  ** Time :            0.30800 ps :
     Properties:                   Instantaneous       Averaged
       Kinetic energy    (eV) =      11.077238         11.127641
       Potential energy  (eV) =     -80.006550        -81.972366
       Total energy      (eV) =     -68.929312        -70.844725
       Temperature       (K)  =    2764.427526       2777.005960
       Pressure         (GPa) =      20.992257         18.393902
  ** Time :            0.32200 ps :
     Properties:                   Instantaneous       Averaged
       Kinetic energy    (eV) =      10.663929         11.107479
       Potential energy  (eV) =     -78.764317        -81.832886
       Total energy      (eV) =     -68.100387        -70.725406
       Temperature       (K)  =    2661.282457       2771.974503
       Pressure         (GPa) =      22.383691         18.567371
  ** Time :            0.33600 ps :
     Properties:                   Instantaneous       Averaged
       Kinetic energy    (eV) =      11.377614         11.118735
       Potential energy  (eV) =     -78.091578        -81.676998
       Total energy      (eV) =     -66.713965        -70.558263
       Temperature       (K)  =    2839.388999       2774.783441
       Pressure         (GPa) =      23.265966         18.763146
  ** Time :            0.35000 ps :
     Properties:                   Instantaneous       Averaged
       Kinetic energy    (eV) =      11.873666         11.148932
       Potential energy  (eV) =     -79.021252        -81.570768
       Total energy      (eV) =     -67.147586        -70.421836
       Temperature       (K)  =    2963.183498       2782.319443
       Pressure         (GPa) =      22.438576         18.910163
  ** Time :            0.36400 ps :
     Properties:                   Instantaneous       Averaged
       Kinetic energy    (eV) =      10.871663         11.138268
       Potential energy  (eV) =     -78.784708        -81.463612
       Total energy      (eV) =     -67.913044        -70.325344
       Temperature       (K)  =    2713.124366       2779.658094
       Pressure         (GPa) =      22.438735         19.045877
  ** Time :            0.37800 ps :
     Properties:                   Instantaneous       Averaged
       Kinetic energy    (eV) =      10.799592         11.125725
       Potential energy  (eV) =     -77.314688        -81.309948
       Total energy      (eV) =     -66.515096        -70.184223
       Temperature       (K)  =    2695.138331       2776.527732
       Pressure         (GPa) =      23.789788         19.221578
  ** Time :            0.39200 ps :
     Properties:                   Instantaneous       Averaged
       Kinetic energy    (eV) =      11.452183         11.137384
       Potential energy  (eV) =     -77.462269        -81.172531
       Total energy      (eV) =     -66.010085        -70.035147
       Temperature       (K)  =    2857.998534       2779.437404
       Pressure         (GPa) =      23.849142         19.386848
  ** Time :            0.40600 ps :
     Properties:                   Instantaneous       Averaged
       Kinetic energy    (eV) =      11.152069         11.137890
       Potential energy  (eV) =     -77.415854        -81.042990
       Total energy      (eV) =     -66.263785        -69.905100
       Temperature       (K)  =    2783.102265       2779.563778
       Pressure         (GPa) =      23.830202         19.540067
  ** Time :            0.42000 ps :
     Properties:                   Instantaneous       Averaged
       Kinetic energy    (eV) =      11.510932         11.150325
       Potential energy  (eV) =     -78.097664        -80.944813
       Total energy      (eV) =     -66.586733        -69.794488
       Temperature       (K)  =    2872.659707       2782.666976
       Pressure         (GPa) =      23.191330         19.661776
  ** Time :            0.43400 ps :
     Properties:                   Instantaneous       Averaged
       Kinetic energy    (eV) =      11.321874         11.155859
       Potential energy  (eV) =     -78.316740        -80.860036
       Total energy      (eV) =     -66.994866        -69.704177
       Temperature       (K)  =    2825.478582       2784.047995
       Pressure         (GPa) =      22.607827         19.756810
  ** Time :            0.44800 ps :
     Properties:                   Instantaneous       Averaged
       Kinetic energy    (eV) =      11.706188         11.173056
       Potential energy  (eV) =     -78.859479        -80.797519
       Total energy      (eV) =     -67.153291        -69.624462
       Temperature       (K)  =    2921.387763       2788.339863
       Pressure         (GPa) =      21.999701         19.826900
  ** Time :            0.46200 ps :
     Properties:                   Instantaneous       Averaged
       Kinetic energy    (eV) =      11.190025         11.173571
       Potential energy  (eV) =     -78.996272        -80.742935
       Total energy      (eV) =     -67.806246        -69.569365
       Temperature       (K)  =    2792.574615       2788.468189
       Pressure         (GPa) =      21.803766         19.886805
  ** Time :            0.47600 ps :
     Properties:                   Instantaneous       Averaged
       Kinetic energy    (eV) =      11.031884         11.169403
       Potential energy  (eV) =     -78.282963        -80.670583
       Total energy      (eV) =     -67.251079        -69.501180
       Temperature       (K)  =    2753.108902       2787.428210
       Pressure         (GPa) =      22.612700         19.966978
  ** Time :            0.49000 ps :
     Properties:                   Instantaneous       Averaged
       Kinetic energy    (eV) =      11.151473         11.168891
       Potential energy  (eV) =     -77.618911        -80.583393
       Total energy      (eV) =     -66.467438        -69.414502
       Temperature       (K)  =    2782.953444       2787.300360
       Pressure         (GPa) =      23.316766         20.062687
  ** Time :            0.50400 ps :
     Properties:                   Instantaneous       Averaged
       Kinetic energy    (eV) =      12.451952         11.204532
       Potential energy  (eV) =     -78.695909        -80.530963
       Total energy      (eV) =     -66.243957        -69.326431
       Temperature       (K)  =    3107.500139       2796.194798
       Pressure         (GPa) =      22.240126         20.123171
  ** Time :            0.51800 ps :
     Properties:                   Instantaneous       Averaged
       Kinetic energy    (eV) =      12.365820         11.235918
       Potential energy  (eV) =     -81.332560        -80.552627
       Total energy      (eV) =     -68.966740        -69.316710
       Temperature       (K)  =    3086.004989       2804.027506
       Pressure         (GPa) =      19.474083         20.105628
  ** Time :            0.53200 ps :
     Properties:                   Instantaneous       Averaged
       Kinetic energy    (eV) =      11.116531         11.232776
       Potential energy  (eV) =     -81.375795        -80.574290
       Total energy      (eV) =     -70.259264        -69.341514
       Temperature       (K)  =    2774.233376       2803.243450
       Pressure         (GPa) =      19.131772         20.080000
  ** Time :            0.54600 ps :
     Properties:                   Instantaneous       Averaged
       Kinetic energy    (eV) =      11.167382         11.231099
       Potential energy  (eV) =     -80.240853        -80.565740
       Total energy      (eV) =     -69.073471        -69.334641
       Temperature       (K)  =    2786.923846       2802.824998
       Pressure         (GPa) =      20.347196         20.086851
  ** Time :            0.56000 ps :
     Properties:                   Instantaneous       Averaged
       Kinetic energy    (eV) =      11.849361         11.246556
       Potential energy  (eV) =     -80.704597        -80.569211
       Total energy      (eV) =     -68.855235        -69.322656
       Temperature       (K)  =    2957.118038       2806.682324
       Pressure         (GPa) =      20.238406         20.090640
  ** Time :            0.57400 ps :
     Properties:                   Instantaneous       Averaged
       Kinetic energy    (eV) =      11.665206         11.256767
       Potential energy  (eV) =     -81.258341        -80.586019
       Total energy      (eV) =     -69.593135        -69.329253
       Temperature       (K)  =    2911.160385       2809.230570
       Pressure         (GPa) =      19.563315         20.077779
  ** Time :            0.58800 ps :
     Properties:                   Instantaneous       Averaged
       Kinetic energy    (eV) =      11.964573         11.273619
       Potential energy  (eV) =     -81.926667        -80.617940
       Total energy      (eV) =     -69.962093        -69.344320
       Temperature       (K)  =    2985.870187       2813.436275
       Pressure         (GPa) =      18.714346         20.045316
  ** Time :            0.60200 ps :
     Properties:                   Instantaneous       Averaged
       Kinetic energy    (eV) =      12.107183         11.293005
       Potential energy  (eV) =     -83.148248        -80.676784
       Total energy      (eV) =     -71.041064        -69.383779
       Temperature       (K)  =    3021.459917       2818.274034
       Pressure         (GPa) =      17.327939         19.982121
  ** Time :            0.61600 ps :
     Properties:                   Instantaneous       Averaged
       Kinetic energy    (eV) =      11.655253         11.301238
       Potential energy  (eV) =     -83.827257        -80.748386
       Total energy      (eV) =     -72.172004        -69.447148
       Temperature       (K)  =    2908.676572       2820.328637
       Pressure         (GPa) =      16.546356         19.904036
  ** Time :            0.63000 ps :
     Properties:                   Instantaneous       Averaged
       Kinetic energy    (eV) =      10.661343         11.287018
       Potential energy  (eV) =     -82.605310        -80.789651
       Total energy      (eV) =     -71.943967        -69.502633
       Temperature       (K)  =    2660.636923       2816.779932
       Pressure         (GPa) =      17.795492         19.857179
  ** Time :            0.64400 ps :
     Properties:                   Instantaneous       Averaged
       Kinetic energy    (eV) =      10.546138         11.270912
       Potential energy  (eV) =     -80.404403        -80.781276
       Total energy      (eV) =     -69.858264        -69.510364
       Temperature       (K)  =    2631.886629       2812.760513
       Pressure         (GPa) =      20.326604         19.867384
  ** Time :            0.65800 ps :
     Properties:                   Instantaneous       Averaged
       Kinetic energy    (eV) =      11.274304         11.270984
       Potential energy  (eV) =     -79.445992        -80.752865
       Total energy      (eV) =     -68.171687        -69.481882
       Temperature       (K)  =    2813.607220       2812.778528
       Pressure         (GPa) =      21.899679         19.910624
  ** Time :            0.67200 ps :
     Properties:                   Instantaneous       Averaged
       Kinetic energy    (eV) =      11.310650         11.271810
       Potential energy  (eV) =     -79.241209        -80.721373
       Total energy      (eV) =     -67.930559        -69.449562
       Temperature       (K)  =    2822.677535       2812.984757
       Pressure         (GPa) =      22.424254         19.962992
  ** Time :            0.68600 ps :
     Properties:                   Instantaneous       Averaged
       Kinetic energy    (eV) =      11.676975         11.280079
       Potential energy  (eV) =     -79.399497        -80.694396
       Total energy      (eV) =     -67.722523        -69.414317
       Temperature       (K)  =    2914.097308       2815.048279
       Pressure         (GPa) =      22.477270         20.014303
  ** Time :            0.70000 ps :
     Properties:                   Instantaneous       Averaged
       Kinetic energy    (eV) =      11.665277         11.287783
       Potential energy  (eV) =     -80.056234        -80.681632
       Total energy      (eV) =     -68.390957        -69.393850
       Temperature       (K)  =    2911.177938       2816.970872
       Pressure         (GPa) =      21.966363         20.053345
  ** Time :            0.71400 ps :
     Properties:                   Instantaneous       Averaged
       Kinetic energy    (eV) =      11.403479         11.290051
       Potential energy  (eV) =     -80.099461        -80.670217
       Total energy      (eV) =     -68.695982        -69.380166
       Temperature       (K)  =    2845.843944       2817.537010
       Pressure         (GPa) =      21.763007         20.086867
  ** Time :            0.72800 ps :
     Properties:                   Instantaneous       Averaged
       Kinetic energy    (eV) =      11.549406         11.295039
       Potential energy  (eV) =     -79.975696        -80.656861
       Total energy      (eV) =     -68.426290        -69.361822
       Temperature       (K)  =    2882.261466       2818.781711
       Pressure         (GPa) =      21.561332         20.115223
  ** Time :            0.74200 ps :
     Properties:                   Instantaneous       Averaged
       Kinetic energy    (eV) =      11.536798         11.299600
       Potential energy  (eV) =     -80.285178        -80.649848
       Total energy      (eV) =     -68.748380        -69.350248
       Temperature       (K)  =    2879.114878       2819.920073
       Pressure         (GPa) =      21.037879         20.132631
  ** Time :            0.75600 ps :
     Properties:                   Instantaneous       Averaged
       Kinetic energy    (eV) =      11.209977         11.297941
       Potential energy  (eV) =     -79.762934        -80.633424
       Total energy      (eV) =     -68.552957        -69.335483
       Temperature       (K)  =    2797.553709       2819.505881
       Pressure         (GPa) =      21.352203         20.155216
  ** Time :            0.77000 ps :
     Properties:                   Instantaneous       Averaged
       Kinetic energy    (eV) =      11.574841         11.302975
       Potential energy  (eV) =     -79.857739        -80.619320
       Total energy      (eV) =     -68.282898        -69.316345
       Temperature       (K)  =    2888.608839       2820.762299
       Pressure         (GPa) =      21.401487         20.177875
  ** Time :            0.78400 ps :
     Properties:                   Instantaneous       Averaged
       Kinetic energy    (eV) =      11.525397         11.306947
       Potential energy  (eV) =     -80.087461        -80.609823
       Total energy      (eV) =     -68.562063        -69.302876
       Temperature       (K)  =    2876.269819       2821.753504
       Pressure         (GPa) =      21.178846         20.195750
  ** Time :            0.79800 ps :
     Properties:                   Instantaneous       Averaged
       Kinetic energy    (eV) =      11.812410         11.315815
       Potential energy  (eV) =     -81.304329        -80.622007
       Total energy      (eV) =     -69.491919        -69.306192
       Temperature       (K)  =    2947.896564       2823.966540
       Pressure         (GPa) =      20.230710         20.196363
  ** Time :            0.81200 ps :
     Properties:                   Instantaneous       Averaged
       Kinetic energy    (eV) =      11.189497         11.313637
       Potential energy  (eV) =     -81.042529        -80.629258
       Total energy      (eV) =     -69.853032        -69.315621
       Temperature       (K)  =    2792.442866       2823.423029
       Pressure         (GPa) =      20.236536         20.197056
  ** Time :            0.82600 ps :
     Properties:                   Instantaneous       Averaged
       Kinetic energy    (eV) =      11.510721         11.316977
       Potential energy  (eV) =     -80.621329        -80.629123
       Total energy      (eV) =     -69.110608        -69.312146
       Temperature       (K)  =    2872.607151       2824.256658
       Pressure         (GPa) =      20.523750         20.202593
  ** Time :            0.84000 ps :
     Properties:                   Instantaneous       Averaged
       Kinetic energy    (eV) =      11.633995         11.322261
       Potential energy  (eV) =     -80.920125        -80.633973
       Total energy      (eV) =     -69.286129        -69.311712
       Temperature       (K)  =    2903.371435       2825.575238
       Pressure         (GPa) =      20.292154         20.204086
  ** Time :            0.85400 ps :
     Properties:                   Instantaneous       Averaged
       Kinetic energy    (eV) =      11.160979         11.319617
       Potential energy  (eV) =     -80.490625        -80.631623
       Total energy      (eV) =     -69.329646        -69.312006
       Temperature       (K)  =    2785.325705       2824.915409
       Pressure         (GPa) =      20.888236         20.215301
  ** Time :            0.86800 ps :
     Properties:                   Instantaneous       Averaged
       Kinetic energy    (eV) =      11.304498         11.319373
       Potential energy  (eV) =     -79.893913        -80.619725
       Total energy      (eV) =     -68.589415        -69.300352
       Temperature       (K)  =    2821.142405       2824.854554
       Pressure         (GPa) =      21.881011         20.242167
  ** Time :            0.88200 ps :
     Properties:                   Instantaneous       Averaged
       Kinetic energy    (eV) =      11.766004         11.326463
       Potential energy  (eV) =     -80.172857        -80.612632
       Total energy      (eV) =     -68.406853        -69.286169
       Temperature       (K)  =    2936.315347       2826.623773
       Pressure         (GPa) =      21.826302         20.267312
  ** Time :            0.89600 ps :
     Properties:                   Instantaneous       Averaged
       Kinetic energy    (eV) =      11.923080         11.335785
       Potential energy  (eV) =     -81.117755        -80.620524
       Total energy      (eV) =     -69.194674        -69.284739
       Temperature       (K)  =    2975.515238       2828.950202
       Pressure         (GPa) =      20.641510         20.273159
  ** Time :            0.91000 ps :
     Properties:                   Instantaneous       Averaged
       Kinetic energy    (eV) =      11.154478         11.332995
       Potential energy  (eV) =     -81.148350        -80.628645
       Total energy      (eV) =     -69.993872        -69.295649
       Temperature       (K)  =    2783.703386       2828.254098
       Pressure         (GPa) =      19.973885         20.268555
  ** Time :            0.92400 ps :
     Properties:                   Instantaneous       Averaged
       Kinetic energy    (eV) =      10.880608         11.326141
       Potential energy  (eV) =     -79.916883        -80.617860
       Total energy      (eV) =     -69.036275        -69.291719
       Temperature       (K)  =    2715.356589       2826.543529
       Pressure         (GPa) =      20.641020         20.274198
  ** Time :            0.93800 ps :
     Properties:                   Instantaneous       Averaged
       Kinetic energy    (eV) =      11.916193         11.334948
       Potential energy  (eV) =     -80.279637        -80.612812
       Total energy      (eV) =     -68.363445        -69.277864
       Temperature       (K)  =    2973.796350       2828.741333
       Pressure         (GPa) =      20.351041         20.275345
  ** Time :            0.95200 ps :
     Properties:                   Instantaneous       Averaged
       Kinetic energy    (eV) =      11.631325         11.339306
       Potential energy  (eV) =     -81.411257        -80.624554
       Total energy      (eV) =     -69.779932        -69.285248
       Temperature       (K)  =    2902.705061       2829.829034
       Pressure         (GPa) =      19.321984         20.261325
  ** Time :            0.96600 ps :
     Properties:                   Instantaneous       Averaged
       Kinetic energy    (eV) =      11.257843         11.338126
       Potential energy  (eV) =     -80.982774        -80.629746
       Total energy      (eV) =     -69.724931        -69.291620
       Temperature       (K)  =    2809.499197       2829.534399
       Pressure         (GPa) =      19.728353         20.253601
  ** Time :            0.98000 ps :
     Properties:                   Instantaneous       Averaged
       Kinetic energy    (eV) =      12.129336         11.349429
       Potential energy  (eV) =     -81.815040        -80.646678
       Total energy      (eV) =     -69.685704        -69.297250
       Temperature       (K)  =    3026.988316       2832.355169
       Pressure         (GPa) =      19.193437         20.238456
  ** Time :            0.99400 ps :
     Properties:                   Instantaneous       Averaged
       Kinetic energy    (eV) =      11.826439         11.356147
       Potential energy  (eV) =     -82.952299        -80.679152
       Total energy      (eV) =     -71.125861        -69.323005
       Temperature       (K)  =    2951.397415       2834.031821
       Pressure         (GPa) =      17.995294         20.206862
  ** Time :            1.00800 ps :
     Properties:                   Instantaneous       Averaged
       Kinetic energy    (eV) =      11.215118         11.354188
       Potential energy  (eV) =     -82.738169        -80.707749
       Total energy      (eV) =     -71.523051        -69.353561
       Temperature       (K)  =    2798.836729       2833.543000
       Pressure         (GPa) =      18.036973         20.176725
  ** Time :            1.02200 ps :
     Properties:                   Instantaneous       Averaged
       Kinetic energy    (eV) =      11.178247         11.351778
       Potential energy  (eV) =     -81.890968        -80.723958
       Total energy      (eV) =     -70.712721        -69.372180
       Temperature       (K)  =    2789.635187       2832.941523
       Pressure         (GPa) =      18.778042         20.157565
  ** Time :            1.03600 ps :
     Properties:                   Instantaneous       Averaged
       Kinetic energy    (eV) =      11.552071         11.354485
       Potential energy  (eV) =     -81.729574        -80.737547
       Total energy      (eV) =     -70.177502        -69.383062
       Temperature       (K)  =    2882.926562       2833.616997
       Pressure         (GPa) =      18.958024         20.141355
  ** Time :            1.05000 ps :
     Properties:                   Instantaneous       Averaged
       Kinetic energy    (eV) =      11.270671         11.353367
       Potential energy  (eV) =     -81.503132        -80.747755
       Total energy      (eV) =     -70.232462        -69.394388
       Temperature       (K)  =    2812.700423       2833.338109
       Pressure         (GPa) =      19.175911         20.128482
  ** Time :            1.06400 ps :
     Properties:                   Instantaneous       Averaged
       Kinetic energy    (eV) =      10.993126         11.348627
       Potential energy  (eV) =     -80.808592        -80.748556
       Total energy      (eV) =     -69.815466        -69.399928
       Temperature       (K)  =    2743.436542       2832.155194
       Pressure         (GPa) =      20.045894         20.127395
  ** Time :            1.07800 ps :
     Properties:                   Instantaneous       Averaged
       Kinetic energy    (eV) =      10.823224         11.341804
       Potential energy  (eV) =     -79.414645        -80.731232
       Total energy      (eV) =     -68.591421        -69.389428
       Temperature       (K)  =    2701.036013       2830.452347
       Pressure         (GPa) =      21.556008         20.145949
  ** Time :            1.09200 ps :
     Properties:                   Instantaneous       Averaged
       Kinetic energy    (eV) =      11.572645         11.344763
       Potential energy  (eV) =     -79.050037        -80.709678
       Total energy      (eV) =     -67.477392        -69.364915
       Temperature       (K)  =    2888.060905       2831.190918
       Pressure         (GPa) =      22.267148         20.173144
  ** Time :            1.10600 ps :
     Properties:                   Instantaneous       Averaged
       Kinetic energy    (eV) =      11.150949         11.342310
       Potential energy  (eV) =     -79.123172        -80.689596
       Total energy      (eV) =     -67.972223        -69.347286
       Temperature       (K)  =    2782.822743       2830.578663
       Pressure         (GPa) =      22.443239         20.201879
  ** Time :            1.12000 ps :
     Properties:                   Instantaneous       Averaged
       Kinetic energy    (eV) =      10.393222         11.330446
       Potential energy  (eV) =     -77.353286        -80.647892
       Total energy      (eV) =     -66.960064        -69.317446
       Temperature       (K)  =    2593.725006       2827.617992
       Pressure         (GPa) =      24.092838         20.250516
  ** Time :            1.13400 ps :
     Properties:                   Instantaneous       Averaged
       Kinetic energy    (eV) =      12.406267         11.343728
       Potential energy  (eV) =     -78.144457        -80.616985
       Total energy      (eV) =     -65.738189        -69.273257
       Temperature       (K)  =    3096.099055       2830.932573
       Pressure         (GPa) =      23.615195         20.292055
  ** Time :            1.14800 ps :
     Properties:                   Instantaneous       Averaged
       Kinetic energy    (eV) =      12.121314         11.353211
       Potential energy  (eV) =     -80.318266        -80.613343
       Total energy      (eV) =     -68.196952        -69.260132
       Temperature       (K)  =    3024.986312       2833.299082
       Pressure         (GPa) =      21.218167         20.303349
  ** Time :            1.16200 ps :
     Properties:                   Instantaneous       Averaged
       Kinetic energy    (eV) =      11.546651         11.355542
       Potential energy  (eV) =     -80.566566        -80.612779
       Total energy      (eV) =     -69.019915        -69.257237
       Temperature       (K)  =    2881.573934       2833.880707
       Pressure         (GPa) =      20.807028         20.309418
  ** Time :            1.17600 ps :
     Properties:                   Instantaneous       Averaged
       Kinetic energy    (eV) =      11.348636         11.355459
       Potential energy  (eV) =     -80.199534        -80.607859
       Total energy      (eV) =     -68.850898        -69.252400
       Temperature       (K)  =    2832.157342       2833.860191
       Pressure         (GPa) =      21.381810         20.322184
  ** Time :            1.19000 ps :
     Properties:                   Instantaneous       Averaged
       Kinetic energy    (eV) =      11.055410         11.351929
       Potential energy  (eV) =     -79.415427        -80.593831
       Total energy      (eV) =     -68.360017        -69.241901
       Temperature       (K)  =    2758.980122       2832.979249
       Pressure         (GPa) =      22.477015         20.347535
  ** Time :            1.20400 ps :
     Properties:                   Instantaneous       Averaged
       Kinetic energy    (eV) =      10.934288         11.347073
       Potential energy  (eV) =     -78.340500        -80.567629
       Total energy      (eV) =     -67.406212        -69.220556
       Temperature       (K)  =    2728.752946       2831.767315
       Pressure         (GPa) =      23.675195         20.386229
  ** Time :            1.21800 ps :
     Properties:                   Instantaneous       Averaged
       Kinetic energy    (eV) =      11.639751         11.350437
       Potential energy  (eV) =     -78.076300        -80.538993
       Total energy      (eV) =     -66.436549        -69.188556
       Temperature       (K)  =    2904.807800       2832.606861
       Pressure         (GPa) =      23.703718         20.424361
  ** Time :            1.23200 ps :
     Properties:                   Instantaneous       Averaged
       Kinetic energy    (eV) =      11.985381         11.357652
       Potential energy  (eV) =     -79.438958        -80.526493
       Total energy      (eV) =     -67.453577        -69.168840
       Temperature       (K)  =    2991.063058       2834.407499
       Pressure         (GPa) =      21.801081         20.440006
  ** Time :            1.24600 ps :
     Properties:                   Instantaneous       Averaged
       Kinetic energy    (eV) =      11.429739         11.358462
       Potential energy  (eV) =     -79.779619        -80.518101
       Total energy      (eV) =     -68.349880        -69.159639
       Temperature       (K)  =    2852.397471       2834.609634
       Pressure         (GPa) =      20.740492         20.443382
  ** Time :            1.26000 ps :
     Properties:                   Instantaneous       Averaged
       Kinetic energy    (eV) =      12.195854         11.367767
       Potential energy  (eV) =     -80.988489        -80.523328
       Total energy      (eV) =     -68.792636        -69.155561
       Temperature       (K)  =    3043.588398       2836.931620
       Pressure         (GPa) =      19.652814         20.434598
  ** Time :            1.27400 ps :
     Properties:                   Instantaneous       Averaged
       Kinetic energy    (eV) =      11.128904         11.365142
       Potential energy  (eV) =     -81.661296        -80.535833
       Total energy      (eV) =     -70.532392        -69.170691
       Temperature       (K)  =    2777.321138       2836.276560
       Pressure         (GPa) =      19.179485         20.420805
  ** Time :            1.28800 ps :
     Properties:                   Instantaneous       Averaged
       Kinetic energy    (eV) =      10.058342         11.350938
       Potential energy  (eV) =     -79.392816        -80.523409
       Total energy      (eV) =     -69.334475        -69.172471
       Temperature       (K)  =    2510.152488       2832.731733
       Pressure         (GPa) =      21.516267         20.432713
  ** Time :            1.30200 ps :
     Properties:                   Instantaneous       Averaged
       Kinetic energy    (eV) =      11.048286         11.347683
       Potential energy  (eV) =     -77.805448        -80.494183
       Total energy      (eV) =     -66.757162        -69.146500
       Temperature       (K)  =    2757.202177       2831.919587
       Pressure         (GPa) =      23.435872         20.465005
  ** Time :            1.31600 ps :
     Properties:                   Instantaneous       Averaged
       Kinetic energy    (eV) =      11.920509         11.353777
       Potential energy  (eV) =     -78.526693        -80.473252
       Total energy      (eV) =     -66.606184        -69.119475
       Temperature       (K)  =    2974.873491       2833.440374
       Pressure         (GPa) =      23.025462         20.492243
  ** Time :            1.33000 ps :
     Properties:                   Instantaneous       Averaged
       Kinetic energy    (eV) =      11.461061         11.354906
       Potential energy  (eV) =     -79.342341        -80.461348
       Total energy      (eV) =     -67.881279        -69.106442
       Temperature       (K)  =    2860.214166       2833.722203
       Pressure         (GPa) =      22.434347         20.512687
  ** Time :            1.34400 ps :
     Properties:                   Instantaneous       Averaged
       Kinetic energy    (eV) =      10.222331         11.343109
       Potential energy  (eV) =     -77.748803        -80.433092
       Total energy      (eV) =     -67.526471        -69.089984
       Temperature       (K)  =    2551.077555       2830.777988
       Pressure         (GPa) =      23.996392         20.548975
  ** Time :            1.35800 ps :
     Properties:                   Instantaneous       Averaged
       Kinetic energy    (eV) =      11.015915         11.339736
       Potential energy  (eV) =     -76.181967        -80.389266
       Total energy      (eV) =     -65.166052        -69.049531
       Temperature       (K)  =    2749.123856       2829.936193
       Pressure         (GPa) =      25.806484         20.603176
  ** Time :            1.37200 ps :
     Properties:                   Instantaneous       Averaged
       Kinetic energy    (eV) =      11.526328         11.341640
       Potential energy  (eV) =     -76.592066        -80.350520
       Total energy      (eV) =     -65.065738        -69.008880
       Temperature       (K)  =    2876.501983       2830.411354
       Pressure         (GPa) =      25.676555         20.654946
  ** Time :            1.38600 ps :
     Properties:                   Instantaneous       Averaged
       Kinetic energy    (eV) =      11.444070         11.342674
       Potential energy  (eV) =     -76.658630        -80.313228
       Total energy      (eV) =     -65.214560        -68.970553
       Temperature       (K)  =    2855.973782       2830.669560
       Pressure         (GPa) =      25.616217         20.705059
  ** Time :            1.40000 ps :
     Properties:                   Instantaneous       Averaged
       Kinetic energy    (eV) =      11.764844         11.346896
       Potential energy  (eV) =     -77.203583        -80.282131
       Total energy      (eV) =     -65.438738        -68.935235
       Temperature       (K)  =    2936.025997       2831.723124
       Pressure         (GPa) =      25.226138         20.750270
  ** Time :            1.41400 ps :
     Properties:                   Instantaneous       Averaged
       Kinetic energy    (eV) =      11.673924         11.350134
       Potential energy  (eV) =     -77.672593        -80.256294
       Total energy      (eV) =     -65.998669        -68.906160
       Temperature       (K)  =    2913.335975       2832.531173
       Pressure         (GPa) =      24.629695         20.788680
  ** Time :            1.42800 ps :
     Properties:                   Instantaneous       Averaged
       Kinetic energy    (eV) =      12.087420         11.357362
       Potential energy  (eV) =     -78.940939        -80.243399
       Total energy      (eV) =     -66.853519        -68.886036
       Temperature       (K)  =    3016.527685       2834.335060
       Pressure         (GPa) =      23.483929         20.815104
  ** Time :            1.44200 ps :
     Properties:                   Instantaneous       Averaged
       Kinetic energy    (eV) =      10.674984         11.350737
       Potential energy  (eV) =     -78.518014        -80.226647
       Total energy      (eV) =     -67.843031        -68.875910
       Temperature       (K)  =    2664.041205       2832.681721
       Pressure         (GPa) =      23.797665         20.844061
  ** Time :            1.45600 ps :
     Properties:                   Instantaneous       Averaged
       Kinetic energy    (eV) =      11.129675         11.348612
       Potential energy  (eV) =     -77.115650        -80.196734
       Total energy      (eV) =     -65.985976        -68.848122
       Temperature       (K)  =    2777.513500       2832.151258
       Pressure         (GPa) =      25.151305         20.885477
  ** Time :            1.47000 ps :
     Properties:                   Instantaneous       Averaged
       Kinetic energy    (eV) =      11.958259         11.354418
       Potential energy  (eV) =     -78.242960        -80.178126
       Total energy      (eV) =     -66.284701        -68.823709
       Temperature       (K)  =    2984.294403       2833.600240
       Pressure         (GPa) =      23.991796         20.915061
  ** Time :            1.48400 ps :
     Properties:                   Instantaneous       Averaged
       Kinetic energy    (eV) =      11.023681         11.351298
       Potential energy  (eV) =     -78.277744        -80.160198
       Total energy      (eV) =     -67.254062        -68.808901
       Temperature       (K)  =    2751.061910       2832.821577
       Pressure         (GPa) =      23.348836         20.938021
  ** Time :            1.49800 ps :
     Properties:                   Instantaneous       Averaged
       Kinetic energy    (eV) =      11.512420         11.352803
       Potential energy  (eV) =     -77.810167        -80.138235
       Total energy      (eV) =     -66.297747        -68.785432
       Temperature       (K)  =    2873.031072       2833.197366
       Pressure         (GPa) =      23.432976         20.961339
  ** Time :            1.51200 ps :
     Properties:                   Instantaneous       Averaged
       Kinetic energy    (eV) =      12.344398         11.361985
       Potential energy  (eV) =     -79.843713        -80.135508
       Total energy      (eV) =     -67.499314        -68.773524
       Temperature       (K)  =    3080.659109       2835.488679
       Pressure         (GPa) =      21.483467         20.966173
  ** Time :            1.52600 ps :
     Properties:                   Instantaneous       Averaged
       Kinetic energy    (eV) =      11.748460         11.365530
       Potential energy  (eV) =     -80.902253        -80.142543
       Total energy      (eV) =     -69.153792        -68.777012
       Temperature       (K)  =    2931.937233       2836.373528
       Pressure         (GPa) =      20.276779         20.959848
  ** Time :            1.54000 ps :
     Properties:                   Instantaneous       Averaged
       Kinetic energy    (eV) =      11.591141         11.367581
       Potential energy  (eV) =     -81.316513        -80.153215
       Total energy      (eV) =     -69.725372        -68.785634
       Temperature       (K)  =    2892.676768       2836.885376
       Pressure         (GPa) =      20.097715         20.952011
  ** Time :            1.55400 ps :
     Properties:                   Instantaneous       Averaged
       Kinetic energy    (eV) =      11.018396         11.364436
       Potential energy  (eV) =     -80.904826        -80.159986
       Total energy      (eV) =     -69.886430        -68.795551
       Temperature       (K)  =    2749.742788       2836.100307
       Pressure         (GPa) =      20.810732         20.950738
  ** Time :            1.56800 ps :
     Properties:                   Instantaneous       Averaged
       Kinetic energy    (eV) =      10.692239         11.358434
       Potential energy  (eV) =     -79.262597        -80.151974
       Total energy      (eV) =     -68.570357        -68.793540
       Temperature       (K)  =    2668.347473       2834.602514
       Pressure         (GPa) =      22.547159         20.964992
  ** Time :            1.58200 ps :
     Properties:                   Instantaneous       Averaged
       Kinetic energy    (eV) =      11.637575         11.360904
       Potential energy  (eV) =     -78.849586        -80.140448
       Total energy      (eV) =     -67.212011        -68.779544
       Temperature       (K)  =    2904.264715       2835.218994
       Pressure         (GPa) =      23.097588         20.983864
  ** Time :            1.59600 ps :
     Properties:                   Instantaneous       Averaged
       Kinetic energy    (eV) =      11.822642         11.364954
       Potential energy  (eV) =     -79.856280        -80.137956
       Total energy      (eV) =     -68.033638        -68.773001
       Temperature       (K)  =    2950.450016       2836.229792
       Pressure         (GPa) =      22.061236         20.993315
  ** Time :            1.61000 ps :
     Properties:                   Instantaneous       Averaged
       Kinetic energy    (eV) =      11.028164         11.362026
       Potential energy  (eV) =     -79.542288        -80.132776
       Total energy      (eV) =     -68.514124        -68.770750
       Temperature       (K)  =    2752.180657       2835.498930
       Pressure         (GPa) =      22.073884         21.002711
  ** Time :            1.62400 ps :
     Properties:                   Instantaneous       Averaged
       Kinetic energy    (eV) =      11.239835         11.360973
       Potential energy  (eV) =     -79.007202        -80.123073
       Total energy      (eV) =     -67.767367        -68.762100
       Temperature       (K)  =    2805.005147       2835.236053
       Pressure         (GPa) =      22.563785         21.016169
  ** Time :            1.63800 ps :
     Properties:                   Instantaneous       Averaged
       Kinetic energy    (eV) =      11.631642         11.363286
       Potential energy  (eV) =     -79.321742        -80.116224
       Total energy      (eV) =     -67.690100        -68.752938
       Temperature       (K)  =    2902.784139       2835.813387
       Pressure         (GPa) =      22.231625         21.026557
  ** Time :            1.65200 ps :
     Properties:                   Instantaneous       Averaged
       Kinetic energy    (eV) =      11.461980         11.364122
       Potential energy  (eV) =     -79.812737        -80.113652
       Total energy      (eV) =     -68.350757        -68.749530
       Temperature       (K)  =    2860.443369       2836.022115
       Pressure         (GPa) =      21.521675         21.030753
  ** Time :            1.66600 ps :
     Properties:                   Instantaneous       Averaged
       Kinetic energy    (eV) =      11.193257         11.362686
       Potential energy  (eV) =     -79.384807        -80.107527
       Total energy      (eV) =     -68.191550        -68.744841
       Temperature       (K)  =    2793.381072       2835.663787
       Pressure         (GPa) =      21.599210         21.035530
  ** Time :            1.68000 ps :
     Properties:                   Instantaneous       Averaged
       Kinetic energy    (eV) =      11.521751         11.364012
       Potential energy  (eV) =     -79.402522        -80.101652
       Total energy      (eV) =     -67.880772        -68.737640
       Temperature       (K)  =    2875.359728       2835.994587
       Pressure         (GPa) =      21.646180         21.040619
  ** Time :            1.69400 ps :
     Properties:                   Instantaneous       Averaged
       Kinetic energy    (eV) =      11.399956         11.364309
       Potential energy  (eV) =     -79.657763        -80.097984
       Total energy      (eV) =     -68.257807        -68.733675
       Temperature       (K)  =    2844.964847       2836.068721
       Pressure         (GPa) =      21.807965         21.046960
  ** Time :            1.70800 ps :
     Properties:                   Instantaneous       Averaged
       Kinetic energy    (eV) =      11.015103         11.361447
       Potential energy  (eV) =     -79.065466        -80.089520
       Total energy      (eV) =     -68.050363        -68.728074
       Temperature       (K)  =    2748.920986       2835.354395
       Pressure         (GPa) =      22.638524         21.060006
  ** Time :            1.72200 ps :
     Properties:                   Instantaneous       Averaged
       Kinetic energy    (eV) =      11.449911         11.362166
       Potential energy  (eV) =     -78.657230        -80.077876
       Total energy      (eV) =     -67.207319        -68.715710
       Temperature       (K)  =    2857.431410       2835.533883
       Pressure         (GPa) =      23.147023         21.076974
  ** Time :            1.73600 ps :
     Properties:                   Instantaneous       Averaged
       Kinetic energy    (eV) =      11.608466         11.364152
       Potential energy  (eV) =     -79.154017        -80.070425
       Total energy      (eV) =     -67.545551        -68.706273
       Temperature       (K)  =    2897.000405       2836.029581
       Pressure         (GPa) =      22.640967         21.089587
  ** Time :            1.75000 ps :
     Properties:                   Instantaneous       Averaged
       Kinetic energy    (eV) =      11.082844         11.361902
       Potential energy  (eV) =     -78.656123        -80.059111
       Total energy      (eV) =     -67.573279        -68.697209
       Temperature       (K)  =    2765.826418       2835.467956
       Pressure         (GPa) =      22.824600         21.103467
  ** Time :            1.76400 ps :
     Properties:                   Instantaneous       Averaged
       Kinetic energy    (eV) =      11.481967         11.362855
       Potential energy  (eV) =     -78.260741        -80.044838
       Total energy      (eV) =     -66.778774        -68.681983
       Temperature       (K)  =    2865.431428       2835.705761
       Pressure         (GPa) =      23.139816         21.119628
  ** Time :            1.77800 ps :
     Properties:                   Instantaneous       Averaged
       Kinetic energy    (eV) =      11.753297         11.365929
       Potential energy  (eV) =     -78.966960        -80.036351
       Total energy      (eV) =     -67.213663        -68.670422
       Temperature       (K)  =    2933.144286       2836.472994
       Pressure         (GPa) =      22.539716         21.130810
  ** Time :            1.79200 ps :
     Properties:                   Instantaneous       Averaged
       Kinetic energy    (eV) =      11.518683         11.367122
       Potential energy  (eV) =     -79.126282        -80.029241
       Total energy      (eV) =     -67.607599        -68.662118
       Temperature       (K)  =    2874.594138       2836.770815
       Pressure         (GPa) =      22.230662         21.139403
  ** Time :            1.80600 ps :
     Properties:                   Instantaneous       Averaged
       Kinetic energy    (eV) =      11.689642         11.369623
       Potential energy  (eV) =     -79.481919        -80.024998
       Total energy      (eV) =     -67.792277        -68.655376
       Temperature       (K)  =    2917.258589       2837.394751
       Pressure         (GPa) =      21.838829         21.144824
  ** Time :            1.82000 ps :
     Properties:                   Instantaneous       Averaged
       Kinetic energy    (eV) =      11.583287         11.371266
       Potential energy  (eV) =     -79.526458        -80.021163
       Total energy      (eV) =     -67.943172        -68.649897
       Temperature       (K)  =    2890.716613       2837.804919
       Pressure         (GPa) =      21.680898         21.148948
  ** Time :            1.83400 ps :
     Properties:                   Instantaneous       Averaged
       Kinetic energy    (eV) =      11.748083         11.374143
       Potential energy  (eV) =     -79.848040        -80.019842
       Total energy      (eV) =     -68.099957        -68.645699
       Temperature       (K)  =    2931.843123       2838.522768
       Pressure         (GPa) =      21.428573         21.151083
  ** Time :            1.84800 ps :
     Properties:                   Instantaneous       Averaged
       Kinetic energy    (eV) =      11.238119         11.373112
       Potential energy  (eV) =     -79.684727        -80.017303
       Total energy      (eV) =     -68.446608        -68.644191
       Temperature       (K)  =    2804.576771       2838.265602
       Pressure         (GPa) =      21.627794         21.154694
  ** Time :            1.86200 ps :
     Properties:                   Instantaneous       Averaged
       Kinetic energy    (eV) =      11.184546         11.371694
       Potential energy  (eV) =     -78.806889        -80.008202
       Total energy      (eV) =     -67.622343        -68.636508
       Temperature       (K)  =    2791.207080       2837.911778
       Pressure         (GPa) =      22.558486         21.165249
  ** Time :            1.87600 ps :
     Properties:                   Instantaneous       Averaged
       Kinetic energy    (eV) =      12.064845         11.376867
       Potential energy  (eV) =     -79.396085        -80.003634
       Total energy      (eV) =     -67.331240        -68.626767
       Temperature       (K)  =    3010.894066       2839.202691
       Pressure         (GPa) =      22.255919         21.173388
  ** Time :            1.89000 ps :
     Properties:                   Instantaneous       Averaged
       Kinetic energy    (eV) =      11.841596         11.380310
       Potential energy  (eV) =     -80.525816        -80.007502
       Total energy      (eV) =     -68.684220        -68.627192
       Temperature       (K)  =    2955.180036       2840.061782
       Pressure         (GPa) =      21.148161         21.173201
  ** Time :            1.90400 ps :
     Properties:                   Instantaneous       Averaged
       Kinetic energy    (eV) =      11.425594         11.380643
       Potential energy  (eV) =     -80.516393        -80.011244
       Total energy      (eV) =     -69.090798        -68.630601
       Temperature       (K)  =    2851.363011       2840.144880
       Pressure         (GPa) =      21.013856         21.172030
  ** Time :            1.91800 ps :
     Properties:                   Instantaneous       Averaged
       Kinetic energy    (eV) =      11.373009         11.380587
       Potential energy  (eV) =     -80.253401        -80.013011
       Total energy      (eV) =     -68.880392        -68.632425
       Temperature       (K)  =    2838.239813       2840.130974
       Pressure         (GPa) =      21.278963         21.172810
  ** Time :            1.93200 ps :
     Properties:                   Instantaneous       Averaged
       Kinetic energy    (eV) =      10.808239         11.376439
       Potential energy  (eV) =     -79.286926        -80.007750
       Total energy      (eV) =     -68.478687        -68.631311
       Temperature       (K)  =    2697.296218       2839.095939
       Pressure         (GPa) =      22.149541         21.179888
  ** Time :            1.94600 ps :
     Properties:                   Instantaneous       Averaged
       Kinetic energy    (eV) =      10.606412         11.370900
       Potential energy  (eV) =     -77.452131        -79.989364
       Total energy      (eV) =     -66.845719        -68.618465
       Temperature       (K)  =    2646.928483       2837.713440
       Pressure         (GPa) =      23.745981         21.198349
  ** Time :            1.96000 ps :
     Properties:                   Instantaneous       Averaged
       Kinetic energy    (eV) =      11.955917         11.375078
       Potential energy  (eV) =     -77.642870        -79.972604
       Total energy      (eV) =     -65.686953        -68.597525
       Temperature       (K)  =    2983.709993       2838.756272
       Pressure         (GPa) =      23.889512         21.217572
  ** Time :            1.97400 ps :
     Properties:                   Instantaneous       Averaged
       Kinetic energy    (eV) =      11.473126         11.375774
       Potential energy  (eV) =     -78.364778        -79.961200
       Total energy      (eV) =     -66.891652        -68.585427
       Temperature       (K)  =    2863.224990       2838.929809
       Pressure         (GPa) =      23.154534         21.231309
  ** Time :            1.98800 ps :
     Properties:                   Instantaneous       Averaged
       Kinetic energy    (eV) =      11.441294         11.376235
       Potential energy  (eV) =     -78.013388        -79.947483
       Total energy      (eV) =     -66.572094        -68.571248
       Temperature       (K)  =    2855.281100       2839.044959
       Pressure         (GPa) =      23.281109         21.245744
  ** Time :            2.00200 ps :
     Properties:                   Instantaneous       Averaged
       Kinetic energy    (eV) =      11.894388         11.379859
       Potential energy  (eV) =     -78.504340        -79.937392
       Total energy      (eV) =     -66.609952        -68.557533
       Temperature       (K)  =    2968.354943       2839.949225
       Pressure         (GPa) =      22.801863         21.256626
  ** Time :            2.01600 ps :
     Properties:                   Instantaneous       Averaged
       Kinetic energy    (eV) =      11.493260         11.380646
       Potential energy  (eV) =     -78.915236        -79.930293
       Total energy      (eV) =     -67.421976        -68.549647
       Temperature       (K)  =    2868.249742       2840.145756
       Pressure         (GPa) =      22.257375         21.263576
  ** Time :            2.03000 ps :
     Properties:                   Instantaneous       Averaged
       Kinetic energy    (eV) =      11.277770         11.379937
       Potential energy  (eV) =     -78.689605        -79.921737
       Total energy      (eV) =     -67.411835        -68.541800
       Temperature       (K)  =    2814.472061       2839.968696
       Pressure         (GPa) =      22.311769         21.270805
  ** Time :            2.04400 ps :
     Properties:                   Instantaneous       Averaged
       Kinetic energy    (eV) =      11.188191         11.378623
       Potential energy  (eV) =     -78.254397        -79.910317
       Total energy      (eV) =     -67.066206        -68.531693
       Temperature       (K)  =    2792.116854       2839.640944
       Pressure         (GPa) =      22.539488         21.279494
  ** Time :            2.05800 ps :
     Properties:                   Instantaneous       Averaged
       Kinetic energy    (eV) =      12.360556         11.385303
       Potential energy  (eV) =     -79.425920        -79.907021
       Total energy      (eV) =     -67.065364        -68.521718
       Temperature       (K)  =    3084.691416       2841.307954
       Pressure         (GPa) =      21.582010         21.281552
  ** Time :            2.07200 ps :
     Properties:                   Instantaneous       Averaged
       Kinetic energy    (eV) =      11.697541         11.387413
       Potential energy  (eV) =     -80.864195        -79.913489
       Total energy      (eV) =     -69.166654        -68.526076
       Temperature       (K)  =    2919.229788       2841.834453
       Pressure         (GPa) =      20.238399         21.274504
  ** Time :            2.08600 ps :
     Properties:                   Instantaneous       Averaged
       Kinetic energy    (eV) =      11.349798         11.387160
       Potential energy  (eV) =     -80.400377        -79.916757
       Total energy      (eV) =     -69.050579        -68.529596
       Temperature       (K)  =    2832.447322       2841.771452
       Pressure         (GPa) =      20.750723         21.270989
  ** Time :            2.10000 ps :
     Properties:                   Instantaneous       Averaged
       Kinetic energy    (eV) =      11.543358         11.388202
       Potential energy  (eV) =     -80.305117        -79.919346
       Total energy      (eV) =     -68.761759        -68.531144
       Temperature       (K)  =    2880.751981       2842.031322
       Pressure         (GPa) =      21.099758         21.269847
  ** Time :            2.11400 ps :
     Properties:                   Instantaneous       Averaged
       Kinetic energy    (eV) =      11.237466         11.387203
       Potential energy  (eV) =     -79.992772        -79.919832
       Total energy      (eV) =     -68.755306        -68.532629
       Temperature       (K)  =    2804.413942       2841.782200
       Pressure         (GPa) =      21.537946         21.271623
  ** Time :            2.12800 ps :
     Properties:                   Instantaneous       Averaged
       Kinetic energy    (eV) =      10.853435         11.383692
       Potential energy  (eV) =     -79.056622        -79.914153
       Total energy      (eV) =     -68.203186        -68.530461
       Temperature       (K)  =    2708.575471       2840.905840
       Pressure         (GPa) =      22.661925         21.280769
  ** Time :            2.14200 ps :
     Properties:                   Instantaneous       Averaged
       Kinetic energy    (eV) =      10.821304         11.380016
       Potential energy  (eV) =     -77.781482        -79.900214
       Total energy      (eV) =     -66.960178        -68.520198
       Temperature       (K)  =    2700.556797       2839.988526
       Pressure         (GPa) =      24.233534         21.300068
  ** Time :            2.15600 ps :
     Properties:                   Instantaneous       Averaged
       Kinetic energy    (eV) =      11.394253         11.380108
       Potential energy  (eV) =     -77.631200        -79.885480
       Total energy      (eV) =     -66.236947        -68.505372
       Temperature       (K)  =    2843.541464       2840.011597
       Pressure         (GPa) =      24.808671         21.322852
  ** Time :            2.17000 ps :
     Properties:                   Instantaneous       Averaged
       Kinetic energy    (eV) =      11.390204         11.380174
       Potential energy  (eV) =     -77.613780        -79.870824
       Total energy      (eV) =     -66.223576        -68.490650
       Temperature       (K)  =    2842.530982       2840.027851
       Pressure         (GPa) =      24.780952         21.345162
  ** Time :            2.18400 ps :
     Properties:                   Instantaneous       Averaged
       Kinetic energy    (eV) =      11.749752         11.382543
       Potential energy  (eV) =     -78.066600        -79.859258
       Total energy      (eV) =     -66.316848        -68.476716
       Temperature       (K)  =    2932.259570       2840.619080
       Pressure         (GPa) =      24.253386         21.363804
  ** Time :            2.19800 ps :
     Properties:                   Instantaneous       Averaged
       Kinetic energy    (eV) =      11.727421         11.384739
       Potential energy  (eV) =     -78.875285        -79.852991
       Total energy      (eV) =     -67.147865        -68.468252
       Temperature       (K)  =    2926.686628       2841.167281
       Pressure         (GPa) =      23.309513         21.376197
  ** Time :            2.21200 ps :
     Properties:                   Instantaneous       Averaged
       Kinetic energy    (eV) =      11.516374         11.385572
       Potential energy  (eV) =     -79.131139        -79.848422
       Total energy      (eV) =     -67.614765        -68.462850
       Temperature       (K)  =    2874.017910       2841.375197
       Pressure         (GPa) =      22.860743         21.385593
  ** Time :            2.22600 ps :
     Properties:                   Instantaneous       Averaged
       Kinetic energy    (eV) =      11.664210         11.387325
       Potential energy  (eV) =     -79.556795        -79.846588
       Total energy      (eV) =     -67.892586        -68.459263
       Temperature       (K)  =    2910.911658       2841.812533
       Pressure         (GPa) =      22.630013         21.393420
  ** Time :            2.24000 ps :
     Properties:                   Instantaneous       Averaged
       Kinetic energy    (eV) =      10.999930         11.384904
       Potential energy  (eV) =     -79.152654        -79.842251
       Total energy      (eV) =     -68.152724        -68.457347
       Temperature       (K)  =    2745.134444       2841.208295
       Pressure         (GPa) =      23.164034         21.404486
  ** Time :            2.25400 ps :
     Properties:                   Instantaneous       Averaged
       Kinetic energy    (eV) =      11.420213         11.385123
       Potential energy  (eV) =     -78.483415        -79.833811
       Total energy      (eV) =     -67.063202        -68.448688
       Temperature       (K)  =    2850.020028       2841.263026
       Pressure         (GPa) =      23.925345         21.420144
  ** Time :            2.26800 ps :
     Properties:                   Instantaneous       Averaged
       Kinetic energy    (eV) =      11.672950         11.386900
       Potential energy  (eV) =     -79.249805        -79.830206
       Total energy      (eV) =     -67.576856        -68.443306
       Temperature       (K)  =    2913.092884       2841.706420
       Pressure         (GPa) =      23.300022         21.431748
  ** Time :            2.28200 ps :
     Properties:                   Instantaneous       Averaged
       Kinetic energy    (eV) =      10.824142         11.383447
       Potential energy  (eV) =     -78.708976        -79.823327
       Total energy      (eV) =     -67.884834        -68.439880
       Temperature       (K)  =    2701.265103       2840.844817
       Pressure         (GPa) =      23.766101         21.446069
  ** Time :            2.29600 ps :
     Properties:                   Instantaneous       Averaged
       Kinetic energy    (eV) =      11.463880         11.383938
[...]
       Kinetic energy    (eV) =       9.941115         10.745576
       Potential energy  (eV) =     -79.085702        -79.737459
       Total energy      (eV) =     -69.144586        -68.991883
       Temperature       (K)  =    2480.897545       2681.658190
       Pressure         (GPa) =      21.742730         21.514183
  ** Time :            9.39400 ps :
     Properties:                   Instantaneous       Averaged
       Kinetic energy    (eV) =       8.529241         10.742273
       Potential energy  (eV) =     -77.378717        -79.733943
       Total energy      (eV) =     -68.849476        -68.991670
       Temperature       (K)  =    2128.551151       2680.833887
       Pressure         (GPa) =      23.175446         21.516659
  ** Time :            9.40800 ps :
     Properties:                   Instantaneous       Averaged
       Kinetic energy    (eV) =       8.851373         10.739459
       Potential energy  (eV) =     -77.804381        -79.731072
       Total energy      (eV) =     -68.953008        -68.991613
       Temperature       (K)  =    2208.942228       2680.131668
       Pressure         (GPa) =      22.966606         21.518817
  ** Time :            9.42200 ps :
     Properties:                   Instantaneous       Averaged
       Kinetic energy    (eV) =      10.678217         10.739368
       Potential energy  (eV) =     -79.754812        -79.731107
       Total energy      (eV) =     -69.076594        -68.991739
       Temperature       (K)  =    2664.848156       2680.108958
       Pressure         (GPa) =      21.395383         21.518633
  ** Time :            9.43600 ps :
     Properties:                   Instantaneous       Averaged
       Kinetic energy    (eV) =      11.732114         10.740841
       Potential energy  (eV) =     -80.864333        -79.732789
       Total energy      (eV) =     -69.132219        -68.991947
       Temperature       (K)  =    2927.857838       2680.476538
       Pressure         (GPa) =      20.371275         21.516931
  ** Time :            9.45000 ps :
     Properties:                   Instantaneous       Averaged
       Kinetic energy    (eV) =      11.119663         10.741402
       Potential energy  (eV) =     -80.165885        -79.733430
       Total energy      (eV) =     -69.046222        -68.992028
       Temperature       (K)  =    2775.015115       2680.616595
       Pressure         (GPa) =      20.866297         21.515967
  ** Time :            9.46400 ps :
     Properties:                   Instantaneous       Averaged
       Kinetic energy    (eV) =       9.629682         10.739758
       Potential energy  (eV) =     -78.559537        -79.731694
       Total energy      (eV) =     -68.929856        -68.991936
       Temperature       (K)  =    2403.176415       2680.206181
       Pressure         (GPa) =      22.238290         21.517036
  ** Time :            9.47800 ps :
     Properties:                   Instantaneous       Averaged
       Kinetic energy    (eV) =       8.934249         10.737091
       Potential energy  (eV) =     -77.847397        -79.728910
       Total energy      (eV) =     -68.913148        -68.991820
       Temperature       (K)  =    2229.624782       2679.540625
       Pressure         (GPa) =      22.998668         21.519224
  ** Time :            9.49200 ps :
     Properties:                   Instantaneous       Averaged
       Kinetic energy    (eV) =       9.344507         10.735037
       Potential energy  (eV) =     -78.380528        -79.726922
       Total energy      (eV) =     -69.036021        -68.991885
       Temperature       (K)  =    2332.008375       2679.028040
       Pressure         (GPa) =      22.795980         21.521107
  ** Time :            9.50600 ps :
     Properties:                   Instantaneous       Averaged
       Kinetic energy    (eV) =       9.741579         10.733574
       Potential energy  (eV) =     -78.703571        -79.725415
       Total energy      (eV) =     -68.961992        -68.991841
       Temperature       (K)  =    2431.101464       2678.662905
       Pressure         (GPa) =      22.571181         21.522654
  ** Time :            9.52000 ps :
     Properties:                   Instantaneous       Averaged
       Kinetic energy    (eV) =      10.327276         10.732976
       Potential energy  (eV) =     -79.359984        -79.724877
       Total energy      (eV) =     -69.032708        -68.991901
       Temperature       (K)  =    2577.267521       2678.513795
       Pressure         (GPa) =      22.010412         21.523371
  ** Time :            9.53400 ps :
     Properties:                   Instantaneous       Averaged
       Kinetic energy    (eV) =      10.573854         10.732743
       Potential energy  (eV) =     -79.579629        -79.724664
       Total energy      (eV) =     -69.005776        -68.991921
       Temperature       (K)  =    2638.803266       2678.455483
       Pressure         (GPa) =      21.728831         21.523673
  ** Time :            9.54800 ps :
     Properties:                   Instantaneous       Averaged
       Kinetic energy    (eV) =      10.948804         10.733060
       Potential energy  (eV) =     -79.931379        -79.724967
       Total energy      (eV) =     -68.982574        -68.991907
       Temperature       (K)  =    2732.375697       2678.534544
       Pressure         (GPa) =      21.277886         21.523312
  ** Time :            9.56200 ps :
     Properties:                   Instantaneous       Averaged
       Kinetic energy    (eV) =      10.981191         10.733423
       Potential energy  (eV) =     -80.207396        -79.725673
       Total energy      (eV) =     -69.226205        -68.992250
       Temperature       (K)  =    2740.458041       2678.625208
       Pressure         (GPa) =      21.075399         21.522657
  ** Time :            9.57600 ps :
     Properties:                   Instantaneous       Averaged
       Kinetic energy    (eV) =       9.388270         10.731456
       Potential energy  (eV) =     -78.193629        -79.723433
       Total energy      (eV) =     -68.805358        -68.991977
       Temperature       (K)  =    2342.929963       2678.134426
       Pressure         (GPa) =      22.839560         21.524582
  ** Time :            9.59000 ps :
     Properties:                   Instantaneous       Averaged
       Kinetic energy    (eV) =       9.662611         10.729896
       Potential energy  (eV) =     -78.630626        -79.721838
       Total energy      (eV) =     -68.968016        -68.991942
       Temperature       (K)  =    2411.394096       2677.745024
       Pressure         (GPa) =      22.798700         21.526442
  ** Time :            9.60400 ps :
     Properties:                   Instantaneous       Averaged
       Kinetic energy    (eV) =      10.994010         10.730281
       Potential energy  (eV) =     -80.079853        -79.722360
       Total energy      (eV) =     -69.085843        -68.992079
       Temperature       (K)  =    2743.657113       2677.841106
       Pressure         (GPa) =      21.607175         21.526560
  ** Time :            9.61800 ps :
     Properties:                   Instantaneous       Averaged
       Kinetic energy    (eV) =      10.934000         10.730577
       Potential energy  (eV) =     -80.016045        -79.722788
       Total energy      (eV) =     -69.082045        -68.992210
       Temperature       (K)  =    2728.681168       2677.915109
       Pressure         (GPa) =      21.329946         21.526273
  ** Time :            9.63200 ps :
     Properties:                   Instantaneous       Averaged
       Kinetic energy    (eV) =       9.867727         10.729323
       Potential energy  (eV) =     -78.740823        -79.721360
       Total energy      (eV) =     -68.873096        -68.992037
       Temperature       (K)  =    2462.582823       2677.602126
       Pressure         (GPa) =      21.997811         21.526959
  ** Time :            9.64600 ps :
     Properties:                   Instantaneous       Averaged
       Kinetic energy    (eV) =      10.106137         10.728419
       Potential energy  (eV) =     -79.017530        -79.720339
       Total energy      (eV) =     -68.911393        -68.991920
       Temperature       (K)  =    2522.080241       2677.376405
       Pressure         (GPa) =      21.610680         21.527080
  ** Time :            9.66000 ps :
     Properties:                   Instantaneous       Averaged
       Kinetic energy    (eV) =      11.273554         10.729209
       Potential energy  (eV) =     -80.381617        -79.721297
       Total energy      (eV) =     -69.108063        -68.992088
       Temperature       (K)  =    2813.419840       2677.573569
       Pressure         (GPa) =      20.549977         21.525664
  ** Time :            9.67400 ps :
     Properties:                   Instantaneous       Averaged
       Kinetic energy    (eV) =      11.123394         10.729779
       Potential energy  (eV) =     -80.173064        -79.721951
       Total energy      (eV) =     -69.049670        -68.992172
       Temperature       (K)  =    2775.946039       2677.715931
       Pressure         (GPa) =      20.892090         21.524747
  ** Time :            9.68800 ps :
     Properties:                   Instantaneous       Averaged
       Kinetic energy    (eV) =       9.784243         10.728413
       Potential energy  (eV) =     -78.716790        -79.720498
       Total energy      (eV) =     -68.932547        -68.992085
       Temperature       (K)  =    2441.748682       2677.374938
       Pressure         (GPa) =      22.289958         21.525853
  ** Time :            9.70200 ps :
     Properties:                   Instantaneous       Averaged
       Kinetic energy    (eV) =       9.337940         10.726406
       Potential energy  (eV) =     -78.159324        -79.718246
       Total energy      (eV) =     -68.821384        -68.991839
       Temperature       (K)  =    2330.369483       2676.874209
       Pressure         (GPa) =      22.800275         21.527692
  ** Time :            9.71600 ps :
     Properties:                   Instantaneous       Averaged
       Kinetic energy    (eV) =      10.926647         10.726695
       Potential energy  (eV) =     -79.951652        -79.718582
       Total energy      (eV) =     -69.025005        -68.991887
       Temperature       (K)  =    2726.846104       2676.946215
       Pressure         (GPa) =      21.233754         21.527269
  ** Time :            9.73000 ps :
     Properties:                   Instantaneous       Averaged
       Kinetic energy    (eV) =      12.684304         10.729512
       Potential energy  (eV) =     -81.699153        -79.721432
       Total energy      (eV) =     -69.014849        -68.991920
       Temperature       (K)  =    3165.485646       2677.649149
       Pressure         (GPa) =      19.597937         21.524493
  ** Time :            9.74400 ps :
     Properties:                   Instantaneous       Averaged
       Kinetic energy    (eV) =      13.409886         10.733363
       Potential energy  (eV) =     -82.528172        -79.725464
       Total energy      (eV) =     -69.118286        -68.992101
       Temperature       (K)  =    3346.561368       2678.610230
       Pressure         (GPa) =      18.834786         21.520628
  ** Time :            9.75800 ps :
     Properties:                   Instantaneous       Averaged
       Kinetic energy    (eV) =      12.362707         10.735700
       Potential energy  (eV) =     -81.376450        -79.727833
       Total energy      (eV) =     -69.013743        -68.992133
       Temperature       (K)  =    3085.228136       2679.193613
       Pressure         (GPa) =      19.796419         21.518154
  ** Time :            9.77200 ps :
     Properties:                   Instantaneous       Averaged
       Kinetic energy    (eV) =      11.060222         10.736165
       Potential energy  (eV) =     -79.959250        -79.728165
       Total energy      (eV) =     -68.899028        -68.991999
       Temperature       (K)  =    2760.180851       2679.309640
       Pressure         (GPa) =      21.100416         21.517556
  ** Time :            9.78600 ps :
     Properties:                   Instantaneous       Averaged
       Kinetic energy    (eV) =      11.013510         10.736562
       Potential energy  (eV) =     -79.971044        -79.728512
       Total energy      (eV) =     -68.957534        -68.991950
       Temperature       (K)  =    2748.523458       2679.408659
       Pressure         (GPa) =      21.167856         21.517055
  ** Time :            9.80000 ps :
     Properties:                   Instantaneous       Averaged
       Kinetic energy    (eV) =      11.213779         10.737244
       Potential energy  (eV) =     -80.272016        -79.729288
       Total energy      (eV) =     -69.058237        -68.992045
       Temperature       (K)  =    2798.502630       2679.578793
       Pressure         (GPa) =      20.745280         21.515953
  ** Time :            9.81400 ps :
     Properties:                   Instantaneous       Averaged
       Kinetic energy    (eV) =      10.956712         10.737557
       Potential energy  (eV) =     -79.857874        -79.729472
       Total energy      (eV) =     -68.901161        -68.991915
       Temperature       (K)  =    2734.349137       2679.656925
       Pressure         (GPa) =      20.837004         21.514984
  ** Time :            9.82800 ps :
     Properties:                   Instantaneous       Averaged
       Kinetic energy    (eV) =      11.021840         10.737962
       Potential energy  (eV) =     -80.124534        -79.730035
       Total energy      (eV) =     -69.102694        -68.992073
       Temperature       (K)  =    2750.602286       2679.757986
       Pressure         (GPa) =      20.691581         21.513811
  ** Time :            9.84200 ps :
     Properties:                   Instantaneous       Averaged
       Kinetic energy    (eV) =       9.972065         10.736872
       Potential energy  (eV) =     -79.058771        -79.729080
       Total energy      (eV) =     -69.086705        -68.992207
       Temperature       (K)  =    2488.621421       2679.486099
       Pressure         (GPa) =      21.874686         21.514325
  ** Time :            9.85600 ps :
     Properties:                   Instantaneous       Averaged
       Kinetic energy    (eV) =       8.445473         10.733618
       Potential energy  (eV) =     -77.269496        -79.725586
       Total energy      (eV) =     -68.824024        -68.991968
       Temperature       (K)  =    2107.646012       2678.673826
       Pressure         (GPa) =      23.663708         21.517378
  ** Time :            9.87000 ps :
     Properties:                   Instantaneous       Averaged
       Kinetic energy    (eV) =       9.289926         10.731570
       Potential energy  (eV) =     -78.292205        -79.723553
       Total energy      (eV) =     -69.002279        -68.991983
       Temperature       (K)  =    2318.387084       2678.162781
       Pressure         (GPa) =      23.022191         21.519512
  ** Time :            9.88400 ps :
     Properties:                   Instantaneous       Averaged
       Kinetic energy    (eV) =      10.712195         10.731542
       Potential energy  (eV) =     -79.827815        -79.723701
       Total energy      (eV) =     -69.115620        -68.992158
       Temperature       (K)  =    2673.327619       2678.155933
       Pressure         (GPa) =      21.697095         21.519764
  ** Time :            9.89800 ps :
     Properties:                   Instantaneous       Averaged
       Kinetic energy    (eV) =      10.672224         10.731459
       Potential energy  (eV) =     -79.727559        -79.723706
       Total energy      (eV) =     -69.055334        -68.992248
       Temperature       (K)  =    2663.352584       2678.134995
       Pressure         (GPa) =      21.670591         21.519977
  ** Time :            9.91200 ps :
     Properties:                   Instantaneous       Averaged
       Kinetic energy    (eV) =      10.097383         10.730563
       Potential energy  (eV) =     -78.918391        -79.722569
       Total energy      (eV) =     -68.821008        -68.992006
       Temperature       (K)  =    2519.895674       2677.911493
       Pressure         (GPa) =      22.102770         21.520800
  ** Time :            9.92600 ps :
     Properties:                   Instantaneous       Averaged
       Kinetic energy    (eV) =      11.155873         10.731163
       Potential energy  (eV) =     -80.201117        -79.723244
       Total energy      (eV) =     -69.045244        -68.992081
       Temperature       (K)  =    2784.051476       2678.061196
       Pressure         (GPa) =      20.802705         21.519788
  ** Time :            9.94000 ps :
     Properties:                   Instantaneous       Averaged
       Kinetic energy    (eV) =      12.308848         10.733385
       Potential energy  (eV) =     -81.373398        -79.725568
       Total energy      (eV) =     -69.064550        -68.992183
       Temperature       (K)  =    3071.787283       2678.615740
       Pressure         (GPa) =      19.671335         21.517184
  ** Time :            9.95400 ps :
     Properties:                   Instantaneous       Averaged
       Kinetic energy    (eV) =      12.185560         10.735427
       Potential energy  (eV) =     -81.312333        -79.727799
       Total energy      (eV) =     -69.126773        -68.992372
       Temperature       (K)  =    3041.019458       2679.125450
       Pressure         (GPa) =      19.823990         21.514803
  ** Time :            9.96800 ps :
     Properties:                   Instantaneous       Averaged
       Kinetic energy    (eV) =      10.421356         10.734986
       Potential energy  (eV) =     -79.514171        -79.727499
       Total energy      (eV) =     -69.092815        -68.992513
       Temperature       (K)  =    2600.745934       2679.015366
       Pressure         (GPa) =      21.457247         21.514722
  ** Time :            9.98200 ps :
     Properties:                   Instantaneous       Averaged
       Kinetic energy    (eV) =       8.659397         10.732075
       Potential energy  (eV) =     -77.433661        -79.724282
       Total energy      (eV) =     -68.774264        -68.992207
       Temperature       (K)  =    2161.032840       2678.288883
       Pressure         (GPa) =      23.044920         21.516868
  ** Time :            9.99600 ps :
     Properties:                   Instantaneous       Averaged
       Kinetic energy    (eV) =      10.175921         10.731296
       Potential energy  (eV) =     -79.222354        -79.723579
       Total energy      (eV) =     -69.046433        -68.992283
       Temperature       (K)  =    2539.495527       2678.094495
       Pressure         (GPa) =      21.556431         21.516923

  Peak dynamic memory used =       0.57 MB 


  Timing analysis for GULP :

--------------------------------------------------------------------------------
  Task / Subroutine                                          Time (Seconds)
--------------------------------------------------------------------------------
  Calculation of real space energy and derivatives                1.4960
  Calculation of many-body energy and derivatives                 0.8200
--------------------------------------------------------------------------------
  Total CPU time                                                  2.6800
--------------------------------------------------------------------------------


  Dump file written as Recovery_2_3000_0.014.res                               
  GULP ASCII trajectory file written as Trajectories_2_3000_0.014.trg           


  Job Finished at 18:24.32 17th May        2018                               

