********************************************************************************
*                       GENERAL UTILITY LATTICE PROGRAM                        *
*                                 Julian Gale                                  *
*                       Curtin Institute for Computation                       *
*                           Department of Chemistry                            *
*                    Curtin University, Western Australia                      *
********************************************************************************
* Version = 5.0.0 * Last modified =  18th April 2018                           *
********************************************************************************
*  single       - perform a single point run                                   *
*  md           - perform molecular dynamics run                               *
*  conv         - constant volume calculation                                  *
********************************************************************************
* molecular dynamics of silver                                                 *
********************************************************************************


  Job Started  at 18:21.33 17th May        2018                               

  Number of CPUs =     1


  Total number of configurations input =   1

********************************************************************************
*  Input for Configuration =   1                                               *
********************************************************************************

  Formula = Ag32                                                        

  Number of irreducible atoms/shells =      32


  Total number atoms/shells =      32

  Dimensionality = 3               :  Bulk   



  Supercell dimensions :  x =   2  y =   2  z =   2

  Cartesian lattice vectors (Angstroms) :

        8.170000    0.000000    0.000000
        0.000000    8.170000    0.000000
        0.000000    0.000000    8.170000

  Cell parameters (Angstroms/Degrees):

  a =       8.1700    alpha =  90.0000
  b =       8.1700    beta  =  90.0000
  c =       8.1700    gamma =  90.0000

  Initial cell volume =         545.338513 Angs**3

  Temperature of configuration =  3000.     K 

  Pressure of configuration =         0.000 GPa 

  Fractional coordinates of asymmetric unit :

--------------------------------------------------------------------------------
   No.  Atomic       x           y          z         Charge      Occupancy
        Label      (Frac)      (Frac)     (Frac)        (e)         (Frac)  
--------------------------------------------------------------------------------
      1 Ag    c    0.000000 *  0.000000 *  0.000000 *   0.00000    1.000000    
      2 Ag    c    0.000000 *  0.000000 *  0.500000 *   0.00000    1.000000    
      3 Ag    c    0.000000 *  0.500000 *  0.000000 *   0.00000    1.000000    
      4 Ag    c    0.000000 *  0.500000 *  0.500000 *   0.00000    1.000000    
      5 Ag    c    0.500000 *  0.000000 *  0.000000 *   0.00000    1.000000    
      6 Ag    c    0.500000 *  0.000000 *  0.500000 *   0.00000    1.000000    
      7 Ag    c    0.500000 *  0.500000 *  0.000000 *   0.00000    1.000000    
      8 Ag    c    0.500000 *  0.500000 *  0.500000 *   0.00000    1.000000    
      9 Ag    c    0.000000 *  0.250000 *  0.250000 *   0.00000    1.000000    
     10 Ag    c    0.000000 *  0.250000 *  0.750000 *   0.00000    1.000000    
     11 Ag    c    0.000000 *  0.750000 *  0.250000 *   0.00000    1.000000    
     12 Ag    c    0.000000 *  0.750000 *  0.750000 *   0.00000    1.000000    
     13 Ag    c    0.500000 *  0.250000 *  0.250000 *   0.00000    1.000000    
     14 Ag    c    0.500000 *  0.250000 *  0.750000 *   0.00000    1.000000    
     15 Ag    c    0.500000 *  0.750000 *  0.250000 *   0.00000    1.000000    
     16 Ag    c    0.500000 *  0.750000 *  0.750000 *   0.00000    1.000000    
     17 Ag    c    0.250000 *  0.000000 *  0.250000 *   0.00000    1.000000    
     18 Ag    c    0.250000 *  0.000000 *  0.750000 *   0.00000    1.000000    
     19 Ag    c    0.250000 *  0.500000 *  0.250000 *   0.00000    1.000000    
     20 Ag    c    0.250000 *  0.500000 *  0.750000 *   0.00000    1.000000    
     21 Ag    c    0.750000 *  0.000000 *  0.250000 *   0.00000    1.000000    
     22 Ag    c    0.750000 *  0.000000 *  0.750000 *   0.00000    1.000000    
     23 Ag    c    0.750000 *  0.500000 *  0.250000 *   0.00000    1.000000    
     24 Ag    c    0.750000 *  0.500000 *  0.750000 *   0.00000    1.000000    
     25 Ag    c    0.250000 *  0.250000 *  0.000000 *   0.00000    1.000000    
     26 Ag    c    0.250000 *  0.250000 *  0.500000 *   0.00000    1.000000    
     27 Ag    c    0.250000 *  0.750000 *  0.000000 *   0.00000    1.000000    
     28 Ag    c    0.250000 *  0.750000 *  0.500000 *   0.00000    1.000000    
     29 Ag    c    0.750000 *  0.250000 *  0.000000 *   0.00000    1.000000    
     30 Ag    c    0.750000 *  0.250000 *  0.500000 *   0.00000    1.000000    
     31 Ag    c    0.750000 *  0.750000 *  0.000000 *   0.00000    1.000000    
     32 Ag    c    0.750000 *  0.750000 *  0.500000 *   0.00000    1.000000    
--------------------------------------------------------------------------------



********************************************************************************
*  General input information                                                   *
********************************************************************************

  Species output for all configurations : 

--------------------------------------------------------------------------------
  Species    Type    Atomic    Atomic    Charge       Radii (Angs)     Library
                     Number     Mass       (e)     Cova   Ionic  VDW   Symbol
--------------------------------------------------------------------------------
    Ag       Core       47     107.87   0.000000   1.590  0.000  2.370          
--------------------------------------------------------------------------------


  Lattice summation method               =    Ewald          (3-D)
                                         =    Parry          (2-D)
                                         =    Saunders et al (1-D)
  Accuracy factor for lattice sums       =   12.000


  Time limit = Infinity

  Maximum range for interatomic potentials =    100000.000000 Angstroms

  General interatomic potentials :

--------------------------------------------------------------------------------
Atom  Types   Potential      Parameter       Value         Units   Cutoffs(Ang)
  1     2                                                            Min /  Max 
--------------------------------------------------------------------------------
Ag   c Ag   c Many-body                                             0.000  8.000
--------------------------------------------------------------------------------
Ag   c Ag   c Buckingham    Buckingham A     11454.950    eV        0.000 12.000
                            Buckingham rho  0.26432400    Ang       
                            Buckingham C     0.0000000    eV*Ang^6  
--------------------------------------------------------------------------------

  Embedded Atom Model Densities :

--------------------------------------------------------------------------------
  Atom(s)       Functional Form          A          B          C         n      
--------------------------------------------------------------------------------
  Ag   c        Exponential          1.388      2.173      2.889         0
--------------------------------------------------------------------------------


  Embedded Atom Model alloy parameters :

--------------------------------------------------------------------------------
  Atom(s)                          Scale factor 
--------------------------------------------------------------------------------
  Ag    c                            1.000000
--------------------------------------------------------------------------------

  Embedded Atom Model functional = Square Root

--------------------------------------------------------------------------------
  Atom                     A     
--------------------------------------------------------------------------------
  Ag    c               1.000000
--------------------------------------------------------------------------------


  Manybody second derivative cross term cutoffs to be scale by = 0.50000000

********************************************************************************
*  Output for configuration   1                                                *
********************************************************************************


  Components of energy : 

--------------------------------------------------------------------------------
  Interatomic potentials     =          39.71625760 eV    
  Many-body potentials       =        -134.45860512 eV    
  Monopole - monopole (real) =           0.00000000 eV    
  Monopole - monopole (recip)=           0.00000000 eV    
  Monopole - monopole (total)=           0.00000000 eV    
--------------------------------------------------------------------------------
  Total lattice energy       =         -94.74234752 eV    
--------------------------------------------------------------------------------
  Total lattice energy       =           -9141.1883 kJ/(mole unit cells)
--------------------------------------------------------------------------------

  Equations of motion will be integrated using the leapfrog Verlet algorithm.

********************************************************************************
*  Molecular Dynamics                                                          *
********************************************************************************

  Microcanonical ensemble (NVE) to be used

  No. of mobile ions        =                 32

  No. of degrees of freedom =                 93

  Time step                 =           0.020000 ps
  Equilibration time        =           5.000000 ps
  Production time           =          10.000000 ps
  Scaling time              =           5.000000 ps
  Scaling frequency         =           0.020000 ps
  Sampling frequency        =           0.020000 ps
  Write frequency           =           0.020000 ps
  TD-Force start time       =           0.000000 ps
  TD-Field start time       =           0.000000 ps



  Molecular dynamics equilibration :

  ** Time :            0.02000 ps :
     Properties:                   Instantaneous       Averaged
       Kinetic energy    (eV) =      12.021192         12.021192
       Potential energy  (eV) =     -94.742348        -94.742348
       Total energy      (eV) =     -82.721155        -82.721155
       Temperature       (K)  =    3000.000000       3000.000000
       Pressure         (GPa) =       2.339048          2.339048
  ** Time :            0.04000 ps :
     Properties:                   Instantaneous       Averaged
       Kinetic energy    (eV) =       9.314000         10.667596
       Potential energy  (eV) =     -92.096096        -93.419222
       Total energy      (eV) =     -82.782096        -82.751626
       Temperature       (K)  =    2324.395082       2662.197541
       Pressure         (GPa) =       5.510980          3.925014
  ** Time :            0.06000 ps :
     Properties:                   Instantaneous       Averaged
       Kinetic energy    (eV) =       7.759941          9.698378
       Potential energy  (eV) =     -86.055900        -90.964781
       Total energy      (eV) =     -78.295959        -81.266403
       Temperature       (K)  =    1936.565335       2420.320139
       Pressure         (GPa) =      12.675746          6.841925
  ** Time :            0.08000 ps :
     Properties:                   Instantaneous       Averaged
       Kinetic energy    (eV) =      10.919364         10.003624
       Potential energy  (eV) =     -84.244251        -89.284649
       Total energy      (eV) =     -73.324887        -79.281024
       Temperature       (K)  =    2725.028484       2496.497225
       Pressure         (GPa) =      15.779611          9.076346
  ** Time :            0.10000 ps :
     Properties:                   Instantaneous       Averaged
       Kinetic energy    (eV) =       9.909567          9.984813
       Potential energy  (eV) =     -83.191410        -88.066001
       Total energy      (eV) =     -73.281843        -78.081188
       Temperature       (K)  =    2473.024398       2491.802660
       Pressure         (GPa) =      16.744506         10.609978
  ** Time :            0.12000 ps :
     Properties:                   Instantaneous       Averaged
       Kinetic energy    (eV) =      10.149477         10.012257
       Potential energy  (eV) =     -81.264983        -86.932498
       Total energy      (eV) =     -71.115506        -76.920241
       Temperature       (K)  =    2532.896042       2498.651557
       Pressure         (GPa) =      19.010984         12.010146
  ** Time :            0.14000 ps :
     Properties:                   Instantaneous       Averaged
       Kinetic energy    (eV) =       9.909951          9.997642
       Potential energy  (eV) =     -80.057859        -85.950407
       Total energy      (eV) =     -70.147908        -75.952765
       Temperature       (K)  =    2473.120184       2495.004218
       Pressure         (GPa) =      20.801109         13.265998
  ** Time :            0.16000 ps :
     Properties:                   Instantaneous       Averaged
       Kinetic energy    (eV) =       9.547091          9.941323
       Potential energy  (eV) =     -77.352622        -84.875684
       Total energy      (eV) =     -67.805531        -74.934361
       Temperature       (K)  =    2382.565135       2480.949332
       Pressure         (GPa) =      23.559497         14.552685
  ** Time :            0.18000 ps :
     Properties:                   Instantaneous       Averaged
       Kinetic energy    (eV) =      11.747288         10.141986
       Potential energy  (eV) =     -78.623239        -84.180968
       Total energy      (eV) =     -66.875951        -74.038982
       Temperature       (K)  =    2931.644603       2531.026585
       Pressure         (GPa) =      22.722278         15.460418
  ** Time :            0.20000 ps :
     Properties:                   Instantaneous       Averaged
       Kinetic energy    (eV) =      11.105257         10.238313
       Potential energy  (eV) =     -80.263785        -83.789249
       Total energy      (eV) =     -69.158528        -73.550936
       Temperature       (K)  =    2771.419828       2555.065909
       Pressure         (GPa) =      20.830181         15.997394
  ** Time :            0.22000 ps :
     Properties:                   Instantaneous       Averaged
       Kinetic energy    (eV) =      10.735773         10.283536
       Potential energy  (eV) =     -79.952993        -83.440499
       Total energy      (eV) =     -69.217221        -73.156962
       Temperature       (K)  =    2679.211611       2566.351882
       Pressure         (GPa) =      20.915630         16.444506
  ** Time :            0.24000 ps :
     Properties:                   Instantaneous       Averaged
       Kinetic energy    (eV) =      11.143693         10.355216
       Potential energy  (eV) =     -79.790101        -83.136299
       Total energy      (eV) =     -68.646408        -72.781083
       Temperature       (K)  =    2781.011969       2584.240223
       Pressure         (GPa) =      20.957071         16.820553
  ** Time :            0.26000 ps :
     Properties:                   Instantaneous       Averaged
       Kinetic energy    (eV) =      11.510187         10.444060
       Potential energy  (eV) =     -80.762635        -82.953709
       Total energy      (eV) =     -69.252448        -72.509649
       Temperature       (K)  =    2872.473835       2606.412039
       Pressure         (GPa) =      19.882293         17.056072
  ** Time :            0.28000 ps :
     Properties:                   Instantaneous       Averaged
       Kinetic energy    (eV) =      10.849196         10.472998
       Potential energy  (eV) =     -81.226739        -82.830354
       Total energy      (eV) =     -70.377544        -72.357356
       Temperature       (K)  =    2707.517404       2613.633851
       Pressure         (GPa) =      19.216372         17.210379
  ** Time :            0.30000 ps :
     Properties:                   Instantaneous       Averaged
       Kinetic energy    (eV) =       9.953424         10.438360
       Potential energy  (eV) =     -79.880596        -82.633704
       Total energy      (eV) =     -69.927173        -72.195344
       Temperature       (K)  =    2483.969155       2604.989538
       Pressure         (GPa) =      20.490069         17.429025
  ** Time :            0.32000 ps :
     Properties:                   Instantaneous       Averaged
       Kinetic energy    (eV) =       9.757757         10.395822
       Potential energy  (eV) =     -79.369340        -82.429681
       Total energy      (eV) =     -69.611583        -72.033859
       Temperature       (K)  =    2435.138776       2594.373865
       Pressure         (GPa) =      21.558016         17.687087
  ** Time :            0.34000 ps :
     Properties:                   Instantaneous       Averaged
       Kinetic energy    (eV) =      10.701312         10.413792
       Potential energy  (eV) =     -78.046525        -82.171848
       Total energy      (eV) =     -67.345213        -71.758056
       Temperature       (K)  =    2670.611592       2598.858437
       Pressure         (GPa) =      23.089498         18.004876
  ** Time :            0.36000 ps :
     Properties:                   Instantaneous       Averaged
       Kinetic energy    (eV) =      10.949343         10.443545
       Potential energy  (eV) =     -79.193734        -82.006398
       Total energy      (eV) =     -68.244391        -71.562852
       Temperature       (K)  =    2732.510019       2606.283525
       Pressure         (GPa) =      21.988986         18.226215
  ** Time :            0.38000 ps :
     Properties:                   Instantaneous       Averaged
       Kinetic energy    (eV) =      10.440890         10.443405
       Potential energy  (eV) =     -78.354707        -81.814203
       Total energy      (eV) =     -67.913817        -71.370798
       Temperature       (K)  =    2605.621001       2606.248655
       Pressure         (GPa) =      22.785629         18.466184
  ** Time :            0.40000 ps :
     Properties:                   Instantaneous       Averaged
       Kinetic energy    (eV) =      10.091727         10.425821
       Potential energy  (eV) =     -77.955449        -81.621266
       Total energy      (eV) =     -67.863722        -71.195444
       Temperature       (K)  =    2518.484047       2601.860425
       Pressure         (GPa) =      22.982260         18.691988
  ** Time :            0.42000 ps :
     Properties:                   Instantaneous       Averaged
       Kinetic energy    (eV) =      10.701307         10.438940
       Potential energy  (eV) =     -78.687228        -81.481550
       Total energy      (eV) =     -67.985921        -71.042610
       Temperature       (K)  =    2670.610381       2605.134232
       Pressure         (GPa) =      22.109127         18.854709
  ** Time :            0.44000 ps :
     Properties:                   Instantaneous       Averaged
       Kinetic energy    (eV) =       9.550806         10.398570
       Potential energy  (eV) =     -76.951818        -81.275653
       Total energy      (eV) =     -67.401012        -70.877083
       Temperature       (K)  =    2383.492297       2595.059599
       Pressure         (GPa) =      23.572087         19.069135
  ** Time :            0.46000 ps :
     Properties:                   Instantaneous       Averaged
       Kinetic energy    (eV) =      10.826888         10.417193
       Potential energy  (eV) =     -76.754498        -81.079081
       Total energy      (eV) =     -65.927610        -70.661888
       Temperature       (K)  =    2701.950267       2599.707019
       Pressure         (GPa) =      24.183984         19.291520
  ** Time :            0.48000 ps :
     Properties:                   Instantaneous       Averaged
       Kinetic energy    (eV) =       9.401088         10.374855
       Potential energy  (eV) =     -75.882294        -80.862548
       Total energy      (eV) =     -66.481206        -70.487693
       Temperature       (K)  =    2346.128697       2589.141256
       Pressure         (GPa) =      24.894667         19.524985
  ** Time :            0.50000 ps :
     Properties:                   Instantaneous       Averaged
       Kinetic energy    (eV) =      12.225346         10.448875
       Potential energy  (eV) =     -76.360622        -80.682471
       Total energy      (eV) =     -64.135276        -70.233596
       Temperature       (K)  =    3050.948516       2607.613546
       Pressure         (GPa) =      24.651607         19.730049
  ** Time :            0.52000 ps :
     Properties:                   Instantaneous       Averaged
       Kinetic energy    (eV) =      11.211675         10.478213
       Potential energy  (eV) =     -80.187866        -80.663448
       Total energy      (eV) =     -68.976192        -70.185235
       Temperature       (K)  =    2797.977373       2614.935232
       Pressure         (GPa) =      20.372066         19.754742
  ** Time :            0.54000 ps :
     Properties:                   Instantaneous       Averaged
       Kinetic energy    (eV) =      10.149516         10.466039
       Potential energy  (eV) =     -79.650241        -80.625921
       Total energy      (eV) =     -69.500726        -70.159882
       Temperature       (K)  =    2532.905737       2611.897102
       Pressure         (GPa) =      20.802429         19.793546
  ** Time :            0.56000 ps :
     Properties:                   Instantaneous       Averaged
       Kinetic energy    (eV) =      10.650702         10.472634
       Potential energy  (eV) =     -79.123774        -80.572273
       Total energy      (eV) =     -68.473072        -70.099639
       Temperature       (K)  =    2657.981356       2613.542969
       Pressure         (GPa) =      21.575672         19.857193
  ** Time :            0.58000 ps :
     Properties:                   Instantaneous       Averaged
       Kinetic energy    (eV) =      11.118695         10.494912
       Potential energy  (eV) =     -79.528105        -80.536268
       Total energy      (eV) =     -68.409410        -70.041355
       Temperature       (K)  =    2774.773516       2619.102643
       Pressure         (GPa) =      21.039912         19.897976
  ** Time :            0.60000 ps :
     Properties:                   Instantaneous       Averaged
       Kinetic energy    (eV) =      11.459988         10.527081
       Potential energy  (eV) =     -81.117524        -80.555643
       Total energy      (eV) =     -69.657536        -70.028562
       Temperature       (K)  =    2859.946226       2627.130762
       Pressure         (GPa) =      19.365655         19.880232
  ** Time :            0.62000 ps :
     Properties:                   Instantaneous       Averaged
       Kinetic energy    (eV) =       9.824639         10.504422
       Potential energy  (eV) =     -80.802799        -80.563616
       Total energy      (eV) =     -70.978160        -70.059194
       Temperature       (K)  =    2451.829779       2621.475892
       Pressure         (GPa) =      19.472242         19.867071
  ** Time :            0.64000 ps :
     Properties:                   Instantaneous       Averaged
       Kinetic energy    (eV) =      11.639087         10.539880
       Potential energy  (eV) =     -81.016059        -80.577754
       Total energy      (eV) =     -69.376972        -70.037874
       Temperature       (K)  =    2904.642205       2630.324839
       Pressure         (GPa) =      19.798730         19.864936
  ** Time :            0.66000 ps :
     Properties:                   Instantaneous       Averaged
       Kinetic energy    (eV) =      10.628494         10.542565
       Potential energy  (eV) =     -81.088994        -80.593247
       Total energy      (eV) =     -70.460500        -70.050681
       Temperature       (K)  =    2652.439337       2630.994975
       Pressure         (GPa) =      19.574148         19.856124
  ** Time :            0.68000 ps :
     Properties:                   Instantaneous       Averaged
       Kinetic energy    (eV) =      10.071844         10.528721
       Potential energy  (eV) =     -80.527153        -80.591303
       Total energy      (eV) =     -70.455310        -70.062582
       Temperature       (K)  =    2513.522026       2627.539889
       Pressure         (GPa) =      20.266443         19.868192
  ** Time :            0.70000 ps :
     Properties:                   Instantaneous       Averaged
       Kinetic energy    (eV) =      11.404785         10.553751
       Potential energy  (eV) =     -81.627321        -80.620903
       Total energy      (eV) =     -70.222535        -70.067152
       Temperature       (K)  =    2846.169931       2633.786461
       Pressure         (GPa) =      19.518316         19.858196
  ** Time :            0.72000 ps :
     Properties:                   Instantaneous       Averaged
       Kinetic energy    (eV) =      10.503555         10.552357
       Potential energy  (eV) =     -81.105408        -80.634362
       Total energy      (eV) =     -70.601854        -70.082005
       Temperature       (K)  =    2621.259509       2633.438490
       Pressure         (GPa) =      19.813332         19.856949
  ** Time :            0.74000 ps :
     Properties:                   Instantaneous       Averaged
       Kinetic energy    (eV) =       9.884075         10.534295
       Potential energy  (eV) =     -80.217765        -80.623102
       Total energy      (eV) =     -70.333690        -70.088807
       Temperature       (K)  =    2466.662527       2628.931032
       Pressure         (GPa) =      20.742672         19.880888
  ** Time :            0.76000 ps :
     Properties:                   Instantaneous       Averaged
       Kinetic energy    (eV) =      10.972304         10.545822
       Potential energy  (eV) =     -79.861839        -80.603069
       Total energy      (eV) =     -68.889536        -70.057247
       Temperature       (K)  =    2738.240096       2631.807586
       Pressure         (GPa) =      21.418341         19.921347
  ** Time :            0.78000 ps :
     Properties:                   Instantaneous       Averaged
       Kinetic energy    (eV) =      10.226985         10.537646
       Potential energy  (eV) =     -79.268113        -80.568839
       Total energy      (eV) =     -69.041128        -70.031193
       Temperature       (K)  =    2552.238940       2629.767365
       Pressure         (GPa) =      21.901340         19.972116
  ** Time :            0.80000 ps :
     Properties:                   Instantaneous       Averaged
       Kinetic energy    (eV) =      11.062940         10.550779
       Potential energy  (eV) =     -80.283634        -80.561709
       Total energy      (eV) =     -69.220694        -70.010931
       Temperature       (K)  =    2760.859251       2633.044662
       Pressure         (GPa) =      21.260120         20.004316
  ** Time :            0.82000 ps :
     Properties:                   Instantaneous       Averaged
       Kinetic energy    (eV) =       9.923040         10.535468
       Potential energy  (eV) =     -79.015281        -80.523992
       Total energy      (eV) =     -69.092241        -69.988524
       Temperature       (K)  =    2476.386645       2629.223734
       Pressure         (GPa) =      22.230700         20.058618
  ** Time :            0.84000 ps :
     Properties:                   Instantaneous       Averaged
       Kinetic energy    (eV) =      10.775629         10.541186
       Potential energy  (eV) =     -78.350562        -80.472243
       Total energy      (eV) =     -67.574933        -69.931057
       Temperature       (K)  =    2689.158129       2630.650744
       Pressure         (GPa) =      22.740899         20.122482
  ** Time :            0.86000 ps :
     Properties:                   Instantaneous       Averaged
       Kinetic energy    (eV) =      12.482693         10.586337
       Potential energy  (eV) =     -80.606332        -80.475362
       Total energy      (eV) =     -68.123639        -69.889024
       Temperature       (K)  =    3115.171821       2641.918676
       Pressure         (GPa) =      20.423257         20.129477
  ** Time :            0.88000 ps :
     Properties:                   Instantaneous       Averaged
       Kinetic energy    (eV) =      10.654986         10.587898
       Potential energy  (eV) =     -82.984847        -80.532395
       Total energy      (eV) =     -72.329862        -69.944498
       Temperature       (K)  =    2659.050465       2642.308035
       Pressure         (GPa) =      17.615760         20.072347
  ** Time :            0.90000 ps :
     Properties:                   Instantaneous       Averaged
       Kinetic energy    (eV) =      11.517136         10.608547
       Potential energy  (eV) =     -82.754779        -80.581782
       Total energy      (eV) =     -71.237643        -69.973234
       Temperature       (K)  =    2874.207989       2647.461367
       Pressure         (GPa) =      18.066886         20.027781
  ** Time :            0.92000 ps :
     Properties:                   Instantaneous       Averaged
       Kinetic energy    (eV) =      10.674335         10.609977
       Potential energy  (eV) =     -83.148625        -80.637583
       Total energy      (eV) =     -72.474290        -70.027605
       Temperature       (K)  =    2663.879327       2647.818279
       Pressure         (GPa) =      17.641506         19.975906
  ** Time :            0.94000 ps :
     Properties:                   Instantaneous       Averaged
       Kinetic energy    (eV) =      10.091958         10.598956
       Potential energy  (eV) =     -81.616087        -80.658402
       Total energy      (eV) =     -71.524129        -70.059446
       Temperature       (K)  =    2518.541657       2645.067713
       Pressure         (GPa) =      19.163818         19.958627
  ** Time :            0.96000 ps :
     Properties:                   Instantaneous       Averaged
       Kinetic energy    (eV) =      10.960167         10.606481
       Potential energy  (eV) =     -80.659417        -80.658423
       Total energy      (eV) =     -69.699249        -70.051942
       Temperature       (K)  =    2735.211337       2646.945705
       Pressure         (GPa) =      20.434711         19.968546
  ** Time :            0.98000 ps :
     Properties:                   Instantaneous       Averaged
       Kinetic energy    (eV) =      11.141730         10.617404
       Potential energy  (eV) =     -81.127593        -80.667998
       Total energy      (eV) =     -69.985863        -70.050593
       Temperature       (K)  =    2780.521953       2649.671751
       Pressure         (GPa) =      20.104458         19.971319
  ** Time :            1.00000 ps :
     Properties:                   Instantaneous       Averaged
       Kinetic energy    (eV) =      10.509808         10.615253
       Potential energy  (eV) =     -80.554861        -80.665735
       Total energy      (eV) =     -70.045053        -70.050483
       Temperature       (K)  =    2622.820105       2649.134718
       Pressure         (GPa) =      20.444311         19.980779
  ** Time :            1.02000 ps :
     Properties:                   Instantaneous       Averaged
       Kinetic energy    (eV) =      10.914320         10.621117
       Potential energy  (eV) =     -80.632477        -80.665083
       Total energy      (eV) =     -69.718156        -70.043966
       Temperature       (K)  =    2723.769854       2650.598152
       Pressure         (GPa) =      20.291886         19.986879
  ** Time :            1.04000 ps :
     Properties:                   Instantaneous       Averaged
       Kinetic energy    (eV) =      11.122924         10.630767
       Potential energy  (eV) =     -80.487852        -80.661675
       Total energy      (eV) =     -69.364928        -70.030908
       Temperature       (K)  =    2775.828864       2653.006435
       Pressure         (GPa) =      20.107132         19.989192
  ** Time :            1.06000 ps :
     Properties:                   Instantaneous       Averaged
       Kinetic energy    (eV) =      11.719490         10.651309
       Potential energy  (eV) =     -82.138095        -80.689532
       Total energy      (eV) =     -70.418605        -70.038223
       Temperature       (K)  =    2924.707399       2658.132868
       Pressure         (GPa) =      18.500950         19.961112
  ** Time :            1.08000 ps :
     Properties:                   Instantaneous       Averaged
       Kinetic energy    (eV) =      10.955654         10.656945
       Potential energy  (eV) =     -82.941700        -80.731238
       Total energy      (eV) =     -71.986046        -70.074294
       Temperature       (K)  =    2734.085085       2659.539391
       Pressure         (GPa) =      17.682178         19.918909
  ** Time :            1.10000 ps :
     Properties:                   Instantaneous       Averaged
       Kinetic energy    (eV) =      10.494211         10.653986
       Potential energy  (eV) =     -81.675524        -80.748407
       Total energy      (eV) =     -71.181313        -70.094421
       Temperature       (K)  =    2618.927694       2658.800996
       Pressure         (GPa) =      18.824547         19.899012
  ** Time :            1.12000 ps :
     Properties:                   Instantaneous       Averaged
       Kinetic energy    (eV) =      11.736485         10.673316
       Potential energy  (eV) =     -82.208217        -80.774475
       Total energy      (eV) =     -70.471732        -70.101159
       Temperature       (K)  =    2928.948684       2663.625062
       Pressure         (GPa) =      18.470003         19.873494
  ** Time :            1.14000 ps :
     Properties:                   Instantaneous       Averaged
       Kinetic energy    (eV) =      10.971832         10.678553
       Potential energy  (eV) =     -82.906831        -80.811885
       Total energy      (eV) =     -71.934999        -70.133332
       Temperature       (K)  =    2738.122467       2664.932034
       Pressure         (GPa) =      17.581289         19.833280
  ** Time :            1.16000 ps :
     Properties:                   Instantaneous       Averaged
       Kinetic energy    (eV) =      10.444783         10.674523
       Potential energy  (eV) =     -82.158687        -80.835106
       Total energy      (eV) =     -71.713904        -70.160583
       Temperature       (K)  =    2606.592424       2663.926179
       Pressure         (GPa) =      18.508253         19.810434
  ** Time :            1.18000 ps :
     Properties:                   Instantaneous       Averaged
       Kinetic energy    (eV) =      11.113023         10.681955
       Potential energy  (eV) =     -82.083931        -80.856272
       Total energy      (eV) =     -70.970908        -70.174317
       Temperature       (K)  =    2773.357903       2665.780954
       Pressure         (GPa) =      18.658900         19.790917
  ** Time :            1.20000 ps :
     Properties:                   Instantaneous       Averaged
       Kinetic energy    (eV) =      12.280053         10.708590
       Potential energy  (eV) =     -84.523581        -80.917394
       Total energy      (eV) =     -72.243528        -70.208804
       Temperature       (K)  =    3064.601197       2672.427958
       Pressure         (GPa) =      15.787256         19.724189
  ** Time :            1.22000 ps :
     Properties:                   Instantaneous       Averaged
       Kinetic energy    (eV) =      11.036334         10.713963
       Potential energy  (eV) =     -85.400755        -80.990892
       Total energy      (eV) =     -74.364422        -70.276929
       Temperature       (K)  =    2754.219384       2673.768801
       Pressure         (GPa) =      14.088945         19.631808
  ** Time :            1.24000 ps :
     Properties:                   Instantaneous       Averaged
       Kinetic energy    (eV) =      10.899710         10.716959
       Potential energy  (eV) =     -84.645469        -81.049837
       Total energy      (eV) =     -73.745759        -70.332878
       Temperature       (K)  =    2720.123655       2674.516460
       Pressure         (GPa) =      14.954859         19.556373
  ** Time :            1.26000 ps :
     Properties:                   Instantaneous       Averaged
       Kinetic energy    (eV) =      10.949637         10.720652
       Potential energy  (eV) =     -84.090977        -81.098109
       Total energy      (eV) =     -73.141340        -70.377457
       Temperature       (K)  =    2732.583517       2675.438159
       Pressure         (GPa) =      15.837482         19.497343
  ** Time :            1.28000 ps :
     Properties:                   Instantaneous       Averaged
       Kinetic energy    (eV) =      10.573905         10.718359
       Potential energy  (eV) =     -83.049442        -81.128598
       Total energy      (eV) =     -72.475537        -70.410239
       Temperature       (K)  =    2638.816126       2674.865940
       Pressure         (GPa) =      16.929802         19.457226
  ** Time :            1.30000 ps :
     Properties:                   Instantaneous       Averaged
       Kinetic energy    (eV) =      10.383327         10.713205
       Potential energy  (eV) =     -83.365515        -81.163012
       Total energy      (eV) =     -72.982188        -70.449808
       Temperature       (K)  =    2591.255575       2673.579627
       Pressure         (GPa) =      16.873927         19.417483
  ** Time :            1.32000 ps :
     Properties:                   Instantaneous       Averaged
       Kinetic energy    (eV) =      11.222527         10.720922
       Potential energy  (eV) =     -82.535089        -81.183801
       Total energy      (eV) =     -71.312562        -70.462880
       Temperature       (K)  =    2800.685597       2675.505475
       Pressure         (GPa) =      17.781612         19.392697
  ** Time :            1.34000 ps :
     Properties:                   Instantaneous       Averaged
       Kinetic energy    (eV) =      11.054717         10.725904
       Potential energy  (eV) =     -83.515578        -81.218604
       Total energy      (eV) =     -72.460861        -70.492700
       Temperature       (K)  =    2758.807194       2676.748784
       Pressure         (GPa) =      16.752292         19.353288
  ** Time :            1.36000 ps :
     Properties:                   Instantaneous       Averaged
       Kinetic energy    (eV) =      10.685991         10.725317
       Potential energy  (eV) =     -82.549756        -81.238180
       Total energy      (eV) =     -71.863764        -70.512863
       Temperature       (K)  =    2666.788278       2676.602306
       Pressure         (GPa) =      17.634494         19.328011
  ** Time :            1.38000 ps :
     Properties:                   Instantaneous       Averaged
       Kinetic energy    (eV) =      12.176504         10.746349
       Potential energy  (eV) =     -84.455989        -81.284815
       Total energy      (eV) =     -72.279484        -70.538466
       Temperature       (K)  =    3038.759581       2681.850962
       Pressure         (GPa) =      16.027817         19.280182
  ** Time :            1.40000 ps :
     Properties:                   Instantaneous       Averaged
       Kinetic energy    (eV) =      11.582302         10.758291
       Potential energy  (eV) =     -85.923534        -81.351082
       Total energy      (eV) =     -74.341231        -70.592791
       Temperature       (K)  =    2890.470966       2684.831248
       Pressure         (GPa) =      14.063837         19.205663
  ** Time :            1.42000 ps :
     Properties:                   Instantaneous       Averaged
       Kinetic energy    (eV) =      11.128732         10.763508
       Potential energy  (eV) =     -86.140646        -81.418541
       Total energy      (eV) =     -75.011914        -70.655033
       Temperature       (K)  =    2777.278165       2686.133317
       Pressure         (GPa) =      13.592960         19.126611
  ** Time :            1.44000 ps :
     Properties:                   Instantaneous       Averaged
       Kinetic energy    (eV) =      10.398509         10.758439
       Potential energy  (eV) =     -84.773596        -81.465139
       Total energy      (eV) =     -74.375087        -70.706700
       Temperature       (K)  =    2595.044325       2684.868192
       Pressure         (GPa) =      14.907898         19.068018
  ** Time :            1.46000 ps :
     Properties:                   Instantaneous       Averaged
       Kinetic energy    (eV) =      10.423120         10.753845
       Potential energy  (eV) =     -83.635781        -81.494874
       Total energy      (eV) =     -73.212661        -70.741028
       Temperature       (K)  =    2601.186348       2683.721865
       Pressure         (GPa) =      16.380232         19.031199
  ** Time :            1.48000 ps :
     Properties:                   Instantaneous       Averaged
       Kinetic energy    (eV) =       9.381207         10.735296
       Potential energy  (eV) =     -81.293591        -81.492154
       Total energy      (eV) =     -71.912384        -70.756857
       Temperature       (K)  =    2341.167223       2679.092749
       Pressure         (GPa) =      18.785034         19.027872
  ** Time :            1.50000 ps :
     Properties:                   Instantaneous       Averaged
       Kinetic energy    (eV) =      10.786051         10.735973
       Potential energy  (eV) =     -80.704588        -81.481653
       Total energy      (eV) =     -69.918537        -70.745680
       Temperature       (K)  =    2691.758937       2679.261631
       Pressure         (GPa) =      19.460960         19.033647
  ** Time :            1.52000 ps :
     Properties:                   Instantaneous       Averaged
       Kinetic energy    (eV) =      11.146133         10.741370
       Potential energy  (eV) =     -82.840571        -81.499533
       Total energy      (eV) =     -71.694438        -70.758163
       Temperature       (K)  =    2781.620883       2680.608463
       Pressure         (GPa) =      17.350382         19.011498
  ** Time :            1.54000 ps :
     Properties:                   Instantaneous       Averaged
       Kinetic energy    (eV) =      11.247250         10.747940
       Potential energy  (eV) =     -83.397594        -81.524183
       Total energy      (eV) =     -72.150344        -70.776244
       Temperature       (K)  =    2806.855568       2682.248036
       Pressure         (GPa) =      17.000555         18.985382
  ** Time :            1.56000 ps :
     Properties:                   Instantaneous       Averaged
       Kinetic energy    (eV) =      10.973496         10.750831
       Potential energy  (eV) =     -83.429646        -81.548612
       Total energy      (eV) =     -72.456150        -70.797781
       Temperature       (K)  =    2738.537636       2682.969698
       Pressure         (GPa) =      17.250654         18.963142
  ** Time :            1.58000 ps :
     Properties:                   Instantaneous       Averaged
       Kinetic energy    (eV) =      10.506817         10.747743
       Potential energy  (eV) =     -82.995742        -81.566930
       Total energy      (eV) =     -72.488926        -70.819188
       Temperature       (K)  =    2622.073556       2682.198860
       Pressure         (GPa) =      17.552365         18.945284
  ** Time :            1.60000 ps :
     Properties:                   Instantaneous       Averaged
       Kinetic energy    (eV) =      10.373229         10.743061
       Potential energy  (eV) =     -81.378006        -81.564569
       Total energy      (eV) =     -71.004777        -70.821508
       Temperature       (K)  =    2588.735609       2681.030570
       Pressure         (GPa) =      19.052524         18.946625
  ** Time :            1.62000 ps :
     Properties:                   Instantaneous       Averaged
       Kinetic energy    (eV) =      11.084953         10.747282
       Potential energy  (eV) =     -81.251590        -81.560705
       Total energy      (eV) =     -70.166636        -70.813423
       Temperature       (K)  =    2766.352935       2682.083932
       Pressure         (GPa) =      19.436567         18.952673
  ** Time :            1.64000 ps :
     Properties:                   Instantaneous       Averaged
       Kinetic energy    (eV) =      11.628859         10.758033
       Potential energy  (eV) =     -83.055004        -81.578928
       Total energy      (eV) =     -71.426146        -70.820895
       Temperature       (K)  =    2902.089500       2684.766927
       Pressure         (GPa) =      17.766942         18.938213
  ** Time :            1.66000 ps :
     Properties:                   Instantaneous       Averaged
       Kinetic energy    (eV) =      10.880042         10.759503
       Potential energy  (eV) =     -83.227444        -81.598790
       Total energy      (eV) =     -72.347401        -70.839287
       Temperature       (K)  =    2715.215450       2685.133777
       Pressure         (GPa) =      17.061101         18.915598
  ** Time :            1.68000 ps :
     Properties:                   Instantaneous       Averaged
       Kinetic energy    (eV) =      11.771991         10.771557
       Potential energy  (eV) =     -84.107776        -81.628659
       Total energy      (eV) =     -72.335785        -70.857102
       Temperature       (K)  =    2937.809534       2688.141821
       Pressure         (GPa) =      16.063149         18.881640
  ** Time :            1.70000 ps :
     Properties:                   Instantaneous       Averaged
       Kinetic energy    (eV) =      11.393430         10.778873
       Potential energy  (eV) =     -85.156020        -81.670157
       Total energy      (eV) =     -73.762590        -70.891284
       Temperature       (K)  =    2843.336158       2689.967637
       Pressure         (GPa) =      14.737973         18.832891
  ** Time :            1.72000 ps :
     Properties:                   Instantaneous       Averaged
       Kinetic energy    (eV) =      10.764176         10.778702
       Potential energy  (eV) =     -84.761121        -81.706098
       Total energy      (eV) =     -73.996945        -70.927397
       Temperature       (K)  =    2686.300027       2689.924991
       Pressure         (GPa) =      15.035271         18.788732
  ** Time :            1.74000 ps :
     Properties:                   Instantaneous       Averaged
       Kinetic energy    (eV) =      10.638512         10.777090
       Potential energy  (eV) =     -83.973432        -81.732160
       Total energy      (eV) =     -73.334920        -70.955069
       Temperature       (K)  =    2654.939286       2689.522856
       Pressure         (GPa) =      15.931986         18.755896
  ** Time :            1.76000 ps :
     Properties:                   Instantaneous       Averaged
       Kinetic energy    (eV) =      10.440707         10.773268
       Potential energy  (eV) =     -83.500753        -81.752257
       Total energy      (eV) =     -73.060046        -70.978990
       Temperature       (K)  =    2605.575269       2688.568906
       Pressure         (GPa) =      16.756691         18.733178
  ** Time :            1.78000 ps :
     Properties:                   Instantaneous       Averaged
       Kinetic energy    (eV) =      10.530760         10.770543
       Potential energy  (eV) =     -82.200999        -81.757299
       Total energy      (eV) =     -71.670239        -70.986756
       Temperature       (K)  =    2628.048724       2687.888904
       Pressure         (GPa) =      18.518033         18.730761
  ** Time :            1.80000 ps :
     Properties:                   Instantaneous       Averaged
       Kinetic energy    (eV) =      11.446591         10.778055
       Potential energy  (eV) =     -82.590610        -81.766558
       Total energy      (eV) =     -71.144019        -70.988504
       Temperature       (K)  =    2856.602856       2689.763504
       Pressure         (GPa) =      18.266455         18.725602
  ** Time :            1.82000 ps :
     Properties:                   Instantaneous       Averaged
       Kinetic energy    (eV) =      11.074206         10.781309
       Potential energy  (eV) =     -83.630273        -81.787039
       Total energy      (eV) =     -72.556067        -71.005730
       Temperature       (K)  =    2763.670805       2690.575672
       Pressure         (GPa) =      16.755803         18.703956
  ** Time :            1.84000 ps :
     Properties:                   Instantaneous       Averaged
       Kinetic energy    (eV) =      10.870915         10.782283
       Potential energy  (eV) =     -83.133561        -81.801675
       Total energy      (eV) =     -72.262646        -71.019392
       Temperature       (K)  =    2712.937597       2690.818736
       Pressure         (GPa) =      16.939275         18.684774
  ** Time :            1.86000 ps :
     Properties:                   Instantaneous       Averaged
       Kinetic energy    (eV) =      11.203698         10.786814
       Potential energy  (eV) =     -83.431570        -81.819201
       Total energy      (eV) =     -72.227872        -71.032386
       Temperature       (K)  =    2795.986848       2691.949576
       Pressure         (GPa) =      16.664507         18.663051
  ** Time :            1.88000 ps :
     Properties:                   Instantaneous       Averaged
       Kinetic energy    (eV) =      11.065564         10.789780
       Potential energy  (eV) =     -83.550862        -81.837623
       Total energy      (eV) =     -72.485298        -71.047843
       Temperature       (K)  =    2761.514238       2692.689626
       Pressure         (GPa) =      16.707405         18.642246
  ** Time :            1.90000 ps :
     Properties:                   Instantaneous       Averaged
       Kinetic energy    (eV) =      10.168160         10.783236
       Potential energy  (eV) =     -82.123564        -81.840633
       Total energy      (eV) =     -71.955404        -71.057396
       Temperature       (K)  =    2537.558731       2691.056669
       Pressure         (GPa) =      18.249628         18.638113
  ** Time :            1.92000 ps :
     Properties:                   Instantaneous       Averaged
       Kinetic energy    (eV) =      11.444205         10.790122
       Potential energy  (eV) =     -81.633012        -81.838470
       Total energy      (eV) =     -70.188807        -71.048348
       Temperature       (K)  =    2856.007516       2692.774907
       Pressure         (GPa) =      19.053645         18.642442
  ** Time :            1.94000 ps :
     Properties:                   Instantaneous       Averaged
       Kinetic energy    (eV) =      10.821652         10.790447
       Potential energy  (eV) =     -82.384999        -81.844104
       Total energy      (eV) =     -71.563348        -71.053658
       Temperature       (K)  =    2700.643531       2692.856027
       Pressure         (GPa) =      18.186288         18.637739
  ** Time :            1.96000 ps :
     Properties:                   Instantaneous       Averaged
       Kinetic energy    (eV) =      10.872295         10.791282
       Potential energy  (eV) =     -81.296704        -81.838518
       Total energy      (eV) =     -70.424409        -71.047237
       Temperature       (K)  =    2713.282000       2693.064455
       Pressure         (GPa) =      19.280679         18.644300
  ** Time :            1.98000 ps :
     Properties:                   Instantaneous       Averaged
       Kinetic energy    (eV) =      11.008242         10.793473
       Potential energy  (eV) =     -81.212550        -81.832196
       Total energy      (eV) =     -70.204308        -71.038722
       Temperature       (K)  =    2747.208792       2693.611368
       Pressure         (GPa) =      19.572311         18.653674
  ** Time :            2.00000 ps :
     Properties:                   Instantaneous       Averaged
       Kinetic energy    (eV) =      11.259409         10.798133
       Potential energy  (eV) =     -82.540737        -81.839281
       Total energy      (eV) =     -71.281328        -71.041148
       Temperature       (K)  =    2809.889817       2694.774152
       Pressure         (GPa) =      18.372504         18.650862
  ** Time :            2.02000 ps :
     Properties:                   Instantaneous       Averaged
       Kinetic energy    (eV) =      10.495223         10.795134
       Potential energy  (eV) =     -80.872105        -81.829705
       Total energy      (eV) =     -70.376882        -71.034571
       Temperature       (K)  =    2619.180207       2694.025697
       Pressure         (GPa) =      19.662629         18.660879
  ** Time :            2.04000 ps :
     Properties:                   Instantaneous       Averaged
       Kinetic energy    (eV) =      11.167819         10.798787
       Potential energy  (eV) =     -81.365308        -81.825152
       Total energy      (eV) =     -70.197489        -71.026365
       Temperature       (K)  =    2787.032851       2694.937532
       Pressure         (GPa) =      19.491549         18.669023
  ** Time :            2.06000 ps :
     Properties:                   Instantaneous       Averaged
       Kinetic energy    (eV) =      10.880396         10.799580
       Potential energy  (eV) =     -81.036148        -81.817492
       Total energy      (eV) =     -70.155752        -71.017912
       Temperature       (K)  =    2715.303751       2695.135262
       Pressure         (GPa) =      20.125098         18.683160
  ** Time :            2.08000 ps :
     Properties:                   Instantaneous       Averaged
       Kinetic energy    (eV) =      10.325269         10.795019
       Potential energy  (eV) =     -79.661773        -81.796764
       Total energy      (eV) =     -69.336504        -71.001745
       Temperature       (K)  =    2576.766698       2693.997103
       Pressure         (GPa) =      21.656556         18.711750
  ** Time :            2.10000 ps :
     Properties:                   Instantaneous       Averaged
       Kinetic energy    (eV) =      11.708440         10.803718
       Potential energy  (eV) =     -80.585421        -81.785227
       Total energy      (eV) =     -68.876982        -70.981509
       Temperature       (K)  =    2921.949760       2696.168081
       Pressure         (GPa) =      20.820516         18.731834
  ** Time :            2.12000 ps :
     Properties:                   Instantaneous       Averaged
       Kinetic energy    (eV) =      10.840782         10.804068
       Potential energy  (eV) =     -81.900334        -81.786313
       Total energy      (eV) =     -71.059552        -70.982245
       Temperature       (K)  =    2705.417642       2696.255341
       Pressure         (GPa) =      18.527890         18.729910
  ** Time :            2.14000 ps :
     Properties:                   Instantaneous       Averaged
       Kinetic energy    (eV) =      10.581516         10.801988
       Potential energy  (eV) =     -81.260156        -81.781396
       Total energy      (eV) =     -70.678640        -70.979408
       Temperature       (K)  =    2640.715493       2695.736277
       Pressure         (GPa) =      18.426838         18.727077
  ** Time :            2.16000 ps :
     Properties:                   Instantaneous       Averaged
       Kinetic energy    (eV) =      10.988260         10.803713
       Potential energy  (eV) =     -82.139965        -81.784716
       Total energy      (eV) =     -71.151704        -70.981003
       Temperature       (K)  =    2742.222232       2696.166702
       Pressure         (GPa) =      17.754555         18.718072
  ** Time :            2.18000 ps :
     Properties:                   Instantaneous       Averaged
       Kinetic energy    (eV) =      11.278137         10.808065
       Potential energy  (eV) =     -82.564768        -81.791872
       Total energy      (eV) =     -71.286631        -70.983807
       Temperature       (K)  =    2814.563671       2697.252913
       Pressure         (GPa) =      17.966146         18.711174
  ** Time :            2.20000 ps :
     Properties:                   Instantaneous       Averaged
       Kinetic energy    (eV) =      10.447817         10.804790
       Potential energy  (eV) =     -81.921246        -81.793048
       Total energy      (eV) =     -71.473430        -70.988258
       Temperature       (K)  =    2607.349549       2696.435610
       Pressure         (GPa) =      18.794002         18.711927
  ** Time :            2.22000 ps :
     Properties:                   Instantaneous       Averaged
       Kinetic energy    (eV) =      10.537224         10.802380
       Potential energy  (eV) =     -81.479801        -81.790226
       Total energy      (eV) =     -70.942577        -70.987847
       Temperature       (K)  =    2629.662051       2695.834046
       Pressure         (GPa) =      19.593010         18.719865
  ** Time :            2.24000 ps :
     Properties:                   Instantaneous       Averaged
       Kinetic energy    (eV) =      11.066211         10.804735
       Potential energy  (eV) =     -80.931170        -81.782556
       Total energy      (eV) =     -69.864959        -70.977821
       Temperature       (K)  =    2761.675640       2696.421917
       Pressure         (GPa) =      20.447758         18.735292
  ** Time :            2.26000 ps :
     Properties:                   Instantaneous       Averaged
       Kinetic energy    (eV) =      11.603119         10.811801
       Potential energy  (eV) =     -82.290962        -81.787055
       Total energy      (eV) =     -70.687842        -70.975255
       Temperature       (K)  =    2895.666020       2698.185140
       Pressure         (GPa) =      18.795419         18.735824
  ** Time :            2.28000 ps :
     Properties:                   Instantaneous       Averaged
       Kinetic energy    (eV) =      11.138079         10.814663
       Potential energy  (eV) =     -83.195674        -81.799412
       Total energy      (eV) =     -72.057596        -70.984749
       Temperature       (K)  =    2779.610846       2698.899400
       Pressure         (GPa) =      17.281131         18.723064
  ** Time :            2.30000 ps :
     Properties:                   Instantaneous       Averaged
       Kinetic energy    (eV) =      10.393100         10.810997
       Potential energy  (eV) =     -82.002665        -81.801179
       Total energy      (eV) =     -71.609564        -70.990182
       Temperature       (K)  =    2593.694515       2697.984575
       Pressure         (GPa) =      18.123032         18.717846
  ** Time :            2.32000 ps :
     Properties:                   Instantaneous       Averaged
       Kinetic energy    (eV) =      10.850271         10.811336
       Potential energy  (eV) =     -82.278099        -81.805290
       Total energy      (eV) =     -71.427828        -70.993955
       Temperature       (K)  =    2707.785735       2698.069068
       Pressure         (GPa) =      17.747213         18.709479
  ** Time :            2.34000 ps :
     Properties:                   Instantaneous       Averaged
       Kinetic energy    (eV) =      10.858484         10.811739
       Potential energy  (eV) =     -82.737561        -81.813259
       Total energy      (eV) =     -71.879077        -71.001520
       Temperature       (K)  =    2709.835492       2698.169636
       Pressure         (GPa) =      17.229867         18.696833
  ** Time :            2.36000 ps :
     Properties:                   Instantaneous       Averaged
       Kinetic energy    (eV) =      10.804801         10.811680
       Potential energy  (eV) =     -82.206742        -81.816593
       Total energy      (eV) =     -71.401941        -71.004913
       Temperature       (K)  =    2696.438221       2698.154963
       Pressure         (GPa) =      17.993614         18.690873
  ** Time :            2.38000 ps :
     Properties:                   Instantaneous       Averaged
       Kinetic energy    (eV) =       9.996863         10.804833
       Potential energy  (eV) =     -81.511633        -81.814030
       Total energy      (eV) =     -71.514769        -71.009198
       Temperature       (K)  =    2494.809953       2696.446181
       Pressure         (GPa) =      19.199234         18.695145
  ** Time :            2.40000 ps :
     Properties:                   Instantaneous       Averaged
       Kinetic energy    (eV) =      11.667978         10.812025
       Potential energy  (eV) =     -81.288271        -81.809649
       Total energy      (eV) =     -69.620293        -70.997624
       Temperature       (K)  =    2911.852229       2698.241231
       Pressure         (GPa) =      19.481174         18.701695
  ** Time :            2.42000 ps :
     Properties:                   Instantaneous       Averaged
       Kinetic energy    (eV) =      11.476657         10.817518
       Potential energy  (eV) =     -84.222560        -81.829591
       Total energy      (eV) =     -72.745903        -71.012072
       Temperature       (K)  =    2864.106276       2699.612017
       Pressure         (GPa) =      15.693285         18.676832
  ** Time :            2.44000 ps :
     Properties:                   Instantaneous       Averaged
       Kinetic energy    (eV) =      10.460927         10.814595
       Potential energy  (eV) =     -83.868592        -81.846304
       Total energy      (eV) =     -73.407666        -71.031708
       Temperature       (K)  =    2610.621260       2698.882584
       Pressure         (GPa) =      15.732064         18.652695
  ** Time :            2.46000 ps :
     Properties:                   Instantaneous       Averaged
       Kinetic energy    (eV) =      11.035914         10.816395
       Potential energy  (eV) =     -83.378795        -81.858763
       Total energy      (eV) =     -72.342881        -71.042368
       Temperature       (K)  =    2754.114607       2699.331625
       Pressure         (GPa) =      16.623195         18.636195
  ** Time :            2.48000 ps :
     Properties:                   Instantaneous       Averaged
       Kinetic energy    (eV) =      11.045534         10.818243
       Potential energy  (eV) =     -83.183905        -81.869450
       Total energy      (eV) =     -72.138371        -71.051207
       Temperature       (K)  =    2756.515426       2699.792785
       Pressure         (GPa) =      16.768035         18.621129
  ** Time :            2.50000 ps :
     Properties:                   Instantaneous       Averaged
       Kinetic energy    (eV) =      11.196227         10.821267
       Potential energy  (eV) =     -84.585571        -81.891179
       Total energy      (eV) =     -73.389344        -71.069912
       Temperature       (K)  =    2794.122391       2700.547422
       Pressure         (GPa) =      15.402704         18.595382
  ** Time :            2.52000 ps :
     Properties:                   Instantaneous       Averaged
       Kinetic energy    (eV) =      10.884891         10.821772
       Potential energy  (eV) =     -84.184743        -81.909381
       Total energy      (eV) =     -73.299852        -71.087610
       Temperature       (K)  =    2716.425439       2700.673438
       Pressure         (GPa) =      15.728250         18.572627
  ** Time :            2.54000 ps :
     Properties:                   Instantaneous       Averaged
       Kinetic energy    (eV) =      11.158175         10.824420
       Potential energy  (eV) =     -84.452439        -81.929406
       Total energy      (eV) =     -73.294265        -71.104985
       Temperature       (K)  =    2784.625937       2701.334481
       Pressure         (GPa) =      15.639858         18.549534
  ** Time :            2.56000 ps :
     Properties:                   Instantaneous       Averaged
       Kinetic energy    (eV) =      11.191528         10.827288
       Potential energy  (eV) =     -84.685030        -81.950934
       Total energy      (eV) =     -73.493502        -71.123645
       Temperature       (K)  =    2792.949668       2702.050225
       Pressure         (GPa) =      15.368951         18.524686
  ** Time :            2.58000 ps :
     Properties:                   Instantaneous       Averaged
       Kinetic energy    (eV) =      11.462209         10.832210
       Potential energy  (eV) =     -84.833776        -81.973281
       Total energy      (eV) =     -73.371567        -71.141071
       Temperature       (K)  =    2860.500598       2703.278522
       Pressure         (GPa) =      15.195701         18.498880
  ** Time :            2.60000 ps :
     Properties:                   Instantaneous       Averaged
       Kinetic energy    (eV) =      10.935795         10.833007
       Potential energy  (eV) =     -85.137960        -81.997625
       Total energy      (eV) =     -74.202165        -71.164618
       Temperature       (K)  =    2729.128960       2703.477372
       Pressure         (GPa) =      14.925539         18.471392
  ** Time :            2.62000 ps :
     Properties:                   Instantaneous       Averaged
       Kinetic energy    (eV) =      11.011050         10.834366
       Potential energy  (eV) =     -84.348576        -82.015571
       Total energy      (eV) =     -73.337526        -71.181205
       Temperature       (K)  =    2747.909625       2703.816549
       Pressure         (GPa) =      15.734338         18.450499
  ** Time :            2.64000 ps :
     Properties:                   Instantaneous       Averaged
       Kinetic energy    (eV) =      11.027782         10.835831
       Potential energy  (eV) =     -84.210474        -82.032199
       Total energy      (eV) =     -73.182692        -71.196368
       Temperature       (K)  =    2752.085303       2704.182222
       Pressure         (GPa) =      15.929475         18.431400
  ** Time :            2.66000 ps :
     Properties:                   Instantaneous       Averaged
       Kinetic energy    (eV) =      10.174972         10.830863
       Potential energy  (eV) =     -82.730617        -82.037451
       Total energy      (eV) =     -72.555645        -71.206588
       Temperature       (K)  =    2539.258734       2702.942195
       Pressure         (GPa) =      17.494787         18.424358
  ** Time :            2.68000 ps :
     Properties:                   Instantaneous       Averaged
       Kinetic energy    (eV) =      11.234249         10.833873
       Potential energy  (eV) =     -82.254781        -82.039073
       Total energy      (eV) =     -71.020532        -71.205200
       Temperature       (K)  =    2803.610980       2703.693455
       Pressure         (GPa) =      18.494587         18.424882
  ** Time :            2.70000 ps :
     Properties:                   Instantaneous       Averaged
       Kinetic energy    (eV) =      11.323359         10.837499
       Potential energy  (eV) =     -83.085243        -82.046822
       Total energy      (eV) =     -71.761884        -71.209323
       Temperature       (K)  =    2825.849279       2704.598313
       Pressure         (GPa) =      17.674291         18.419322
  ** Time :            2.72000 ps :
     Properties:                   Instantaneous       Averaged
       Kinetic energy    (eV) =      10.981713         10.838559
       Potential energy  (eV) =     -83.284853        -82.055925
       Total energy      (eV) =     -72.303140        -71.217366
       Temperature       (K)  =    2740.588266       2704.862945
       Pressure         (GPa) =      17.208976         18.410423
  ** Time :            2.74000 ps :
     Properties:                   Instantaneous       Averaged
       Kinetic energy    (eV) =       9.600084         10.829519
       Potential energy  (eV) =     -81.495034        -82.051831
       Total energy      (eV) =     -71.894950        -71.222312
       Temperature       (K)  =    2395.789966       2702.606938
       Pressure         (GPa) =      18.745745         18.412870
  ** Time :            2.76000 ps :
     Properties:                   Instantaneous       Averaged
       Kinetic energy    (eV) =      10.553187         10.827517
       Potential energy  (eV) =     -80.593414        -82.041263
       Total energy      (eV) =     -70.040228        -71.213746
       Temperature       (K)  =    2633.645580       2702.107218
       Pressure         (GPa) =      20.145428         18.425425
  ** Time :            2.78000 ps :
     Properties:                   Instantaneous       Averaged
       Kinetic energy    (eV) =      10.652760         10.826260
       Potential energy  (eV) =     -79.335696        -82.021798
       Total energy      (eV) =     -68.682936        -71.195539
       Temperature       (K)  =    2658.495167       2701.793462
       Pressure         (GPa) =      21.336269         18.446366
  ** Time :            2.80000 ps :
     Properties:                   Instantaneous       Averaged
       Kinetic energy    (eV) =      10.997326         10.827481
       Potential energy  (eV) =     -81.090033        -82.015143
       Total energy      (eV) =     -70.092707        -71.187661
       Temperature       (K)  =    2744.484703       2702.098399
       Pressure         (GPa) =      19.494092         18.453850
  ** Time :            2.82000 ps :
     Properties:                   Instantaneous       Averaged
       Kinetic energy    (eV) =      10.564915         10.825619
       Potential energy  (eV) =     -80.763785        -82.006268
       Total energy      (eV) =     -70.198870        -71.180649
       Temperature       (K)  =    2636.572578       2701.633677
       Pressure         (GPa) =      19.743403         18.462996
  ** Time :            2.84000 ps :
     Properties:                   Instantaneous       Averaged
       Kinetic energy    (eV) =      10.769906         10.825227
       Potential energy  (eV) =     -80.366829        -81.994723
       Total energy      (eV) =     -69.596923        -71.169496
       Temperature       (K)  =    2687.729875       2701.535763
       Pressure         (GPa) =      20.395231         18.476603
  ** Time :            2.86000 ps :
     Properties:                   Instantaneous       Averaged
       Kinetic energy    (eV) =      10.985842         10.826350
       Potential energy  (eV) =     -80.988516        -81.987686
       Total energy      (eV) =     -70.002674        -71.161336
       Temperature       (K)  =    2741.618777       2701.816064
       Pressure         (GPa) =      20.020301         18.487398
  ** Time :            2.88000 ps :
     Properties:                   Instantaneous       Averaged
       Kinetic energy    (eV) =      10.725747         10.825651
       Potential energy  (eV) =     -80.376215        -81.976495
       Total energy      (eV) =     -69.650468        -71.150844
       Temperature       (K)  =    2676.709663       2701.641714
       Pressure         (GPa) =      20.533475         18.501607
  ** Time :            2.90000 ps :
     Properties:                   Instantaneous       Averaged
       Kinetic energy    (eV) =      10.557059         10.823799
       Potential energy  (eV) =     -80.648315        -81.967336
       Total energy      (eV) =     -70.091256        -71.143536
       Temperature       (K)  =    2634.612064       2701.179441
       Pressure         (GPa) =      20.339890         18.514285
  ** Time :            2.92000 ps :
     Properties:                   Instantaneous       Averaged
       Kinetic energy    (eV) =      10.904012         10.824348
       Potential energy  (eV) =     -80.439182        -81.956869
       Total energy      (eV) =     -69.535170        -71.132520
       Temperature       (K)  =    2721.197350       2701.316550
       Pressure         (GPa) =      20.409090         18.527263
  ** Time :            2.94000 ps :
     Properties:                   Instantaneous       Averaged
       Kinetic energy    (eV) =      10.977507         10.825390
       Potential energy  (eV) =     -80.997589        -81.950343
       Total energy      (eV) =     -70.020082        -71.124953
       Temperature       (K)  =    2739.538704       2701.576564
       Pressure         (GPa) =      19.724479         18.535407
  ** Time :            2.96000 ps :
     Properties:                   Instantaneous       Averaged
       Kinetic energy    (eV) =      10.277634         10.821689
       Potential energy  (eV) =     -80.864306        -81.943005
       Total energy      (eV) =     -70.586672        -71.121316
       Temperature       (K)  =    2564.878953       2700.652932
       Pressure         (GPa) =      19.793273         18.543906
  ** Time :            2.98000 ps :
     Properties:                   Instantaneous       Averaged
       Kinetic energy    (eV) =      10.703055         10.820893
       Potential energy  (eV) =     -80.659089        -81.934388
       Total energy      (eV) =     -69.956034        -71.113495
       Temperature       (K)  =    2671.046695       2700.454232
       Pressure         (GPa) =      20.137943         18.554605
  ** Time :            3.00000 ps :
     Properties:                   Instantaneous       Averaged
       Kinetic energy    (eV) =      10.461689         10.818498
       Potential energy  (eV) =     -80.820625        -81.926963
       Total energy      (eV) =     -70.358936        -71.108465
       Temperature       (K)  =    2610.811540       2699.856614
       Pressure         (GPa) =      19.800896         18.562913
  ** Time :            3.02000 ps :
     Properties:                   Instantaneous       Averaged
       Kinetic energy    (eV) =      11.628709         10.823864
       Potential energy  (eV) =     -81.238200        -81.922402
       Total energy      (eV) =     -69.609491        -71.098538
       Temperature       (K)  =    2902.052110       2701.195657
       Pressure         (GPa) =      19.340687         18.568064
  ** Time :            3.04000 ps :
     Properties:                   Instantaneous       Averaged
       Kinetic energy    (eV) =      11.333687         10.827218
       Potential energy  (eV) =     -82.496637        -81.926179
       Total energy      (eV) =     -71.162950        -71.098961
       Temperature       (K)  =    2828.426626       2702.032703
       Pressure         (GPa) =      17.824320         18.563171
  ** Time :            3.06000 ps :
     Properties:                   Instantaneous       Averaged
       Kinetic energy    (eV) =      11.158331         10.829382
       Potential energy  (eV) =     -83.732667        -81.937987
       Total energy      (eV) =     -72.574336        -71.108604
       Temperature       (K)  =    2784.665106       2702.572784
       Pressure         (GPa) =      16.712490         18.551075
  ** Time :            3.08000 ps :
     Properties:                   Instantaneous       Averaged
       Kinetic energy    (eV) =      10.397743         10.826579
       Potential energy  (eV) =     -82.381576        -81.940867
       Total energy      (eV) =     -71.983833        -71.114288
       Temperature       (K)  =    2594.853300       2701.873307
       Pressure         (GPa) =      17.741597         18.545819
  ** Time :            3.10000 ps :
     Properties:                   Instantaneous       Averaged
       Kinetic energy    (eV) =      11.694175         10.832177
       Potential energy  (eV) =     -83.458811        -81.950660
       Total energy      (eV) =     -71.764636        -71.118483
       Temperature       (K)  =    2918.389892       2703.270188
       Pressure         (GPa) =      16.811301         18.534628
  ** Time :            3.12000 ps :
     Properties:                   Instantaneous       Averaged
       Kinetic energy    (eV) =      11.585027         10.837003
       Potential energy  (eV) =     -84.870042        -81.969374
       Total energy      (eV) =     -73.285015        -71.132371
       Temperature       (K)  =    2891.150962       2704.474552
       Pressure         (GPa) =      15.174948         18.513092
  ** Time :            3.14000 ps :
     Properties:                   Instantaneous       Averaged
       Kinetic energy    (eV) =      11.765014         10.842914
       Potential energy  (eV) =     -86.163429        -81.996088
       Total energy      (eV) =     -74.398415        -71.153174
       Temperature       (K)  =    2936.068438       2705.949672
       Pressure         (GPa) =      13.784634         18.482974
  ** Time :            3.16000 ps :
     Properties:                   Instantaneous       Averaged
       Kinetic energy    (eV) =      10.160306         10.838593
       Potential energy  (eV) =     -85.450133        -82.017949
       Total energy      (eV) =     -75.289827        -71.179356
       Temperature       (K)  =    2535.598523       2704.871501
       Pressure         (GPa) =      14.282652         18.456390
  ** Time :            3.18000 ps :
     Properties:                   Instantaneous       Averaged
       Kinetic energy    (eV) =      11.271531         10.841316
       Potential energy  (eV) =     -84.284284        -82.032203
       Total energy      (eV) =     -73.012753        -71.190886
       Temperature       (K)  =    2812.915203       2705.551021
       Pressure         (GPa) =      15.653898         18.438764
  ** Time :            3.20000 ps :
     Properties:                   Instantaneous       Averaged
       Kinetic energy    (eV) =      10.457257         10.838916
       Potential energy  (eV) =     -85.109864        -82.051438
       Total energy      (eV) =     -74.652608        -71.212522
       Temperature       (K)  =    2609.705360       2704.951985
       Pressure         (GPa) =      14.889611         18.416582
  ** Time :            3.22000 ps :
     Properties:                   Instantaneous       Averaged
       Kinetic energy    (eV) =      10.508651         10.836865
       Potential energy  (eV) =     -84.083956        -82.064062
       Total energy      (eV) =     -73.575305        -71.227198
       Temperature       (K)  =    2622.531228       2704.440055
       Pressure         (GPa) =      16.122355         18.402332
  ** Time :            3.24000 ps :
     Properties:                   Instantaneous       Averaged
       Kinetic energy    (eV) =      10.347678         10.833845
       Potential energy  (eV) =     -83.345851        -82.071975
       Total energy      (eV) =     -72.998173        -71.238130
       Temperature       (K)  =    2582.359045       2703.686469
       Pressure         (GPa) =      16.849839         18.392749
  ** Time :            3.26000 ps :
     Properties:                   Instantaneous       Averaged
       Kinetic energy    (eV) =      11.715910         10.839256
       Potential energy  (eV) =     -84.334644        -82.085856
       Total energy      (eV) =     -72.618734        -71.246600
       Temperature       (K)  =    2923.813983       2705.036944
       Pressure         (GPa) =      15.957366         18.377808
  ** Time :            3.28000 ps :
     Properties:                   Instantaneous       Averaged
       Kinetic energy    (eV) =      10.807010         10.839060
[...]
       Pressure         (GPa) =      26.108070         18.503333
  ** Time :            7.48000 ps :
     Properties:                   Instantaneous       Averaged
       Kinetic energy    (eV) =      15.352161         11.906620
       Potential energy  (eV) =     -76.880589        -82.148217
       Total energy      (eV) =     -61.528429        -70.241597
       Temperature       (K)  =    3831.274041       2971.407367
       Pressure         (GPa) =      24.950347         18.520571
  ** Time :            7.50000 ps :
     Properties:                   Instantaneous       Averaged
       Kinetic energy    (eV) =      16.290599         11.918310
       Potential energy  (eV) =     -77.231222        -82.135105
       Total energy      (eV) =     -60.940623        -70.216795
       Temperature       (K)  =    4065.470107       2974.324867
       Pressure         (GPa) =      24.420029         18.536303
  ** Time :            7.52000 ps :
     Properties:                   Instantaneous       Averaged
       Kinetic energy    (eV) =      16.674854         11.930961
       Potential energy  (eV) =     -76.638542        -82.120486
       Total energy      (eV) =     -59.963688        -70.189526
       Temperature       (K)  =    4161.364462       2977.481888
       Pressure         (GPa) =      24.885890         18.553190
  ** Time :            7.54000 ps :
     Properties:                   Instantaneous       Averaged
       Kinetic energy    (eV) =      18.183681         11.947546
       Potential energy  (eV) =     -78.075303        -82.109757
       Total energy      (eV) =     -59.891621        -70.162210
       Temperature       (K)  =    4537.906344       2981.620944
       Pressure         (GPa) =      24.437848         18.568800
  ** Time :            7.56000 ps :
     Properties:                   Instantaneous       Averaged
       Kinetic energy    (eV) =      18.622281         11.965204
       Potential energy  (eV) =     -78.519056        -82.100257
       Total energy      (eV) =     -59.896775        -70.135053
       Temperature       (K)  =    4647.362918       2986.027669
       Pressure         (GPa) =      23.808534         18.582661
  ** Time :            7.58000 ps :
     Properties:                   Instantaneous       Averaged
       Kinetic energy    (eV) =      18.478173         11.982389
       Potential energy  (eV) =     -77.927591        -82.089248
       Total energy      (eV) =     -59.449419        -70.106859
       Temperature       (K)  =    4611.399325       2990.316249
       Pressure         (GPa) =      24.510387         18.598302
  ** Time :            7.60000 ps :
     Properties:                   Instantaneous       Averaged
       Kinetic energy    (eV) =      17.903661         11.997971
       Potential energy  (eV) =     -77.775897        -82.077897
       Total energy      (eV) =     -59.872236        -70.079926
       Temperature       (K)  =    4468.024627       2994.204955
       Pressure         (GPa) =      25.037838         18.615248
  ** Time :            7.62000 ps :
     Properties:                   Instantaneous       Averaged
       Kinetic energy    (eV) =      16.536650         12.009884
       Potential energy  (eV) =     -76.216785        -82.062513
       Total energy      (eV) =     -59.680135        -70.052630
       Temperature       (K)  =    4126.874406       2997.177841
       Pressure         (GPa) =      27.359759         18.638199
  ** Time :            7.64000 ps :
     Properties:                   Instantaneous       Averaged
       Kinetic energy    (eV) =      14.774544         12.017121
       Potential energy  (eV) =     -73.937829        -82.041244
       Total energy      (eV) =     -59.163285        -70.024123
       Temperature       (K)  =    3687.124514       2998.983984
       Pressure         (GPa) =      29.609471         18.666920
  ** Time :            7.66000 ps :
     Properties:                   Instantaneous       Averaged
       Kinetic energy    (eV) =      15.571835         12.026402
       Potential energy  (eV) =     -74.703927        -82.022087
       Total energy      (eV) =     -59.132092        -69.995685
       Temperature       (K)  =    3886.095865       3001.300203
       Pressure         (GPa) =      28.487861         18.692562
  ** Time :            7.68000 ps :
     Properties:                   Instantaneous       Averaged
       Kinetic energy    (eV) =      17.170392         12.039798
       Potential energy  (eV) =     -76.663180        -82.008131
       Total energy      (eV) =     -59.492788        -69.968333
       Temperature       (K)  =    4285.030595       3004.643251
       Pressure         (GPa) =      27.041570         18.714304
  ** Time :            7.70000 ps :
     Properties:                   Instantaneous       Averaged
       Kinetic energy    (eV) =      15.237527         12.048104
       Potential energy  (eV) =     -74.063250        -81.987495
       Total energy      (eV) =     -58.825723        -69.939392
       Temperature       (K)  =    3802.666138       3006.716038
       Pressure         (GPa) =      29.304976         18.741813
  ** Time :            7.72000 ps :
     Properties:                   Instantaneous       Averaged
       Kinetic energy    (eV) =      15.526236         12.057115
       Potential energy  (eV) =     -74.691802        -81.968595
       Total energy      (eV) =     -59.165566        -69.911480
       Temperature       (K)  =    3874.716226       3008.964743
       Pressure         (GPa) =      28.553596         18.767232
  ** Time :            7.74000 ps :
     Properties:                   Instantaneous       Averaged
       Kinetic energy    (eV) =      16.308238         12.068099
       Potential energy  (eV) =     -75.456615        -81.951768
       Total energy      (eV) =     -59.148377        -69.883668
       Temperature       (K)  =    4069.872103       3011.706105
       Pressure         (GPa) =      27.433308         18.789625
  ** Time :            7.76000 ps :
     Properties:                   Instantaneous       Averaged
       Kinetic energy    (eV) =      17.640967         12.082462
       Potential energy  (eV) =     -76.843859        -81.938603
       Total energy      (eV) =     -59.202892        -69.856141
       Temperature       (K)  =    4402.466830       3015.290540
       Pressure         (GPa) =      25.507778         18.806939
  ** Time :            7.78000 ps :
     Properties:                   Instantaneous       Averaged
       Kinetic energy    (eV) =      16.747778         12.094455
       Potential energy  (eV) =     -75.179353        -81.921227
       Total energy      (eV) =     -58.431575        -69.826772
       Temperature       (K)  =    4179.563279       3018.283529
       Pressure         (GPa) =      27.083580         18.828216
  ** Time :            7.80000 ps :
     Properties:                   Instantaneous       Averaged
       Kinetic energy    (eV) =      16.238978         12.105082
       Potential energy  (eV) =     -75.275425        -81.904187
       Total energy      (eV) =     -59.036447        -69.799104
       Temperature       (K)  =    4052.587554       3020.935591
       Pressure         (GPa) =      27.624527         18.850771
  ** Time :            7.82000 ps :
     Properties:                   Instantaneous       Averaged
       Kinetic energy    (eV) =      15.897151         12.114781
       Potential energy  (eV) =     -74.235856        -81.884575
       Total energy      (eV) =     -58.338706        -69.769794
       Temperature       (K)  =    3967.281339       3023.355912
       Pressure         (GPa) =      28.437744         18.875290
  ** Time :            7.84000 ps :
     Properties:                   Instantaneous       Averaged
       Kinetic energy    (eV) =      16.040280         12.124795
       Potential energy  (eV) =     -74.556019        -81.865879
       Total energy      (eV) =     -58.515739        -69.741084
       Temperature       (K)  =    4003.000658       3025.855006
       Pressure         (GPa) =      27.933209         18.898397
  ** Time :            7.86000 ps :
     Properties:                   Instantaneous       Averaged
       Kinetic energy    (eV) =      16.861386         12.136847
       Potential energy  (eV) =     -75.276832        -81.849113
       Total energy      (eV) =     -58.415446        -69.712266
       Temperature       (K)  =    4207.915260       3028.862793
       Pressure         (GPa) =      26.992199         18.918992
  ** Time :            7.88000 ps :
     Properties:                   Instantaneous       Averaged
       Kinetic energy    (eV) =      15.506350         12.145399
       Potential energy  (eV) =     -73.321944        -81.827471
       Total energy      (eV) =     -57.815594        -69.682071
       Temperature       (K)  =    3869.753439       3030.997033
       Pressure         (GPa) =      27.647581         18.941146
  ** Time :            7.90000 ps :
     Properties:                   Instantaneous       Averaged
       Kinetic energy    (eV) =      16.767482         12.157101
       Potential energy  (eV) =     -75.032119        -81.810267
       Total energy      (eV) =     -58.264637        -69.653166
       Temperature       (K)  =    4184.480715       3033.917245
       Pressure         (GPa) =      26.746312         18.960905
  ** Time :            7.92000 ps :
     Properties:                   Instantaneous       Averaged
       Kinetic energy    (eV) =      14.698946         12.163520
       Potential energy  (eV) =     -71.424579        -81.784041
       Total energy      (eV) =     -56.725633        -69.620521
       Temperature       (K)  =    3668.258346       3035.519117
       Pressure         (GPa) =      30.193015         18.989269
  ** Time :            7.94000 ps :
     Properties:                   Instantaneous       Averaged
       Kinetic energy    (eV) =      16.819841         12.175248
       Potential energy  (eV) =     -74.518159        -81.765739
       Total energy      (eV) =     -57.698318        -69.590490
       Temperature       (K)  =    4197.547346       3038.446140
       Pressure         (GPa) =      27.988707         19.011938
  ** Time :            7.96000 ps :
     Properties:                   Instantaneous       Averaged
       Kinetic energy    (eV) =      14.996472         12.182337
       Potential energy  (eV) =     -71.251690        -81.739322
       Total energy      (eV) =     -56.255218        -69.556985
       Temperature       (K)  =    3742.508563       3040.215141
       Pressure         (GPa) =      30.651114         19.041182
  ** Time :            7.98000 ps :
     Properties:                   Instantaneous       Averaged
       Kinetic energy    (eV) =      16.373199         12.192840
       Potential energy  (eV) =     -73.111044        -81.717697
       Total energy      (eV) =     -56.737845        -69.524857
       Temperature       (K)  =    4086.083678       3042.836365
       Pressure         (GPa) =      29.129833         19.066467
  ** Time :            8.00000 ps :
     Properties:                   Instantaneous       Averaged
       Kinetic energy    (eV) =      17.684740         12.206570
       Potential energy  (eV) =     -74.464558        -81.699564
       Total energy      (eV) =     -56.779818        -69.492994
       Temperature       (K)  =    4413.390893       3046.262752
       Pressure         (GPa) =      28.453708         19.089935
  ** Time :            8.02000 ps :
     Properties:                   Instantaneous       Averaged
       Kinetic energy    (eV) =      14.882459         12.213243
       Potential energy  (eV) =     -71.389063        -81.673852
       Total energy      (eV) =     -56.506604        -69.460609
       Temperature       (K)  =    3714.055773       3047.928071
       Pressure         (GPa) =      31.377223         19.120577
  ** Time :            8.04000 ps :
     Properties:                   Instantaneous       Averaged
       Kinetic energy    (eV) =      12.159956         12.213111
       Potential energy  (eV) =     -69.207890        -81.642842
       Total energy      (eV) =     -57.047934        -69.429732
       Temperature       (K)  =    3034.629794       3047.894991
       Pressure         (GPa) =      33.289538         19.155823
  ** Time :            8.06000 ps :
     Properties:                   Instantaneous       Averaged
       Kinetic energy    (eV) =      13.453367         12.216188
       Potential energy  (eV) =     -70.211720        -81.614477
       Total energy      (eV) =     -56.758353        -69.398289
       Temperature       (K)  =    3357.412550       3048.663024
       Pressure         (GPa) =      32.473246         19.188869
  ** Time :            8.08000 ps :
     Properties:                   Instantaneous       Averaged
       Kinetic energy    (eV) =      17.349051         12.228893
       Potential energy  (eV) =     -74.273259        -81.596306
       Total energy      (eV) =     -56.924208        -69.367413
       Temperature       (K)  =    4329.616503       3051.833701
       Pressure         (GPa) =      28.862345         19.212813
  ** Time :            8.10000 ps :
     Properties:                   Instantaneous       Averaged
       Kinetic energy    (eV) =      15.747079         12.237580
       Potential energy  (eV) =     -70.836293        -81.569738
       Total energy      (eV) =     -55.089213        -69.332158
       Temperature       (K)  =    3929.829696       3054.001593
       Pressure         (GPa) =      31.401767         19.242909
  ** Time :            8.12000 ps :
     Properties:                   Instantaneous       Averaged
       Kinetic energy    (eV) =      18.098057         12.252015
       Potential energy  (eV) =     -72.778026        -81.548083
       Total energy      (eV) =     -54.679970        -69.296069
       Temperature       (K)  =    4516.537896       3057.603899
       Pressure         (GPa) =      30.351911         19.270271
  ** Time :            8.14000 ps :
     Properties:                   Instantaneous       Averaged
       Kinetic energy    (eV) =      18.073627         12.266318
       Potential energy  (eV) =     -71.704154        -81.523897
       Total energy      (eV) =     -53.630527        -69.257578
       Temperature       (K)  =    4510.441175       3061.173523
       Pressure         (GPa) =      31.208524         19.299603
  ** Time :            8.16000 ps :
     Properties:                   Instantaneous       Averaged
       Kinetic energy    (eV) =      20.545541         12.286611
       Potential energy  (eV) =     -74.902854        -81.507669
       Total energy      (eV) =     -54.357313        -69.221058
       Temperature       (K)  =    5127.330258       3066.237633
       Pressure         (GPa) =      28.737597         19.322736
  ** Time :            8.18000 ps :
     Properties:                   Instantaneous       Averaged
       Kinetic energy    (eV) =      18.935953         12.302868
       Potential energy  (eV) =     -73.662172        -81.488487
       Total energy      (eV) =     -54.726219        -69.185618
       Temperature       (K)  =    4725.642673       3070.294858
       Pressure         (GPa) =      29.803186         19.348360
  ** Time :            8.20000 ps :
     Properties:                   Instantaneous       Averaged
       Kinetic energy    (eV) =      13.802119         12.306525
       Potential energy  (eV) =     -67.892014        -81.455324
       Total energy      (eV) =     -54.089896        -69.148800
       Temperature       (K)  =    3444.446720       3071.207424
       Pressure         (GPa) =      34.742774         19.385908
  ** Time :            8.22000 ps :
     Properties:                   Instantaneous       Averaged
       Kinetic energy    (eV) =      13.627202         12.309738
       Potential energy  (eV) =     -64.338938        -81.413679
       Total energy      (eV) =     -50.711736        -69.103940
       Temperature       (K)  =    3400.794546       3072.009339
       Pressure         (GPa) =      37.342763         19.429598
  ** Time :            8.24000 ps :
     Properties:                   Instantaneous       Averaged
       Kinetic energy    (eV) =      21.962121         12.333166
       Potential energy  (eV) =     -63.457230        -81.370095
       Total energy      (eV) =     -41.495109        -69.036929
       Temperature       (K)  =    5480.851067       3077.856042
       Pressure         (GPa) =      40.276653         19.480198
  ** Time :            8.26000 ps :
     Properties:                   Instantaneous       Averaged
       Kinetic energy    (eV) =      29.814640         12.375494
       Potential energy  (eV) =     -61.395151        -81.321730
       Total energy      (eV) =     -31.580511        -68.946235
       Temperature       (K)  =    7440.519914       3088.419393
       Pressure         (GPa) =      43.044620         19.537255
  ** Time :            8.28000 ps :
     Properties:                   Instantaneous       Averaged
       Kinetic energy    (eV) =      41.880016         12.446761
       Potential energy  (eV) =     -53.193532        -81.253787
       Total energy      (eV) =     -11.313516        -68.807026
       Temperature       (K)  =   10451.546401       3106.204724
       Pressure         (GPa) =      51.806643         19.615200
  ** Time :            8.30000 ps :
     Properties:                   Instantaneous       Averaged
       Kinetic energy    (eV) =      69.620762         12.584530
       Potential energy  (eV) =     -63.152718        -81.210170
       Total energy      (eV) =       6.468045        -68.625640
       Temperature       (K)  =   17374.506903       3140.586175
       Pressure         (GPa) =      50.149013         19.688776
  ** Time :            8.32000 ps :
     Properties:                   Instantaneous       Averaged
       Kinetic energy    (eV) =      56.448835         12.689973
       Potential energy  (eV) =     -32.649596        -81.093438
       Total energy      (eV) =      23.799239        -68.403465
       Temperature       (K)  =   14087.330333       3166.900464
       Pressure         (GPa) =      73.117141         19.817209
  ** Time :            8.34000 ps :
     Properties:                   Instantaneous       Averaged
       Kinetic energy    (eV) =     718.932566         14.383600
       Potential energy  (eV) =      74.397844        -80.720557
       Total energy      (eV) =     793.330411        -66.336957
       Temperature       (K)  =  179416.289178       3589.560868
       Pressure         (GPa) =     265.977737         20.407522


!!!!!!!!!!!!!!!!!!!!!!!!!!!!!!!!!!!!!!!!!!!!!!!!!!!!!!!!!!!!!!!!!!!!!!!!!!!!!!!!
!! ERROR : temperature has exceeded maximum allowed set by mdmaxtemp
!!!!!!!!!!!!!!!!!!!!!!!!!!!!!!!!!!!!!!!!!!!!!!!!!!!!!!!!!!!!!!!!!!!!!!!!!!!!!!!!


  Peak dynamic memory used =       0.57 MB 


  Timing analysis for GULP :

--------------------------------------------------------------------------------
  Task / Subroutine                                          Time (Seconds)
--------------------------------------------------------------------------------
  Calculation of real space energy and derivatives                0.9360
  Calculation of many-body energy and derivatives                 0.5080
--------------------------------------------------------------------------------
  Total CPU time                                                  1.6600
--------------------------------------------------------------------------------


  Dump file written as Recovery_2_3000_0.02.res                                
  GULP ASCII trajectory file written as Trajectories_2_3000_0.02.trg            


  Job Finished at 18:21.34 17th May        2018                               

