********************************************************************************
*                       GENERAL UTILITY LATTICE PROGRAM                        *
*                                 Julian Gale                                  *
*                       Curtin Institute for Computation                       *
*                           Department of Chemistry                            *
*                    Curtin University, Western Australia                      *
********************************************************************************
* Version = 5.0.0 * Last modified =  18th April 2018                           *
********************************************************************************
*  single       - perform a single point run                                   *
*  md           - perform molecular dynamics run                               *
*  conv         - constant volume calculation                                  *
********************************************************************************
* molecular dynamics of silver                                                 *
********************************************************************************


  Job Started  at 17:42.22 17th May        2018                               

  Number of CPUs =     1


  Total number of configurations input =   1

********************************************************************************
*  Input for Configuration =   1                                               *
********************************************************************************

  Formula = Ag32                                                        

  Number of irreducible atoms/shells =      32


  Total number atoms/shells =      32

  Dimensionality = 3               :  Bulk   



  Supercell dimensions :  x =   2  y =   2  z =   2

  Cartesian lattice vectors (Angstroms) :

        8.170000    0.000000    0.000000
        0.000000    8.170000    0.000000
        0.000000    0.000000    8.170000

  Cell parameters (Angstroms/Degrees):

  a =       8.1700    alpha =  90.0000
  b =       8.1700    beta  =  90.0000
  c =       8.1700    gamma =  90.0000

  Initial cell volume =         545.338513 Angs**3

  Temperature of configuration =  3000.     K 

  Pressure of configuration =         0.000 GPa 

  Fractional coordinates of asymmetric unit :

--------------------------------------------------------------------------------
   No.  Atomic       x           y          z         Charge      Occupancy
        Label      (Frac)      (Frac)     (Frac)        (e)         (Frac)  
--------------------------------------------------------------------------------
      1 Ag    c    0.000000 *  0.000000 *  0.000000 *   0.00000    1.000000    
      2 Ag    c    0.000000 *  0.000000 *  0.500000 *   0.00000    1.000000    
      3 Ag    c    0.000000 *  0.500000 *  0.000000 *   0.00000    1.000000    
      4 Ag    c    0.000000 *  0.500000 *  0.500000 *   0.00000    1.000000    
      5 Ag    c    0.500000 *  0.000000 *  0.000000 *   0.00000    1.000000    
      6 Ag    c    0.500000 *  0.000000 *  0.500000 *   0.00000    1.000000    
      7 Ag    c    0.500000 *  0.500000 *  0.000000 *   0.00000    1.000000    
      8 Ag    c    0.500000 *  0.500000 *  0.500000 *   0.00000    1.000000    
      9 Ag    c    0.000000 *  0.250000 *  0.250000 *   0.00000    1.000000    
     10 Ag    c    0.000000 *  0.250000 *  0.750000 *   0.00000    1.000000    
     11 Ag    c    0.000000 *  0.750000 *  0.250000 *   0.00000    1.000000    
     12 Ag    c    0.000000 *  0.750000 *  0.750000 *   0.00000    1.000000    
     13 Ag    c    0.500000 *  0.250000 *  0.250000 *   0.00000    1.000000    
     14 Ag    c    0.500000 *  0.250000 *  0.750000 *   0.00000    1.000000    
     15 Ag    c    0.500000 *  0.750000 *  0.250000 *   0.00000    1.000000    
     16 Ag    c    0.500000 *  0.750000 *  0.750000 *   0.00000    1.000000    
     17 Ag    c    0.250000 *  0.000000 *  0.250000 *   0.00000    1.000000    
     18 Ag    c    0.250000 *  0.000000 *  0.750000 *   0.00000    1.000000    
     19 Ag    c    0.250000 *  0.500000 *  0.250000 *   0.00000    1.000000    
     20 Ag    c    0.250000 *  0.500000 *  0.750000 *   0.00000    1.000000    
     21 Ag    c    0.750000 *  0.000000 *  0.250000 *   0.00000    1.000000    
     22 Ag    c    0.750000 *  0.000000 *  0.750000 *   0.00000    1.000000    
     23 Ag    c    0.750000 *  0.500000 *  0.250000 *   0.00000    1.000000    
     24 Ag    c    0.750000 *  0.500000 *  0.750000 *   0.00000    1.000000    
     25 Ag    c    0.250000 *  0.250000 *  0.000000 *   0.00000    1.000000    
     26 Ag    c    0.250000 *  0.250000 *  0.500000 *   0.00000    1.000000    
     27 Ag    c    0.250000 *  0.750000 *  0.000000 *   0.00000    1.000000    
     28 Ag    c    0.250000 *  0.750000 *  0.500000 *   0.00000    1.000000    
     29 Ag    c    0.750000 *  0.250000 *  0.000000 *   0.00000    1.000000    
     30 Ag    c    0.750000 *  0.250000 *  0.500000 *   0.00000    1.000000    
     31 Ag    c    0.750000 *  0.750000 *  0.000000 *   0.00000    1.000000    
     32 Ag    c    0.750000 *  0.750000 *  0.500000 *   0.00000    1.000000    
--------------------------------------------------------------------------------



********************************************************************************
*  General input information                                                   *
********************************************************************************

  Species output for all configurations : 

--------------------------------------------------------------------------------
  Species    Type    Atomic    Atomic    Charge       Radii (Angs)     Library
                     Number     Mass       (e)     Cova   Ionic  VDW   Symbol
--------------------------------------------------------------------------------
    Ag       Core       47     107.87   0.000000   1.590  0.000  2.370          
--------------------------------------------------------------------------------


  Lattice summation method               =    Ewald          (3-D)
                                         =    Parry          (2-D)
                                         =    Saunders et al (1-D)
  Accuracy factor for lattice sums       =   12.000


  Time limit = Infinity

  Maximum range for interatomic potentials =    100000.000000 Angstroms

  General interatomic potentials :

--------------------------------------------------------------------------------
Atom  Types   Potential      Parameter       Value         Units   Cutoffs(Ang)
  1     2                                                            Min /  Max 
--------------------------------------------------------------------------------
Ag   c Ag   c Many-body                                             0.000  8.000
--------------------------------------------------------------------------------
Ag   c Ag   c Buckingham    Buckingham A     11454.950    eV        0.000 12.000
                            Buckingham rho  0.26432400    Ang       
                            Buckingham C     0.0000000    eV*Ang^6  
--------------------------------------------------------------------------------

  Embedded Atom Model Densities :

--------------------------------------------------------------------------------
  Atom(s)       Functional Form          A          B          C         n      
--------------------------------------------------------------------------------
  Ag   c        Exponential          1.388      2.173      2.889         0
--------------------------------------------------------------------------------


  Embedded Atom Model alloy parameters :

--------------------------------------------------------------------------------
  Atom(s)                          Scale factor 
--------------------------------------------------------------------------------
  Ag    c                            1.000000
--------------------------------------------------------------------------------

  Embedded Atom Model functional = Square Root

--------------------------------------------------------------------------------
  Atom                     A     
--------------------------------------------------------------------------------
  Ag    c               1.000000
--------------------------------------------------------------------------------


  Manybody second derivative cross term cutoffs to be scale by = 0.50000000

********************************************************************************
*  Output for configuration   1                                                *
********************************************************************************


  Components of energy : 

--------------------------------------------------------------------------------
  Interatomic potentials     =          39.71625760 eV    
  Many-body potentials       =        -134.45860512 eV    
  Monopole - monopole (real) =           0.00000000 eV    
  Monopole - monopole (recip)=           0.00000000 eV    
  Monopole - monopole (total)=           0.00000000 eV    
--------------------------------------------------------------------------------
  Total lattice energy       =         -94.74234752 eV    
--------------------------------------------------------------------------------
  Total lattice energy       =           -9141.1883 kJ/(mole unit cells)
--------------------------------------------------------------------------------

  Equations of motion will be integrated using the leapfrog Verlet algorithm.

********************************************************************************
*  Molecular Dynamics                                                          *
********************************************************************************

  Microcanonical ensemble (NVE) to be used

  No. of mobile ions        =                 32

  No. of degrees of freedom =                 93

  Time step                 =           0.007000 ps
  Equilibration time        =           5.000000 ps
  Production time           =          10.000000 ps
  Scaling time              =           4.998000 ps
  Scaling frequency         =           0.007000 ps
  Sampling frequency        =           0.021000 ps
  Write frequency           =           0.021000 ps
  TD-Force start time       =           0.000000 ps
  TD-Field start time       =           0.000000 ps



  Molecular dynamics equilibration :

  ** Time :            0.02100 ps :
     Properties:                   Instantaneous       Averaged
       Kinetic energy    (eV) =      11.401203         11.401203
       Potential energy  (eV) =     -93.564159        -93.564159
       Total energy      (eV) =     -82.162956        -82.162956
       Temperature       (K)  =    2845.275914       2845.275914
       Pressure         (GPa) =       3.916688          3.916688
  ** Time :            0.04200 ps :
     Properties:                   Instantaneous       Averaged
       Kinetic energy    (eV) =      10.400212         10.900707
       Potential energy  (eV) =     -87.127658        -90.345909
       Total energy      (eV) =     -76.727446        -79.445201
       Temperature       (K)  =    2595.469331       2720.372622
       Pressure         (GPa) =      11.914283          7.915485
  ** Time :            0.06300 ps :
     Properties:                   Instantaneous       Averaged
       Kinetic energy    (eV) =      11.637974         11.146463
       Potential energy  (eV) =     -81.561418        -87.417745
       Total energy      (eV) =     -69.923443        -76.271282
       Temperature       (K)  =    2904.364438       2781.703227
       Pressure         (GPa) =      18.957503         11.596158
  ** Time :            0.08400 ps :
     Properties:                   Instantaneous       Averaged
       Kinetic energy    (eV) =      11.734911         11.293575
       Potential energy  (eV) =     -81.593914        -85.961787
       Total energy      (eV) =     -69.859003        -74.668212
       Temperature       (K)  =    2928.555957       2818.416410
       Pressure         (GPa) =      19.209688         13.499540
  ** Time :            0.10500 ps :
     Properties:                   Instantaneous       Averaged
       Kinetic energy    (eV) =      11.649627         11.364785
       Potential energy  (eV) =     -79.951886        -84.759807
       Total energy      (eV) =     -68.302260        -73.395022
       Temperature       (K)  =    2907.272353       2836.187598
       Pressure         (GPa) =      20.889570         14.977546
  ** Time :            0.12600 ps :
     Properties:                   Instantaneous       Averaged
       Kinetic energy    (eV) =      11.572545         11.399412
       Potential energy  (eV) =     -78.754830        -83.758978
       Total energy      (eV) =     -67.182285        -72.359566
       Temperature       (K)  =    2888.035985       2844.828996
       Pressure         (GPa) =      22.635759         16.253915
  ** Time :            0.14700 ps :
     Properties:                   Instantaneous       Averaged
       Kinetic energy    (eV) =      11.476510         11.410426
       Potential energy  (eV) =     -76.207061        -82.680132
       Total energy      (eV) =     -64.730551        -71.269706
       Temperature       (K)  =    2864.069453       2847.577633
       Pressure         (GPa) =      25.238335         17.537404
  ** Time :            0.16800 ps :
     Properties:                   Instantaneous       Averaged
       Kinetic energy    (eV) =      12.361023         11.529251
       Potential energy  (eV) =     -77.285529        -82.005807
       Total energy      (eV) =     -64.924506        -70.476556
       Temperature       (K)  =    3084.807921       2877.231419
       Pressure         (GPa) =      24.296441         18.382283
  ** Time :            0.18900 ps :
     Properties:                   Instantaneous       Averaged
       Kinetic energy    (eV) =      12.008748         11.582528
       Potential energy  (eV) =     -79.691408        -81.748652
       Total energy      (eV) =     -67.682661        -70.166124
       Temperature       (K)  =    2996.894334       2890.527298
       Pressure         (GPa) =      21.698843         18.750790
  ** Time :            0.21000 ps :
     Properties:                   Instantaneous       Averaged
       Kinetic energy    (eV) =      11.776044         11.601880
       Potential energy  (eV) =     -79.342517        -81.508038
       Total energy      (eV) =     -67.566472        -69.906158
       Temperature       (K)  =    2938.821074       2895.356676
       Pressure         (GPa) =      21.806220         19.056333
  ** Time :            0.23100 ps :
     Properties:                   Instantaneous       Averaged
       Kinetic energy    (eV) =      11.987993         11.636981
       Potential energy  (eV) =     -79.299960        -81.307304
       Total energy      (eV) =     -67.311967        -69.670323
       Temperature       (K)  =    2991.714729       2904.116499
       Pressure         (GPa) =      21.762134         19.302315
  ** Time :            0.25200 ps :
     Properties:                   Instantaneous       Averaged
       Kinetic energy    (eV) =      12.059612         11.672200
       Potential energy  (eV) =     -80.254155        -81.219541
       Total energy      (eV) =     -68.194543        -69.547341
       Temperature       (K)  =    3009.588046       2912.905795
       Pressure         (GPa) =      20.806716         19.427682
  ** Time :            0.27300 ps :
     Properties:                   Instantaneous       Averaged
       Kinetic energy    (eV) =      11.795640         11.681696
       Potential energy  (eV) =     -80.303491        -81.149076
       Total energy      (eV) =     -68.507851        -69.467380
       Temperature       (K)  =    2943.711418       2915.275458
       Pressure         (GPa) =      20.567681         19.515374
  ** Time :            0.29400 ps :
     Properties:                   Instantaneous       Averaged
       Kinetic energy    (eV) =      11.899041         11.697220
       Potential energy  (eV) =     -80.479810        -81.101271
       Total energy      (eV) =     -68.580770        -69.404051
       Temperature       (K)  =    2969.515947       2919.149779
       Pressure         (GPa) =      20.571979         19.590846
  ** Time :            0.31500 ps :
     Properties:                   Instantaneous       Averaged
       Kinetic energy    (eV) =      11.334205         11.673019
       Potential energy  (eV) =     -78.708676        -80.941765
       Total energy      (eV) =     -67.374472        -69.268746
       Temperature       (K)  =    2828.555888       2913.110186
       Pressure         (GPa) =      22.670162         19.796133
  ** Time :            0.33600 ps :
     Properties:                   Instantaneous       Averaged
       Kinetic energy    (eV) =      12.064026         11.697457
       Potential energy  (eV) =     -77.375141        -80.718851
       Total energy      (eV) =     -65.311115        -69.021394
       Temperature       (K)  =    3010.689513       2919.208894
       Pressure         (GPa) =      24.264917         20.075432
  ** Time :            0.35700 ps :
     Properties:                   Instantaneous       Averaged
       Kinetic energy    (eV) =      11.618145         11.692792
       Potential energy  (eV) =     -78.291012        -80.576037
       Total energy      (eV) =     -66.672867        -68.883245
       Temperature       (K)  =    2899.415907       2918.044601
       Pressure         (GPa) =      23.140342         20.255721
  ** Time :            0.37800 ps :
     Properties:                   Instantaneous       Averaged
       Kinetic energy    (eV) =      11.934220         11.706204
       Potential energy  (eV) =     -76.759500        -80.364007
       Total energy      (eV) =     -64.825280        -68.657803
       Temperature       (K)  =    2978.295232       2921.391858
       Pressure         (GPa) =      24.494200         20.491192
  ** Time :            0.39900 ps :
     Properties:                   Instantaneous       Averaged
       Kinetic energy    (eV) =      11.819015         11.712142
       Potential energy  (eV) =     -78.074820        -80.243524
       Total energy      (eV) =     -66.255805        -68.531382
       Temperature       (K)  =    2949.544832       2922.873593
       Pressure         (GPa) =      23.566438         20.653047
  ** Time :            0.42000 ps :
     Properties:                   Instantaneous       Averaged
       Kinetic energy    (eV) =      11.953330         11.724201
       Potential energy  (eV) =     -77.591989        -80.110947
       Total energy      (eV) =     -65.638659        -68.386746
       Temperature       (K)  =    2983.064453       2925.883136
       Pressure         (GPa) =      23.987379         20.819764
  ** Time :            0.44100 ps :
     Properties:                   Instantaneous       Averaged
       Kinetic energy    (eV) =      12.107808         11.742468
       Potential energy  (eV) =     -79.240461        -80.069495
       Total energy      (eV) =     -67.132653        -68.327027
       Temperature       (K)  =    3021.615835       2930.441836
       Pressure         (GPa) =      21.736409         20.863414
  ** Time :            0.46200 ps :
     Properties:                   Instantaneous       Averaged
       Kinetic energy    (eV) =      11.790729         11.744662
       Potential energy  (eV) =     -79.639057        -80.049930
       Total energy      (eV) =     -67.848327        -68.305268
       Temperature       (K)  =    2942.485881       2930.989293
       Pressure         (GPa) =      20.922551         20.866102
  ** Time :            0.48300 ps :
     Properties:                   Instantaneous       Averaged
       Kinetic energy    (eV) =      11.766999         11.745633
       Potential energy  (eV) =     -79.388248        -80.021161
       Total energy      (eV) =     -67.621249        -68.275528
       Temperature       (K)  =    2936.563641       2931.231656
       Pressure         (GPa) =      21.565858         20.896526
  ** Time :            0.50400 ps :
     Properties:                   Instantaneous       Averaged
       Kinetic energy    (eV) =      12.095280         11.760202
       Potential energy  (eV) =     -79.029034        -79.979822
       Total energy      (eV) =     -66.933753        -68.219621
       Temperature       (K)  =    3018.489399       2934.867395
       Pressure         (GPa) =      21.805639         20.934406
  ** Time :            0.52500 ps :
     Properties:                   Instantaneous       Averaged
       Kinetic energy    (eV) =      12.069282         11.772565
       Potential energy  (eV) =     -81.683248        -80.047959
       Total energy      (eV) =     -69.613966        -68.275394
       Temperature       (K)  =    3012.001307       2937.952752
       Pressure         (GPa) =      18.985586         20.856453
  ** Time :            0.54600 ps :
     Properties:                   Instantaneous       Averaged
       Kinetic energy    (eV) =      11.868016         11.776236
       Potential energy  (eV) =     -81.095076        -80.088233
       Total energy      (eV) =     -69.227060        -68.311997
       Temperature       (K)  =    2961.773393       2938.868930
       Pressure         (GPa) =      19.484960         20.803703
  ** Time :            0.56700 ps :
     Properties:                   Instantaneous       Averaged
       Kinetic energy    (eV) =      11.899132         11.780788
       Potential energy  (eV) =     -81.889167        -80.154934
       Total energy      (eV) =     -69.990035        -68.374146
       Temperature       (K)  =    2969.538792       2940.004851
       Pressure         (GPa) =      18.850172         20.731350
  ** Time :            0.58800 ps :
     Properties:                   Instantaneous       Averaged
       Kinetic energy    (eV) =      11.975382         11.787738
       Potential energy  (eV) =     -81.555213        -80.204944
       Total energy      (eV) =     -69.579832        -68.417207
       Temperature       (K)  =    2988.567537       2941.739233
       Pressure         (GPa) =      18.995921         20.669371
  ** Time :            0.60900 ps :
     Properties:                   Instantaneous       Averaged
       Kinetic energy    (eV) =      11.734545         11.785903
       Potential energy  (eV) =     -82.382055        -80.280017
       Total energy      (eV) =     -70.647510        -68.494114
       Temperature       (K)  =    2928.464485       2941.281483
       Pressure         (GPa) =      18.320869         20.588388
  ** Time :            0.63000 ps :
     Properties:                   Instantaneous       Averaged
       Kinetic energy    (eV) =      11.541075         11.777742
       Potential energy  (eV) =     -79.514514        -80.254500
       Total energy      (eV) =     -67.973439        -68.476758
       Temperature       (K)  =    2880.182405       2939.244847
       Pressure         (GPa) =      21.428169         20.616380
  ** Time :            0.65100 ps :
     Properties:                   Instantaneous       Averaged
       Kinetic energy    (eV) =      11.293678         11.762127
       Potential energy  (eV) =     -77.792636        -80.175085
       Total energy      (eV) =     -66.498958        -68.412958
       Temperature       (K)  =    2818.442129       2935.347985
       Pressure         (GPa) =      23.574437         20.711802
  ** Time :            0.67200 ps :
     Properties:                   Instantaneous       Averaged
       Kinetic energy    (eV) =      12.505717         11.785365
       Potential energy  (eV) =     -78.174091        -80.112554
       Total energy      (eV) =     -65.668375        -68.327190
       Temperature       (K)  =    3120.917531       2941.147033
       Pressure         (GPa) =      22.787000         20.776652
  ** Time :            0.69300 ps :
     Properties:                   Instantaneous       Averaged
       Kinetic energy    (eV) =      12.134936         11.795958
       Potential energy  (eV) =     -81.464488        -80.153522
       Total energy      (eV) =     -69.329552        -68.357564
       Temperature       (K)  =    3028.385897       2943.790635
       Pressure         (GPa) =      19.011828         20.723172
  ** Time :            0.71400 ps :
     Properties:                   Instantaneous       Averaged
       Kinetic energy    (eV) =      11.695947         11.793016
       Potential energy  (eV) =     -81.476452        -80.192432
       Total energy      (eV) =     -69.780505        -68.399415
       Temperature       (K)  =    2918.831965       2943.056557
       Pressure         (GPa) =      19.126341         20.676206
  ** Time :            0.73500 ps :
     Properties:                   Instantaneous       Averaged
       Kinetic energy    (eV) =      11.869310         11.795196
       Potential energy  (eV) =     -80.496117        -80.201108
       Total energy      (eV) =     -68.626807        -68.405912
       Temperature       (K)  =    2962.096310       2943.600549
       Pressure         (GPa) =      20.744906         20.678169
  ** Time :            0.75600 ps :
     Properties:                   Instantaneous       Averaged
       Kinetic energy    (eV) =      11.619849         11.790325
       Potential energy  (eV) =     -79.666883        -80.186269
       Total energy      (eV) =     -68.047034        -68.395944
       Temperature       (K)  =    2899.841070       2942.385008
       Pressure         (GPa) =      22.349455         20.724594
  ** Time :            0.77700 ps :
     Properties:                   Instantaneous       Averaged
       Kinetic energy    (eV) =      11.535906         11.783449
       Potential energy  (eV) =     -77.902209        -80.124537
       Total energy      (eV) =     -66.366303        -68.341088
       Temperature       (K)  =    2878.892209       2940.668987
       Pressure         (GPa) =      24.483920         20.826197
  ** Time :            0.79800 ps :
     Properties:                   Instantaneous       Averaged
       Kinetic energy    (eV) =      12.289739         11.796772
       Potential energy  (eV) =     -77.757728        -80.062253
       Total energy      (eV) =     -65.467990        -68.265481
       Temperature       (K)  =    3067.018221       2943.993967
       Pressure         (GPa) =      24.269980         20.916823
  ** Time :            0.81900 ps :
     Properties:                   Instantaneous       Averaged
       Kinetic energy    (eV) =      12.260166         11.808654
       Potential energy  (eV) =     -81.297076        -80.093915
       Total energy      (eV) =     -69.036910        -68.285261
       Temperature       (K)  =    3059.638048       2946.959199
       Pressure         (GPa) =      20.479700         20.905615
  ** Time :            0.84000 ps :
     Properties:                   Instantaneous       Averaged
       Kinetic energy    (eV) =      11.651288         11.804720
       Potential energy  (eV) =     -81.080651        -80.118583
       Total energy      (eV) =     -69.429363        -68.313863
       Temperature       (K)  =    2907.687079       2945.977396
       Pressure         (GPa) =      20.434368         20.893834
  ** Time :            0.86100 ps :
     Properties:                   Instantaneous       Averaged
       Kinetic energy    (eV) =      11.675577         11.801570
       Potential energy  (eV) =     -79.775545        -80.110217
       Total energy      (eV) =     -68.099968        -68.308646
       Temperature       (K)  =    2913.748489       2945.191326
       Pressure         (GPa) =      21.702058         20.913546
  ** Time :            0.88200 ps :
     Properties:                   Instantaneous       Averaged
       Kinetic energy    (eV) =      11.923226         11.804467
       Potential energy  (eV) =     -79.868736        -80.104467
       Total energy      (eV) =     -67.945511        -68.300000
       Temperature       (K)  =    2975.551581       2945.914189
       Pressure         (GPa) =      21.550988         20.928724
  ** Time :            0.90300 ps :
     Properties:                   Instantaneous       Averaged
       Kinetic energy    (eV) =      11.267047         11.791969
       Potential energy  (eV) =     -77.630747        -80.046939
       Total energy      (eV) =     -66.363701        -68.254970
       Temperature       (K)  =    2811.795949       2942.795160
       Pressure         (GPa) =      23.241997         20.982521
  ** Time :            0.92400 ps :
     Properties:                   Instantaneous       Averaged
       Kinetic energy    (eV) =      12.419614         11.806233
       Potential energy  (eV) =     -78.880419        -80.020427
       Total energy      (eV) =     -66.460804        -68.214194
       Temperature       (K)  =    3099.429937       2946.355041
       Pressure         (GPa) =      21.963335         21.004812
  ** Time :            0.94500 ps :
     Properties:                   Instantaneous       Averaged
       Kinetic energy    (eV) =      11.776136         11.805565
       Potential energy  (eV) =     -80.703456        -80.035605
       Total energy      (eV) =     -68.927320        -68.230041
       Temperature       (K)  =    2938.844010       2946.188129
       Pressure         (GPa) =      19.827131         20.978641
  ** Time :            0.96600 ps :
     Properties:                   Instantaneous       Averaged
       Kinetic energy    (eV) =      11.869798         11.806961
       Potential energy  (eV) =     -79.193281        -80.017294
       Total energy      (eV) =     -67.323483        -68.210333
       Temperature       (K)  =    2962.218073       2946.536606
       Pressure         (GPa) =      21.287650         20.985359
  ** Time :            0.98700 ps :
     Properties:                   Instantaneous       Averaged
       Kinetic energy    (eV) =      11.778504         11.806356
       Potential energy  (eV) =     -80.230824        -80.021837
       Total energy      (eV) =     -68.452320        -68.215482
       Temperature       (K)  =    2939.434875       2946.385506
       Pressure         (GPa) =      20.782641         20.981046
  ** Time :            1.00800 ps :
     Properties:                   Instantaneous       Averaged
       Kinetic energy    (eV) =      11.915219         11.808623
       Potential energy  (eV) =     -79.695282        -80.015034
       Total energy      (eV) =     -67.780063        -68.206410
       Temperature       (K)  =    2973.553343       2946.951502
       Pressure         (GPa) =      21.572849         20.993375
  ** Time :            1.02900 ps :
     Properties:                   Instantaneous       Averaged
       Kinetic energy    (eV) =      11.877153         11.810022
       Potential energy  (eV) =     -80.127588        -80.017331
       Total energy      (eV) =     -68.250435        -68.207309
       Temperature       (K)  =    2964.053626       2947.300525
       Pressure         (GPa) =      21.582330         21.005394
  ** Time :            1.05000 ps :
     Properties:                   Instantaneous       Averaged
       Kinetic energy    (eV) =      11.807807         11.809978
       Potential energy  (eV) =     -79.534448        -80.007673
       Total energy      (eV) =     -67.726640        -68.197696
       Temperature       (K)  =    2946.747823       2947.289471
       Pressure         (GPa) =      22.457124         21.034429
  ** Time :            1.07100 ps :
     Properties:                   Instantaneous       Averaged
       Kinetic energy    (eV) =      11.558460         11.805046
       Potential energy  (eV) =     -78.634079        -79.980740
       Total energy      (eV) =     -67.075619        -68.175694
       Temperature       (K)  =    2884.520945       2946.058716
       Pressure         (GPa) =      23.617352         21.085075
  ** Time :            1.09200 ps :
     Properties:                   Instantaneous       Averaged
       Kinetic energy    (eV) =      11.973317         11.808282
       Potential energy  (eV) =     -77.370291        -79.930539
       Total energy      (eV) =     -65.396975        -68.122257
       Temperature       (K)  =    2988.052220       2946.866283
       Pressure         (GPa) =      24.536533         21.151449
  ** Time :            1.11300 ps :
     Properties:                   Instantaneous       Averaged
       Kinetic energy    (eV) =      12.253904         11.816690
       Potential energy  (eV) =     -79.984207        -79.931552
       Total energy      (eV) =     -67.730303        -68.114862
       Temperature       (K)  =    3058.075440       2948.964569
       Pressure         (GPa) =      21.424196         21.156595
  ** Time :            1.13400 ps :
     Properties:                   Instantaneous       Averaged
       Kinetic energy    (eV) =      12.169204         11.823218
       Potential energy  (eV) =     -82.021706        -79.970258
       Total energy      (eV) =     -69.852502        -68.147040
       Temperature       (K)  =    3036.937774       2950.593703
       Pressure         (GPa) =      19.127215         21.119014
  ** Time :            1.15500 ps :
     Properties:                   Instantaneous       Averaged
       Kinetic energy    (eV) =      11.758714         11.822045
       Potential energy  (eV) =     -82.238940        -80.011507
       Total energy      (eV) =     -70.480226        -68.189462
       Temperature       (K)  =    2934.496141       2950.301020
       Pressure         (GPa) =      19.123489         21.082732
  ** Time :            1.17600 ps :
     Properties:                   Instantaneous       Averaged
       Kinetic energy    (eV) =      11.939177         11.824137
       Potential energy  (eV) =     -81.906581        -80.045348
       Total energy      (eV) =     -69.967403        -68.221211
       Temperature       (K)  =    2979.532464       2950.823010
       Pressure         (GPa) =      19.553017         21.055415
  ** Time :            1.19700 ps :
     Properties:                   Instantaneous       Averaged
       Kinetic energy    (eV) =      11.771862         11.823220
       Potential energy  (eV) =     -81.670337        -80.073856
       Total energy      (eV) =     -69.898475        -68.250636
       Temperature       (K)  =    2937.777424       2950.594140
       Pressure         (GPa) =      19.982936         21.036600
  ** Time :            1.21800 ps :
     Properties:                   Instantaneous       Averaged
       Kinetic energy    (eV) =      11.460649         11.816969
       Potential energy  (eV) =     -79.684961        -80.067151
       Total energy      (eV) =     -68.224312        -68.250183
       Temperature       (K)  =    2860.111284       2949.034091
       Pressure         (GPa) =      22.467656         21.061273
  ** Time :            1.23900 ps :
     Properties:                   Instantaneous       Averaged
       Kinetic energy    (eV) =      11.743746         11.815727
       Potential energy  (eV) =     -77.944262        -80.031170
       Total energy      (eV) =     -66.200516        -68.215443
       Temperature       (K)  =    2930.760759       2948.724373
       Pressure         (GPa) =      24.674127         21.122508
  ** Time :            1.26000 ps :
     Properties:                   Instantaneous       Averaged
       Kinetic energy    (eV) =      12.043562         11.819525
       Potential energy  (eV) =     -78.530414        -80.006157
       Total energy      (eV) =     -66.486851        -68.186633
       Temperature       (K)  =    3005.582656       2949.672011
       Pressure         (GPa) =      23.940156         21.169469
  ** Time :            1.28100 ps :
     Properties:                   Instantaneous       Averaged
       Kinetic energy    (eV) =      12.055343         11.823391
       Potential energy  (eV) =     -79.975532        -80.005655
       Total energy      (eV) =     -67.920188        -68.182265
       Temperature       (K)  =    3008.522686       2950.636776
       Pressure         (GPa) =      21.872704         21.180997
  ** Time :            1.30200 ps :
     Properties:                   Instantaneous       Averaged
       Kinetic energy    (eV) =      11.889098         11.824450
       Potential energy  (eV) =     -80.295982        -80.010338
       Total energy      (eV) =     -68.406884        -68.185888
       Temperature       (K)  =    2967.034593       2950.901257
       Pressure         (GPa) =      21.108212         21.179823
  ** Time :            1.32300 ps :
     Properties:                   Instantaneous       Averaged
       Kinetic energy    (eV) =      11.875660         11.825263
       Potential energy  (eV) =     -80.377042        -80.016159
       Total energy      (eV) =     -68.501382        -68.190895
       Temperature       (K)  =    2963.681210       2951.104114
       Pressure         (GPa) =      21.096068         21.178494
  ** Time :            1.34400 ps :
     Properties:                   Instantaneous       Averaged
       Kinetic energy    (eV) =      11.978591         11.827659
       Potential energy  (eV) =     -80.693544        -80.026743
       Total energy      (eV) =     -68.714953        -68.199084
       Temperature       (K)  =    2989.368364       2951.701993
       Pressure         (GPa) =      20.794320         21.172491
  ** Time :            1.36500 ps :
     Properties:                   Instantaneous       Averaged
       Kinetic energy    (eV) =      11.816612         11.827489
       Potential energy  (eV) =     -80.680788        -80.036805
       Total energy      (eV) =     -68.864176        -68.209316
       Temperature       (K)  =    2948.945145       2951.659579
       Pressure         (GPa) =      20.641689         21.164325
  ** Time :            1.38600 ps :
     Properties:                   Instantaneous       Averaged
       Kinetic energy    (eV) =      11.803182         11.827121
       Potential energy  (eV) =     -80.161487        -80.038694
       Total energy      (eV) =     -68.358306        -68.211573
       Temperature       (K)  =    2945.593445       2951.567668
       Pressure         (GPa) =      20.981101         21.161549
  ** Time :            1.40700 ps :
     Properties:                   Instantaneous       Averaged
       Kinetic energy    (eV) =      11.520288         11.822541
       Potential energy  (eV) =     -79.181490        -80.025900
       Total energy      (eV) =     -67.661203        -68.203359
       Temperature       (K)  =    2874.994585       2950.424787
       Pressure         (GPa) =      22.342082         21.179169
  ** Time :            1.42800 ps :
     Properties:                   Instantaneous       Averaged
       Kinetic energy    (eV) =      11.878379         11.823362
       Potential energy  (eV) =     -77.570028        -79.989784
       Total energy      (eV) =     -65.691649        -68.166422
       Temperature       (K)  =    2964.359610       2950.629710
       Pressure         (GPa) =      24.336159         21.225595
  ** Time :            1.44900 ps :
     Properties:                   Instantaneous       Averaged
       Kinetic energy    (eV) =      12.288825         11.830108
       Potential energy  (eV) =     -79.582647        -79.983884
       Total energy      (eV) =     -67.293822        -68.153776
       Temperature       (K)  =    3066.790334       2952.313198
       Pressure         (GPa) =      22.386352         21.242418
  ** Time :            1.47000 ps :
     Properties:                   Instantaneous       Averaged
       Kinetic energy    (eV) =      11.899295         11.831097
       Potential energy  (eV) =     -80.755478        -79.994907
       Total energy      (eV) =     -68.856184        -68.163810
       Temperature       (K)  =    2969.579318       2952.559857
       Pressure         (GPa) =      20.838567         21.236648
  ** Time :            1.49100 ps :
     Properties:                   Instantaneous       Averaged
       Kinetic energy    (eV) =      11.665422         11.828763
       Potential energy  (eV) =     -80.054871        -79.995751
       Total energy      (eV) =     -68.389450        -68.166988
       Temperature       (K)  =    2911.214159       2951.977523
       Pressure         (GPa) =      21.083156         21.234486
  ** Time :            1.51200 ps :
     Properties:                   Instantaneous       Averaged
       Kinetic energy    (eV) =      11.929519         11.830162
       Potential energy  (eV) =     -79.779129        -79.992743
       Total energy      (eV) =     -67.849610        -68.162580
       Temperature       (K)  =    2977.122045       2952.326752
       Pressure         (GPa) =      21.467221         21.237719
  ** Time :            1.53300 ps :
     Properties:                   Instantaneous       Averaged
       Kinetic energy    (eV) =      11.620941         11.827296
       Potential energy  (eV) =     -79.137990        -79.981034
       Total energy      (eV) =     -67.517049        -68.153737
       Temperature       (K)  =    2900.113709       2951.611505
       Pressure         (GPa) =      22.733429         21.258208
  ** Time :            1.55400 ps :
     Properties:                   Instantaneous       Averaged
       Kinetic energy    (eV) =      12.046823         11.830263
       Potential energy  (eV) =     -78.393880        -79.959586
       Total energy      (eV) =     -66.347057        -68.129323
       Temperature       (K)  =    3006.396451       2952.351842
       Pressure         (GPa) =      23.914707         21.294107
  ** Time :            1.57500 ps :
     Properties:                   Instantaneous       Averaged
       Kinetic energy    (eV) =      11.860069         11.830660
       Potential energy  (eV) =     -80.102909        -79.961497
       Total energy      (eV) =     -68.242841        -68.130836
       Temperature       (K)  =    2959.790187       2952.451020
       Pressure         (GPa) =      21.898081         21.302160
  ** Time :            1.59600 ps :
     Properties:                   Instantaneous       Averaged
       Kinetic energy    (eV) =      12.118156         11.834443
       Potential energy  (eV) =     -79.820113        -79.959636
       Total energy      (eV) =     -67.701957        -68.125193
       Temperature       (K)  =    3024.198176       2953.395062
       Pressure         (GPa) =      21.639623         21.306600
  ** Time :            1.61700 ps :
     Properties:                   Instantaneous       Averaged
       Kinetic energy    (eV) =      11.835140         11.834452
       Potential energy  (eV) =     -81.246155        -79.976344
       Total energy      (eV) =     -69.411015        -68.141892
       Temperature       (K)  =    2953.568973       2953.397320
       Pressure         (GPa) =      20.076774         21.290628
  ** Time :            1.63800 ps :
     Properties:                   Instantaneous       Averaged
       Kinetic energy    (eV) =      11.487597         11.830005
       Potential energy  (eV) =     -79.189810        -79.966261
       Total energy      (eV) =     -67.702213        -68.136255
       Temperature       (K)  =    2866.836294       2952.287563
       Pressure         (GPa) =      22.133955         21.301440
  ** Time :            1.65900 ps :
     Properties:                   Instantaneous       Averaged
       Kinetic energy    (eV) =      11.737070         11.828829
       Potential energy  (eV) =     -77.945968        -79.940687
       Total energy      (eV) =     -66.208898        -68.111858
       Temperature       (K)  =    2929.094728       2951.993983
       Pressure         (GPa) =      23.668659         21.331405
  ** Time :            1.68000 ps :
     Properties:                   Instantaneous       Averaged
       Kinetic energy    (eV) =      11.839774         11.828966
       Potential energy  (eV) =     -77.358302        -79.908407
       Total energy      (eV) =     -65.518528        -68.079442
       Temperature       (K)  =    2954.725410       2952.028126
       Pressure         (GPa) =      24.009333         21.364879
  ** Time :            1.70100 ps :
     Properties:                   Instantaneous       Averaged
       Kinetic energy    (eV) =      11.935104         11.830276
       Potential energy  (eV) =     -78.288807        -79.888412
       Total energy      (eV) =     -66.353702        -68.058136
       Temperature       (K)  =    2978.515989       2952.355137
       Pressure         (GPa) =      23.210493         21.387664
  ** Time :            1.72200 ps :
     Properties:                   Instantaneous       Averaged
       Kinetic energy    (eV) =      12.049496         11.832950
       Potential energy  (eV) =     -77.946838        -79.864735
       Total energy      (eV) =     -65.897342        -68.031785
       Temperature       (K)  =    3007.063567       2953.022313
       Pressure         (GPa) =      23.506278         21.413501
  ** Time :            1.74300 ps :
     Properties:                   Instantaneous       Averaged
       Kinetic energy    (eV) =      11.608271         11.830243
       Potential energy  (eV) =     -78.684475        -79.850515
       Total energy      (eV) =     -67.076203        -68.020272
       Temperature       (K)  =    2896.951804       2952.346764
       Pressure         (GPa) =      22.911963         21.431555
  ** Time :            1.76400 ps :
     Properties:                   Instantaneous       Averaged
       Kinetic energy    (eV) =      11.289716         11.823808
       Potential energy  (eV) =     -75.238519        -79.795610
       Total energy      (eV) =     -63.948803        -67.971802
       Temperature       (K)  =    2817.453290       2950.740890
       Pressure         (GPa) =      26.063719         21.486700
  ** Time :            1.78500 ps :
     Properties:                   Instantaneous       Averaged
       Kinetic energy    (eV) =      12.043839         11.826396
       Potential energy  (eV) =     -74.677822        -79.735401
       Total energy      (eV) =     -62.633983        -67.909004
       Temperature       (K)  =    3005.651741       2951.386900
       Pressure         (GPa) =      27.052904         21.552184
  ** Time :            1.80600 ps :
     Properties:                   Instantaneous       Averaged
       Kinetic energy    (eV) =      11.971160         11.828080
       Potential energy  (eV) =     -75.908775        -79.690905
       Total energy      (eV) =     -63.937615        -67.862825
       Temperature       (K)  =    2987.514073       2951.806983
       Pressure         (GPa) =      25.878582         21.602491
  ** Time :            1.82700 ps :
     Properties:                   Instantaneous       Averaged
       Kinetic energy    (eV) =      11.829050         11.828091
       Potential energy  (eV) =     -75.885511        -79.647165
       Total energy      (eV) =     -64.056460        -67.819074
       Temperature       (K)  =    2952.049213       2951.809767
       Pressure         (GPa) =      25.753581         21.650205
  ** Time :            1.84800 ps :
     Properties:                   Instantaneous       Averaged
       Kinetic energy    (eV) =      11.727813         11.826951
       Potential energy  (eV) =     -75.935049        -79.604982
       Total energy      (eV) =     -64.207235        -67.778030
       Temperature       (K)  =    2926.784595       2951.525390
       Pressure         (GPa) =      25.772701         21.697052
  ** Time :            1.86900 ps :
     Properties:                   Instantaneous       Averaged
       Kinetic energy    (eV) =      12.094085         11.829953
       Potential energy  (eV) =     -75.693855        -79.561036
       Total energy      (eV) =     -63.599770        -67.731084
       Temperature       (K)  =    3018.190953       2952.274442
       Pressure         (GPa) =      25.700037         21.742029
  ** Time :            1.89000 ps :
     Properties:                   Instantaneous       Averaged
       Kinetic energy    (eV) =      12.241081         11.834521
       Potential energy  (eV) =     -78.255180        -79.546527
       Total energy      (eV) =     -66.014099        -67.712006
       Temperature       (K)  =    3054.875203       2953.414450
       Pressure         (GPa) =      23.157630         21.757758
  ** Time :            1.91100 ps :
     Properties:                   Instantaneous       Averaged
       Kinetic energy    (eV) =      11.615159         11.832110
       Potential energy  (eV) =     -78.190879        -79.531630
       Total energy      (eV) =     -66.575721        -67.699519
       Temperature       (K)  =    2898.670593       2952.812869
       Pressure         (GPa) =      23.254831         21.774209
  ** Time :            1.93200 ps :
     Properties:                   Instantaneous       Averaged
       Kinetic energy    (eV) =      11.662762         11.830270
       Potential energy  (eV) =     -76.959033        -79.503667
       Total energy      (eV) =     -65.296271        -67.673397
       Temperature       (K)  =    2910.550489       2952.353496
       Pressure         (GPa) =      24.822400         21.807342
  ** Time :            1.95300 ps :
     Properties:                   Instantaneous       Averaged
       Kinetic energy    (eV) =      11.902245         11.831044
       Potential energy  (eV) =     -75.889739        -79.464807
       Total energy      (eV) =     -63.987494        -67.633764
       Temperature       (K)  =    2970.315590       2952.546636
       Pressure         (GPa) =      26.203366         21.854611
  ** Time :            1.97400 ps :
     Properties:                   Instantaneous       Averaged
       Kinetic energy    (eV) =      11.552140         11.828076
       Potential energy  (eV) =     -75.685369        -79.424600
       Total energy      (eV) =     -64.133230        -67.596524
       Temperature       (K)  =    2882.943561       2951.806178
       Pressure         (GPa) =      26.688216         21.906032
  ** Time :            1.99500 ps :
     Properties:                   Instantaneous       Averaged
       Kinetic energy    (eV) =      11.871602         11.828535
       Potential energy  (eV) =     -73.885094        -79.366290
       Total energy      (eV) =     -62.013492        -67.537755
       Temperature       (K)  =    2962.668405       2951.920517
       Pressure         (GPa) =      28.485231         21.975287
  ** Time :            2.01600 ps :
     Properties:                   Instantaneous       Averaged
       Kinetic energy    (eV) =      12.131901         11.831695
       Potential energy  (eV) =     -75.490450        -79.325917
       Total energy      (eV) =     -63.358549        -67.494222
       Temperature       (K)  =    3027.628398       2952.709141
       Pressure         (GPa) =      26.618752         22.023656
  ** Time :            2.03700 ps :
     Properties:                   Instantaneous       Averaged
       Kinetic energy    (eV) =      11.865091         11.832039
       Potential energy  (eV) =     -75.823919        -79.289813
       Total energy      (eV) =     -63.958828        -67.457774
       Temperature       (K)  =    2961.043508       2952.795063
       Pressure         (GPa) =      25.575594         22.060274
  ** Time :            2.05800 ps :
     Properties:                   Instantaneous       Averaged
       Kinetic energy    (eV) =      12.335172         11.837173
       Potential energy  (eV) =     -77.909231        -79.275726
       Total energy      (eV) =     -65.574059        -67.438553
       Temperature       (K)  =    3078.356600       2954.076303
       Pressure         (GPa) =      23.410100         22.074048
  ** Time :            2.07900 ps :
     Properties:                   Instantaneous       Averaged
       Kinetic energy    (eV) =      11.816659         11.836966
       Potential energy  (eV) =     -78.458725        -79.267473
       Total energy      (eV) =     -66.642066        -67.430508
       Temperature       (K)  =    2948.956824       2954.024591
       Pressure         (GPa) =      22.874740         22.082136
  ** Time :            2.10000 ps :
     Properties:                   Instantaneous       Averaged
       Kinetic energy    (eV) =      11.826998         11.836866
       Potential energy  (eV) =     -78.353937        -79.258338
       Total energy      (eV) =     -66.526940        -67.421472
       Temperature       (K)  =    2951.536908       2953.999714
       Pressure         (GPa) =      23.402367         22.095338
  ** Time :            2.12100 ps :
     Properties:                   Instantaneous       Averaged
       Kinetic energy    (eV) =      11.737264         11.835880
       Potential energy  (eV) =     -77.425260        -79.240189
       Total energy      (eV) =     -65.687996        -67.404309
       Temperature       (K)  =    2929.143016       2953.753608
       Pressure         (GPa) =      24.435809         22.118511
  ** Time :            2.14200 ps :
     Properties:                   Instantaneous       Averaged
       Kinetic energy    (eV) =      11.784859         11.835380
       Potential energy  (eV) =     -76.871780        -79.216969
       Total energy      (eV) =     -65.086921        -67.381589
       Temperature       (K)  =    2941.020818       2953.628777
       Pressure         (GPa) =      24.763627         22.144444
  ** Time :            2.16300 ps :
     Properties:                   Instantaneous       Averaged
       Kinetic energy    (eV) =      11.859092         11.835610
       Potential energy  (eV) =     -76.467786        -79.190278
       Total energy      (eV) =     -64.608694        -67.354668
       Temperature       (K)  =    2959.546454       2953.686230
       Pressure         (GPa) =      25.106623         22.173203
  ** Time :            2.18400 ps :
     Properties:                   Instantaneous       Averaged
       Kinetic energy    (eV) =      11.940602         11.836620
       Potential energy  (eV) =     -77.237948        -79.171505
       Total energy      (eV) =     -65.297346        -67.334886
       Temperature       (K)  =    2979.887935       2953.938169
       Pressure         (GPa) =      24.462218         22.195212
  ** Time :            2.20500 ps :
     Properties:                   Instantaneous       Averaged
       Kinetic energy    (eV) =      12.021361         11.838379
       Potential energy  (eV) =     -77.251127        -79.153216
       Total energy      (eV) =     -65.229766        -67.314837
       Temperature       (K)  =    3000.042148       2954.377255
       Pressure         (GPa) =      24.267505         22.214948
  ** Time :            2.22600 ps :
     Properties:                   Instantaneous       Averaged
       Kinetic energy    (eV) =      12.176675         11.841570
       Potential energy  (eV) =     -78.287508        -79.145049
       Total energy      (eV) =     -66.110833        -67.303479
       Temperature       (K)  =    3038.802288       2955.173718
       Pressure         (GPa) =      23.252373         22.224735
  ** Time :            2.24700 ps :
     Properties:                   Instantaneous       Averaged
       Kinetic energy    (eV) =      12.068531         11.843692
       Potential energy  (eV) =     -80.450077        -79.157246
       Total energy      (eV) =     -68.381546        -67.313554
       Temperature       (K)  =    3011.813884       2955.703065
       Pressure         (GPa) =      21.220342         22.215349
  ** Time :            2.26800 ps :
     Properties:                   Instantaneous       Averaged
       Kinetic energy    (eV) =      11.682893         11.842203
       Potential energy  (eV) =     -79.777655        -79.162990
       Total energy      (eV) =     -68.094762        -67.320787
       Temperature       (K)  =    2915.574265       2955.331502
       Pressure         (GPa) =      21.891038         22.212346
  ** Time :            2.28900 ps :
     Properties:                   Instantaneous       Averaged
       Kinetic energy    (eV) =      11.783416         11.841663
       Potential energy  (eV) =     -78.885386        -79.160443
       Total energy      (eV) =     -67.101969        -67.318780
       Temperature       (K)  =    2940.660853       2955.196909
       Pressure         (GPa) =      22.984978         22.219434
  ** Time :            2.31000 ps :
     Properties:                   Instantaneous       Averaged
       Kinetic energy    (eV) =      11.868555         11.841908
       Potential energy  (eV) =     -78.562679        -79.155009
       Total energy      (eV) =     -66.694124        -67.313101
       Temperature       (K)  =    2961.907981       2955.257919
       Pressure         (GPa) =      23.259640         22.228891
  ** Time :            2.33100 ps :
     Properties:                   Instantaneous       Averaged
       Kinetic energy    (eV) =      11.717099         11.840783
       Potential energy  (eV) =     -78.404342        -79.148246
       Total energy      (eV) =     -66.687243        -67.307463
       Temperature       (K)  =    2924.110776       2954.977314
       Pressure         (GPa) =      23.739615         22.242501
  ** Time :            2.35200 ps :
     Properties:                   Instantaneous       Averaged
       Kinetic energy    (eV) =      11.918151         11.841474
       Potential energy  (eV) =     -77.765658        -79.135902
       Total energy      (eV) =     -65.847507        -67.294428
       Temperature       (K)  =    2974.285171       2955.149705
       Pressure         (GPa) =      24.351128         22.261328
  ** Time :            2.37300 ps :
     Properties:                   Instantaneous       Averaged
       Kinetic energy    (eV) =      12.362466         11.846085
       Potential energy  (eV) =     -80.286823        -79.146087
       Total energy      (eV) =     -67.924357        -67.300002
       Temperature       (K)  =    3085.168092       2956.300310
       Pressure         (GPa) =      21.446665         22.254118
  ** Time :            2.39400 ps :
     Properties:                   Instantaneous       Averaged
       Kinetic energy    (eV) =      11.831037         11.845953
       Potential energy  (eV) =     -80.905981        -79.161525
       Total energy      (eV) =     -69.074944        -67.315572
       Temperature       (K)  =    2952.544933       2956.267369
       Pressure         (GPa) =      20.468631         22.238456
  ** Time :            2.41500 ps :
     Properties:                   Instantaneous       Averaged
       Kinetic energy    (eV) =      11.381781         11.841916
       Potential energy  (eV) =     -79.513034        -79.164581
       Total energy      (eV) =     -68.131252        -67.322665
       Temperature       (K)  =    2840.429074       2955.260079
       Pressure         (GPa) =      22.138049         22.237583
  ** Time :            2.43600 ps :
     Properties:                   Instantaneous       Averaged
       Kinetic energy    (eV) =      11.962105         11.842953
       Potential energy  (eV) =     -77.939902        -79.154024
       Total energy      (eV) =     -65.977796        -67.311071
       Temperature       (K)  =    2985.254313       2955.518650
       Pressure         (GPa) =      23.924135         22.252122
  ** Time :            2.45700 ps :
     Properties:                   Instantaneous       Averaged
       Kinetic energy    (eV) =      11.869393         11.843179
       Potential energy  (eV) =     -78.765294        -79.150701
       Total energy      (eV) =     -66.895902        -67.307523
       Temperature       (K)  =    2962.116983       2955.575046
       Pressure         (GPa) =      23.384226         22.261798
  ** Time :            2.47800 ps :
     Properties:                   Instantaneous       Averaged
       Kinetic energy    (eV) =      12.248792         11.846616
       Potential energy  (eV) =     -80.398295        -79.161274
       Total energy      (eV) =     -68.149503        -67.314658
       Temperature       (K)  =    3056.799530       2956.432881
       Pressure         (GPa) =      21.778891         22.257706
  ** Time :            2.49900 ps :
     Properties:                   Instantaneous       Averaged
       Kinetic energy    (eV) =      11.895763         11.847029
       Potential energy  (eV) =     -81.308458        -79.179318
       Total energy      (eV) =     -69.412695        -67.332289
       Temperature       (K)  =    2968.697866       2956.535948
       Pressure         (GPa) =      20.382919         22.241951
  ** Time :            2.52000 ps :
     Properties:                   Instantaneous       Averaged
       Kinetic energy    (eV) =      11.645430         11.845349
       Potential energy  (eV) =     -80.549643        -79.190737
       Total energy      (eV) =     -68.904213        -67.345388
       Temperature       (K)  =    2906.224933       2956.116689
       Pressure         (GPa) =      21.315549         22.234231
  ** Time :            2.54100 ps :
     Properties:                   Instantaneous       Averaged
       Kinetic energy    (eV) =      11.825448         11.845185
       Potential energy  (eV) =     -79.141897        -79.190333
       Total energy      (eV) =     -67.316448        -67.345149
       Temperature       (K)  =    2951.150308       2956.075645
       Pressure         (GPa) =      22.983167         22.240421
  ** Time :            2.56200 ps :
     Properties:                   Instantaneous       Averaged
       Kinetic energy    (eV) =      12.113206         11.847381
       Potential energy  (eV) =     -80.672187        -79.202480
       Total energy      (eV) =     -68.558982        -67.355098
       Temperature       (K)  =    3022.962856       2956.623901
       Pressure         (GPa) =      21.516760         22.234489
  ** Time :            2.58300 ps :
     Properties:                   Instantaneous       Averaged
       Kinetic energy    (eV) =      11.374169         11.843534
       Potential energy  (eV) =     -79.996807        -79.208938
       Total energy      (eV) =     -68.622639        -67.365403
       Temperature       (K)  =    2838.529272       2955.663782
       Pressure         (GPa) =      22.117704         22.233540
  ** Time :            2.60400 ps :
     Properties:                   Instantaneous       Averaged
       Kinetic energy    (eV) =      11.281154         11.838999
       Potential energy  (eV) =     -75.927423        -79.182474
       Total energy      (eV) =     -64.646268        -67.343475
       Temperature       (K)  =    2815.316704       2954.531950
       Pressure         (GPa) =      25.984444         22.263789
  ** Time :            2.62500 ps :
     Properties:                   Instantaneous       Averaged
       Kinetic energy    (eV) =      12.347545         11.843067
       Potential energy  (eV) =     -76.406708        -79.160268
       Total energy      (eV) =     -64.059162        -67.317200
       Temperature       (K)  =    3081.444403       2955.547250
       Pressure         (GPa) =      25.644756         22.290837
  ** Time :            2.64600 ps :
     Properties:                   Instantaneous       Averaged
       Kinetic energy    (eV) =      12.021000         11.844479
       Potential energy  (eV) =     -78.719523        -79.156770
       Total energy      (eV) =     -66.698523        -67.312290
       Temperature       (K)  =    2999.952092       2955.899669
       Pressure         (GPa) =      23.203110         22.298077
  ** Time :            2.66700 ps :
     Properties:                   Instantaneous       Averaged
       Kinetic energy    (eV) =      11.890685         11.844843
       Potential energy  (eV) =     -79.259240        -79.157577
       Total energy      (eV) =     -67.368555        -67.312733
       Temperature       (K)  =    2967.430695       2955.990465
       Pressure         (GPa) =      22.523028         22.299848
  ** Time :            2.68800 ps :
     Properties:                   Instantaneous       Averaged
       Kinetic energy    (eV) =      11.911587         11.845365
       Potential energy  (eV) =     -79.164990        -79.157634
       Total energy      (eV) =     -67.253403        -67.312270
       Temperature       (K)  =    2972.647068       2956.120595
       Pressure         (GPa) =      22.666669         22.302714
  ** Time :            2.70900 ps :
     Properties:                   Instantaneous       Averaged
       Kinetic energy    (eV) =      11.950778         11.846182
       Potential energy  (eV) =     -79.872950        -79.163180
       Total energy      (eV) =     -67.922172        -67.316998
       Temperature       (K)  =    2982.427472       2956.324524
       Pressure         (GPa) =      21.838449         22.299115
  ** Time :            2.73000 ps :
     Properties:                   Instantaneous       Averaged
       Kinetic energy    (eV) =      11.886235         11.846490
       Potential energy  (eV) =     -79.643012        -79.166871
       Total energy      (eV) =     -67.756777        -67.320381
       Temperature       (K)  =    2966.320237       2956.401414
       Pressure         (GPa) =      21.570419         22.293510
  ** Time :            2.75100 ps :
     Properties:                   Instantaneous       Averaged
       Kinetic energy    (eV) =      11.723053         11.845548
       Potential energy  (eV) =     -79.156706        -79.166793
       Total energy      (eV) =     -67.433652        -67.321245
       Temperature       (K)  =    2925.596716       2956.166264
       Pressure         (GPa) =      22.004862         22.291306
  ** Time :            2.77200 ps :
     Properties:                   Instantaneous       Averaged
       Kinetic energy    (eV) =      11.489593         11.842851
       Potential energy  (eV) =     -77.448564        -79.153776
       Total energy      (eV) =     -65.958971        -67.310925
       Temperature       (K)  =    2867.334373       2955.493295
       Pressure         (GPa) =      23.947673         22.303855
  ** Time :            2.79300 ps :
     Properties:                   Instantaneous       Averaged
       Kinetic energy    (eV) =      11.922505         11.843450
       Potential energy  (eV) =     -77.203669        -79.139114
       Total energy      (eV) =     -65.281164        -67.295664
       Temperature       (K)  =    2975.371756       2955.642757
       Pressure         (GPa) =      24.931199         22.323609
  ** Time :            2.81400 ps :
     Properties:                   Instantaneous       Averaged
       Kinetic energy    (eV) =      11.984269         11.844501
       Potential energy  (eV) =     -77.161299        -79.124354
       Total energy      (eV) =     -65.177030        -67.279853
       Temperature       (K)  =    2990.785534       2955.905016
       Pressure         (GPa) =      24.953797         22.343237
  ** Time :            2.83500 ps :
     Properties:                   Instantaneous       Averaged
       Kinetic energy    (eV) =      12.170701         11.846917
       Potential energy  (eV) =     -78.937197        -79.122967
       Total energy      (eV) =     -66.766495        -67.276050
       Temperature       (K)  =    3037.311428       2956.508027
       Pressure         (GPa) =      22.823638         22.346796
  ** Time :            2.85600 ps :
     Properties:                   Instantaneous       Averaged
       Kinetic energy    (eV) =      11.894047         11.847264
       Potential energy  (eV) =     -79.589319        -79.126396
       Total energy      (eV) =     -67.695272        -67.279133
       Temperature       (K)  =    2968.269634       2956.594509
       Pressure         (GPa) =      21.830932         22.343003
  ** Time :            2.87700 ps :
     Properties:                   Instantaneous       Averaged
       Kinetic energy    (eV) =      11.944889         11.847976
       Potential energy  (eV) =     -79.981246        -79.132636
       Total energy      (eV) =     -68.036357        -67.284660
       Temperature       (K)  =    2980.957877       2956.772344
       Pressure         (GPa) =      21.304611         22.335423
  ** Time :            2.89800 ps :
     Properties:                   Instantaneous       Averaged
       Kinetic energy    (eV) =      11.970987         11.848868
       Potential energy  (eV) =     -80.237024        -79.140639
       Total energy      (eV) =     -68.266038        -67.291771
       Temperature       (K)  =    2987.470808       2956.994797
       Pressure         (GPa) =      20.957421         22.325438
  ** Time :            2.91900 ps :
     Properties:                   Instantaneous       Averaged
       Kinetic energy    (eV) =      11.854139         11.848906
       Potential energy  (eV) =     -80.142091        -79.147844
       Total energy      (eV) =     -68.287952        -67.298938
       Temperature       (K)  =    2958.310397       2957.004261
       Pressure         (GPa) =      21.111979         22.316708
  ** Time :            2.94000 ps :
     Properties:                   Instantaneous       Averaged
       Kinetic energy    (eV) =      11.916643         11.849389
       Potential energy  (eV) =     -80.332752        -79.156307
       Total energy      (eV) =     -68.416109        -67.306918
       Temperature       (K)  =    2973.908738       2957.125008
       Pressure         (GPa) =      21.127927         22.308217
  ** Time :            2.96100 ps :
     Properties:                   Instantaneous       Averaged
       Kinetic energy    (eV) =      11.944589         11.850065
       Potential energy  (eV) =     -80.099259        -79.162995
       Total energy      (eV) =     -68.154670        -67.312930
       Temperature       (K)  =    2980.882936       2957.293504
       Pressure         (GPa) =      21.239105         22.300634
  ** Time :            2.98200 ps :
     Properties:                   Instantaneous       Averaged
       Kinetic energy    (eV) =      11.983998         11.851008
       Potential energy  (eV) =     -80.925663        -79.175408
       Total energy      (eV) =     -68.941665        -67.324400
       Temperature       (K)  =    2990.717806       2957.528886
       Pressure         (GPa) =      20.299834         22.286544
  ** Time :            3.00300 ps :
     Properties:                   Instantaneous       Averaged
       Kinetic energy    (eV) =      11.863191         11.851093
       Potential energy  (eV) =     -81.074447        -79.188688
       Total energy      (eV) =     -69.211256        -67.337595
       Temperature       (K)  =    2960.569237       2957.550147
       Pressure         (GPa) =      20.270390         22.272445
  ** Time :            3.02400 ps :
     Properties:                   Instantaneous       Averaged
       Kinetic energy    (eV) =      11.547524         11.848985
       Potential energy  (eV) =     -79.494075        -79.190809
       Total energy      (eV) =     -67.946551        -67.341824
       Temperature       (K)  =    2881.791606       2957.024046
       Pressure         (GPa) =      22.197475         22.271924
  ** Time :            3.04500 ps :
     Properties:                   Instantaneous       Averaged
       Kinetic energy    (eV) =      11.696743         11.847935
       Potential energy  (eV) =     -78.199055        -79.183969
       Total energy      (eV) =     -66.502312        -67.336034
       Temperature       (K)  =    2919.030728       2956.762023
       Pressure         (GPa) =      23.813880         22.282559
  ** Time :            3.06600 ps :
     Properties:                   Instantaneous       Averaged
       Kinetic energy    (eV) =      11.762891         11.847352
       Potential energy  (eV) =     -77.069769        -79.169488
       Total energy      (eV) =     -65.306878        -67.322136
       Temperature       (K)  =    2935.538455       2956.616656
       Pressure         (GPa) =      24.557251         22.298139
  ** Time :            3.08700 ps :
     Properties:                   Instantaneous       Averaged
       Kinetic energy    (eV) =      12.521135         11.851936
       Potential energy  (eV) =     -79.597352        -79.172399
       Total energy      (eV) =     -67.076218        -67.320463
       Temperature       (K)  =    3124.765324       2957.760525
       Pressure         (GPa) =      21.771061         22.294553
  ** Time :            3.10800 ps :
     Properties:                   Instantaneous       Averaged
       Kinetic energy    (eV) =      11.632735         11.850455
       Potential energy  (eV) =     -80.849143        -79.183728
       Total energy      (eV) =     -69.216408        -67.333274
       Temperature       (K)  =    2903.056935       2957.390906
       Pressure         (GPa) =      20.124810         22.279893
  ** Time :            3.12900 ps :
     Properties:                   Instantaneous       Averaged
       Kinetic energy    (eV) =      11.699719         11.849443
       Potential energy  (eV) =     -78.791003        -79.181093
       Total energy      (eV) =     -67.091284        -67.331649
       Temperature       (K)  =    2919.773450       2957.138440
       Pressure         (GPa) =      22.086518         22.278595
  ** Time :            3.15000 ps :
     Properties:                   Instantaneous       Averaged
       Kinetic energy    (eV) =      11.977984         11.850300
       Potential energy  (eV) =     -79.308197        -79.181940
       Total energy      (eV) =     -67.330212        -67.331640
       Temperature       (K)  =    2989.217110       2957.352298
       Pressure         (GPa) =      21.860506         22.275808
  ** Time :            3.17100 ps :
     Properties:                   Instantaneous       Averaged
       Kinetic energy    (eV) =      11.468121         11.847769
       Potential energy  (eV) =     -78.395490        -79.176732
       Total energy      (eV) =     -66.927369        -67.328963
       Temperature       (K)  =    2861.975898       2956.720666
       Pressure         (GPa) =      22.809926         22.279345
  ** Time :            3.19200 ps :
     Properties:                   Instantaneous       Averaged
       Kinetic energy    (eV) =      11.926550         11.848287
       Potential energy  (eV) =     -76.952613        -79.162099
       Total energy      (eV) =     -65.026062        -67.313812
       Temperature       (K)  =    2976.381230       2956.850012
       Pressure         (GPa) =      24.430356         22.293496
  ** Time :            3.21300 ps :
     Properties:                   Instantaneous       Averaged
       Kinetic energy    (eV) =      11.886036         11.848534
       Potential energy  (eV) =     -77.908487        -79.153906
       Total energy      (eV) =     -66.022450        -67.305372
       Temperature       (K)  =    2966.270571       2956.911584
       Pressure         (GPa) =      23.461464         22.301130
  ** Time :            3.23400 ps :
     Properties:                   Instantaneous       Averaged
       Kinetic energy    (eV) =      11.702971         11.847589
       Potential energy  (eV) =     -77.485866        -79.143074
       Total energy      (eV) =     -65.782895        -67.295485
       Temperature       (K)  =    2920.584892       2956.675696
       Pressure         (GPa) =      23.755458         22.310574
  ** Time :            3.25500 ps :
     Properties:                   Instantaneous       Averaged
       Kinetic energy    (eV) =      11.941271         11.848193
       Potential energy  (eV) =     -77.308521        -79.131239
       Total energy      (eV) =     -65.367250        -67.283045
       Temperature       (K)  =    2980.054978       2956.826531
       Pressure         (GPa) =      23.992297         22.321424
  ** Time :            3.27600 ps :
     Properties:                   Instantaneous       Averaged
       Kinetic energy    (eV) =      12.231269         11.850649
       Potential energy  (eV) =     -79.894364        -79.136130
       Total energy      (eV) =     -67.663095        -67.285481
       Temperature       (K)  =    3052.426704       2957.439352
       Pressure         (GPa) =      21.621351         22.316936
  ** Time :            3.29700 ps :
     Properties:                   Instantaneous       Averaged
       Kinetic energy    (eV) =      11.641457         11.849317
       Potential energy  (eV) =     -79.242033        -79.136805
       Total energy      (eV) =     -67.600576        -67.287488
       Temperature       (K)  =    2905.233499       2957.106831
       Pressure         (GPa) =      21.961648         22.314673
  ** Time :            3.31800 ps :
     Properties:                   Instantaneous       Averaged
       Kinetic energy    (eV) =      11.860983         11.849390
       Potential energy  (eV) =     -79.517879        -79.139217
       Total energy      (eV) =     -67.656896        -67.289826
       Temperature       (K)  =    2960.018418       2957.125259
       Pressure         (GPa) =      21.778521         22.311280
  ** Time :            3.33900 ps :
     Properties:                   Instantaneous       Averaged
       Kinetic energy    (eV) =      11.725855         11.848613
       Potential energy  (eV) =     -77.729886        -79.130353
       Total energy      (eV) =     -66.004031        -67.281740
       Temperature       (K)  =    2926.295824       2956.931363
       Pressure         (GPa) =      23.397812         22.318113
  ** Time :            3.36000 ps :
     Properties:                   Instantaneous       Averaged
       Kinetic energy    (eV) =      12.230037         11.850997
       Potential energy  (eV) =     -79.568653        -79.133092
       Total energy      (eV) =     -67.338616        -67.282095
       Temperature       (K)  =    3052.119066       2957.526286
       Pressure         (GPa) =      21.929086         22.315682
  ** Time :            3.38100 ps :
     Properties:                   Instantaneous       Averaged
       Kinetic energy    (eV) =      11.967654         11.851722
       Potential energy  (eV) =     -80.296404        -79.140318
       Total energy      (eV) =     -68.328750        -67.288596
       Temperature       (K)  =    2986.639085       2957.707111
       Pressure         (GPa) =      21.252292         22.309077
  ** Time :            3.40200 ps :
     Properties:                   Instantaneous       Averaged
       Kinetic energy    (eV) =      12.061854         11.853019
       Potential energy  (eV) =     -81.259428        -79.153399
       Total energy      (eV) =     -69.197574        -67.300380
       Temperature       (K)  =    3010.147597       2958.030817
       Pressure         (GPa) =      20.360191         22.297047
  ** Time :            3.42300 ps :
     Properties:                   Instantaneous       Averaged
       Kinetic energy    (eV) =      12.013217         11.854002
       Potential energy  (eV) =     -81.810100        -79.169698
       Total energy      (eV) =     -69.796882        -67.315696
       Temperature       (K)  =    2998.009790       2958.276087
       Pressure         (GPa) =      19.619657         22.280621
  ** Time :            3.44400 ps :
     Properties:                   Instantaneous       Averaged
       Kinetic energy    (eV) =      11.892242         11.854235
[...]
       Potential energy  (eV) =     -82.736263        -78.258242
       Total energy      (eV) =     -65.557495        -65.521484
       Temperature       (K)  =    4287.120909       3178.575924
       Pressure         (GPa) =      19.456347         23.671125
  ** Time :            9.09300 ps :
     Properties:                   Instantaneous       Averaged
       Kinetic energy    (eV) =      14.363165         12.740514
       Potential energy  (eV) =     -79.859352        -78.261939
       Total energy      (eV) =     -65.496186        -65.521426
       Temperature       (K)  =    3584.461109       3179.513303
       Pressure         (GPa) =      21.879864         23.666988
  ** Time :            9.11400 ps :
     Properties:                   Instantaneous       Averaged
       Kinetic energy    (eV) =      13.131698         12.741415
       Potential energy  (eV) =     -78.650803        -78.262835
       Total energy      (eV) =     -65.519105        -65.521421
       Temperature       (K)  =    3277.137037       3179.738243
       Pressure         (GPa) =      22.968112         23.665378
  ** Time :            9.13500 ps :
     Properties:                   Instantaneous       Averaged
       Kinetic energy    (eV) =      12.034799         12.739790
       Potential energy  (eV) =     -77.540320        -78.261174
       Total energy      (eV) =     -65.505521        -65.521384
       Temperature       (K)  =    3003.395605       3179.332857
       Pressure         (GPa) =      23.918799         23.665961
  ** Time :            9.15600 ps :
     Properties:                   Instantaneous       Averaged
       Kinetic energy    (eV) =      12.111824         12.738350
       Potential energy  (eV) =     -77.623046        -78.259711
       Total energy      (eV) =     -65.511223        -65.521361
       Temperature       (K)  =    3022.617929       3178.973419
       Pressure         (GPa) =      24.059895         23.666864
  ** Time :            9.17700 ps :
     Properties:                   Instantaneous       Averaged
       Kinetic energy    (eV) =      12.982480         12.738909
       Potential energy  (eV) =     -78.518094        -78.260302
       Total energy      (eV) =     -65.535614        -65.521393
       Temperature       (K)  =    3239.898231       3179.112835
       Pressure         (GPa) =      23.324266         23.666080
  ** Time :            9.19800 ps :
     Properties:                   Instantaneous       Averaged
       Kinetic energy    (eV) =      12.888814         12.739251
       Potential energy  (eV) =     -78.393366        -78.260606
       Total energy      (eV) =     -65.504552        -65.521355
       Temperature       (K)  =    3216.523051       3179.198247
       Pressure         (GPa) =      23.323451         23.665298
  ** Time :            9.21900 ps :
     Properties:                   Instantaneous       Averaged
       Kinetic energy    (eV) =      14.022801         12.742175
       Potential energy  (eV) =     -79.576375        -78.263603
       Total energy      (eV) =     -65.553574        -65.521428
       Temperature       (K)  =    3499.519981       3179.927909
       Pressure         (GPa) =      22.584314         23.662835
  ** Time :            9.24000 ps :
     Properties:                   Instantaneous       Averaged
       Kinetic energy    (eV) =      12.446196         12.741502
       Potential energy  (eV) =     -77.940355        -78.262868
       Total energy      (eV) =     -65.494159        -65.521366
       Temperature       (K)  =    3106.063680       3179.760036
       Pressure         (GPa) =      23.852996         23.663268
  ** Time :            9.26100 ps :
     Properties:                   Instantaneous       Averaged
       Kinetic energy    (eV) =      12.707972         12.741426
       Potential energy  (eV) =     -78.239620        -78.262816
       Total energy      (eV) =     -65.531648        -65.521390
       Temperature       (K)  =    3171.392309       3179.741061
       Pressure         (GPa) =      23.783515         23.663540
  ** Time :            9.28200 ps :
     Properties:                   Instantaneous       Averaged
       Kinetic energy    (eV) =      13.271571         12.742626
       Potential energy  (eV) =     -78.805472        -78.264043
       Total energy      (eV) =     -65.533901        -65.521418
       Temperature       (K)  =    3312.043601       3180.040388
       Pressure         (GPa) =      23.286909         23.662688
  ** Time :            9.30300 ps :
     Properties:                   Instantaneous       Averaged
       Kinetic energy    (eV) =      14.047061         12.745570
       Potential energy  (eV) =     -79.573065        -78.266998
       Total energy      (eV) =     -65.526005        -65.521428
       Temperature       (K)  =    3505.574229       3180.775228
       Pressure         (GPa) =      22.435221         23.659917
  ** Time :            9.32400 ps :
     Properties:                   Instantaneous       Averaged
       Kinetic energy    (eV) =      14.345636         12.749174
       Potential energy  (eV) =     -79.878623        -78.270628
       Total energy      (eV) =     -65.532987        -65.521454
       Temperature       (K)  =    3580.086607       3181.674578
       Pressure         (GPa) =      22.473800         23.657246
  ** Time :            9.34500 ps :
     Properties:                   Instantaneous       Averaged
       Kinetic energy    (eV) =      13.108940         12.749982
       Potential energy  (eV) =     -78.619888        -78.271413
       Total energy      (eV) =     -65.510947        -65.521431
       Temperature       (K)  =    3271.457639       3181.876337
       Pressure         (GPa) =      23.551582         23.657009
  ** Time :            9.36600 ps :
     Properties:                   Instantaneous       Averaged
       Kinetic energy    (eV) =      12.505948         12.749435
       Potential energy  (eV) =     -78.011308        -78.270830
       Total energy      (eV) =     -65.505360        -65.521395
       Temperature       (K)  =    3120.975303       3181.739788
       Pressure         (GPa) =      23.612442         23.656909
  ** Time :            9.38700 ps :
     Properties:                   Instantaneous       Averaged
       Kinetic energy    (eV) =      13.383428         12.750854
       Potential energy  (eV) =     -78.897054        -78.272231
       Total energy      (eV) =     -65.513626        -65.521377
       Temperature       (K)  =    3339.958558       3182.093745
       Pressure         (GPa) =      22.624897         23.654600
  ** Time :            9.40800 ps :
     Properties:                   Instantaneous       Averaged
       Kinetic energy    (eV) =      13.819530         12.753239
       Potential energy  (eV) =     -79.372125        -78.274686
       Total energy      (eV) =     -65.552596        -65.521447
       Temperature       (K)  =    3448.791769       3182.689053
       Pressure         (GPa) =      22.412853         23.651828
  ** Time :            9.42900 ps :
     Properties:                   Instantaneous       Averaged
       Kinetic energy    (eV) =      12.265459         12.752153
       Potential energy  (eV) =     -77.761923        -78.273544
       Total energy      (eV) =     -65.496465        -65.521391
       Temperature       (K)  =    3060.958976       3182.417939
       Pressure         (GPa) =      23.962797         23.652521
  ** Time :            9.45000 ps :
     Properties:                   Instantaneous       Averaged
       Kinetic energy    (eV) =      12.952486         12.752598
       Potential energy  (eV) =     -78.471003        -78.273983
       Total energy      (eV) =     -65.518517        -65.521385
       Temperature       (K)  =    3232.412991       3182.529039
       Pressure         (GPa) =      23.726411         23.652685
  ** Time :            9.47100 ps :
     Properties:                   Instantaneous       Averaged
       Kinetic energy    (eV) =      13.856604         12.755046
       Potential energy  (eV) =     -79.371649        -78.276417
       Total energy      (eV) =     -65.515045        -65.521371
       Temperature       (K)  =    3458.044022       3183.139937
       Pressure         (GPa) =      23.179707         23.651636
  ** Time :            9.49200 ps :
     Properties:                   Instantaneous       Averaged
       Kinetic energy    (eV) =      14.428905         12.758749
       Potential energy  (eV) =     -79.966123        -78.280155
       Total energy      (eV) =     -65.537218        -65.521406
       Temperature       (K)  =    3600.867139       3184.064113
       Pressure         (GPa) =      22.784528         23.649718
  ** Time :            9.51300 ps :
     Properties:                   Instantaneous       Averaged
       Kinetic energy    (eV) =      12.170812         12.757451
       Potential energy  (eV) =     -77.645848        -78.278755
       Total energy      (eV) =     -65.475036        -65.521304
       Temperature       (K)  =    3037.339032       3183.740216
       Pressure         (GPa) =      24.515454         23.651629
  ** Time :            9.53400 ps :
     Properties:                   Instantaneous       Averaged
       Kinetic energy    (eV) =      12.703853         12.757333
       Potential energy  (eV) =     -78.259739        -78.278713
       Total energy      (eV) =     -65.555886        -65.521380
       Temperature       (K)  =    3170.364211       3183.710754
       Pressure         (GPa) =      24.024166         23.652449
  ** Time :            9.55500 ps :
     Properties:                   Instantaneous       Averaged
       Kinetic energy    (eV) =      11.220534         12.753955
       Potential energy  (eV) =     -76.712249        -78.275270
       Total energy      (eV) =     -65.491715        -65.521315
       Temperature       (K)  =    2800.188276       3182.867847
       Pressure         (GPa) =      25.415329         23.656324
  ** Time :            9.57600 ps :
     Properties:                   Instantaneous       Averaged
       Kinetic energy    (eV) =      11.319175         12.750809
       Potential energy  (eV) =     -76.822275        -78.272084
       Total energy      (eV) =     -65.503100        -65.521275
       Temperature       (K)  =    2824.804969       3182.082622
       Pressure         (GPa) =      25.354589         23.660048
  ** Time :            9.59700 ps :
     Properties:                   Instantaneous       Averaged
       Kinetic energy    (eV) =      14.261967         12.754116
       Potential energy  (eV) =     -79.814036        -78.275458
       Total energy      (eV) =     -65.552069        -65.521342
       Temperature       (K)  =    3559.206220       3182.907837
       Pressure         (GPa) =      22.590004         23.657707
  ** Time :            9.61800 ps :
     Properties:                   Instantaneous       Averaged
       Kinetic energy    (eV) =      13.914020         12.756648
       Potential energy  (eV) =     -79.441774        -78.278004
       Total energy      (eV) =     -65.527754        -65.521356
       Temperature       (K)  =    3472.372732       3183.539857
       Pressure         (GPa) =      22.780990         23.655792
  ** Time :            9.63900 ps :
     Properties:                   Instantaneous       Averaged
       Kinetic energy    (eV) =      13.607342         12.758502
       Potential energy  (eV) =     -79.121213        -78.279841
       Total energy      (eV) =     -65.513871        -65.521340
       Temperature       (K)  =    3395.838484       3184.002381
       Pressure         (GPa) =      22.700108         23.653710
  ** Time :            9.66000 ps :
     Properties:                   Instantaneous       Averaged
       Kinetic energy    (eV) =      15.437248         12.764325
       Potential energy  (eV) =     -80.984616        -78.285721
       Total energy      (eV) =     -65.547368        -65.521396
       Temperature       (K)  =    3852.508465       3185.455655
       Pressure         (GPa) =      20.875040         23.647670
  ** Time :            9.68100 ps :
     Properties:                   Instantaneous       Averaged
       Kinetic energy    (eV) =      14.251424         12.767551
       Potential energy  (eV) =     -79.758581        -78.288916
       Total energy      (eV) =     -65.507157        -65.521365
       Temperature       (K)  =    3556.574973       3186.260686
       Pressure         (GPa) =      21.866910         23.643807
  ** Time :            9.70200 ps :
     Properties:                   Instantaneous       Averaged
       Kinetic energy    (eV) =      14.026172         12.770275
       Potential energy  (eV) =     -79.535738        -78.291615
       Total energy      (eV) =     -65.509566        -65.521340
       Temperature       (K)  =    3500.361292       3186.940558
       Pressure         (GPa) =      22.336502         23.640977
  ** Time :            9.72300 ps :
     Properties:                   Instantaneous       Averaged
       Kinetic energy    (eV) =      13.550296         12.771960
       Potential energy  (eV) =     -79.082339        -78.293323
       Total energy      (eV) =     -65.532043        -65.521363
       Temperature       (K)  =    3381.602144       3187.360993
       Pressure         (GPa) =      22.917384         23.639414
  ** Time :            9.74400 ps :
     Properties:                   Instantaneous       Averaged
       Kinetic energy    (eV) =      11.349057         12.768893
       Potential energy  (eV) =     -76.867606        -78.290250
       Total energy      (eV) =     -65.518549        -65.521357
       Temperature       (K)  =    2832.262328       3186.595694
       Pressure         (GPa) =      24.799328         23.641914
  ** Time :            9.76500 ps :
     Properties:                   Instantaneous       Averaged
       Kinetic energy    (eV) =      11.039173         12.765173
       Potential energy  (eV) =     -76.568512        -78.286547
       Total energy      (eV) =     -65.529339        -65.521374
       Temperature       (K)  =    2754.927999       3185.667376
       Pressure         (GPa) =      25.427872         23.645755
  ** Time :            9.78600 ps :
     Properties:                   Instantaneous       Averaged
       Kinetic energy    (eV) =      11.774234         12.763047
       Potential energy  (eV) =     -77.281069        -78.284390
       Total energy      (eV) =     -65.506835        -65.521343
       Temperature       (K)  =    2938.369279       3185.136694
       Pressure         (GPa) =      24.704088         23.648026
  ** Time :            9.80700 ps :
     Properties:                   Instantaneous       Averaged
       Kinetic energy    (eV) =      13.963118         12.765617
       Potential energy  (eV) =     -79.523802        -78.287044
       Total energy      (eV) =     -65.560685        -65.521427
       Temperature       (K)  =    3484.625507       3185.777998
       Pressure         (GPa) =      22.499095         23.645566
  ** Time :            9.82800 ps :
     Properties:                   Instantaneous       Averaged
       Kinetic energy    (eV) =      12.507648         12.765065
       Potential energy  (eV) =     -78.028180        -78.286491
       Total energy      (eV) =     -65.520531        -65.521425
       Temperature       (K)  =    3121.399646       3185.640437
       Pressure         (GPa) =      23.607653         23.645485
  ** Time :            9.84900 ps :
     Properties:                   Instantaneous       Averaged
       Kinetic energy    (eV) =      12.208189         12.763878
       Potential energy  (eV) =     -77.745724        -78.285338
       Total energy      (eV) =     -65.537535        -65.521460
       Temperature       (K)  =    3046.666839       3185.344118
       Pressure         (GPa) =      24.222026         23.646714
  ** Time :            9.87000 ps :
     Properties:                   Instantaneous       Averaged
       Kinetic energy    (eV) =      12.616287         12.763564
       Potential energy  (eV) =     -78.165458        -78.285082
       Total energy      (eV) =     -65.549172        -65.521518
       Temperature       (K)  =    3148.511339       3185.265750
       Pressure         (GPa) =      24.157364         23.647801
  ** Time :            9.89100 ps :
     Properties:                   Instantaneous       Averaged
       Kinetic energy    (eV) =      11.379721         12.760626
       Potential energy  (eV) =     -76.876816        -78.282092
       Total energy      (eV) =     -65.497095        -65.521467
       Temperature       (K)  =    2839.914891       3184.532521
       Pressure         (GPa) =      25.143810         23.650977
  ** Time :            9.91200 ps :
     Properties:                   Instantaneous       Averaged
       Kinetic energy    (eV) =      13.170537         12.761494
       Potential energy  (eV) =     -78.712884        -78.283005
       Total energy      (eV) =     -65.542347        -65.521511
       Temperature       (K)  =    3286.829625       3184.749252
       Pressure         (GPa) =      23.443234         23.650537
  ** Time :            9.93300 ps :
     Properties:                   Instantaneous       Averaged
       Kinetic energy    (eV) =      12.739840         12.761449
       Potential energy  (eV) =     -78.264967        -78.282967
       Total energy      (eV) =     -65.525127        -65.521519
       Temperature       (K)  =    3179.345294       3184.737828
       Pressure         (GPa) =      23.175021         23.649531
  ** Time :            9.95400 ps :
     Properties:                   Instantaneous       Averaged
       Kinetic energy    (eV) =      11.671300         12.759149
       Potential energy  (eV) =     -77.191785        -78.280665
       Total energy      (eV) =     -65.520485        -65.521516
       Temperature       (K)  =    2912.681130       3184.163868
       Pressure         (GPa) =      23.723054         23.649687
  ** Time :            9.97500 ps :
     Properties:                   Instantaneous       Averaged
       Kinetic energy    (eV) =      11.875929         12.757289
       Potential energy  (eV) =     -77.396542        -78.278804
       Total energy      (eV) =     -65.520613        -65.521514
       Temperature       (K)  =    2963.748186       3183.699835
       Pressure         (GPa) =      23.844772         23.650097
  ** Time :            9.99600 ps :
     Properties:                   Instantaneous       Averaged
       Kinetic energy    (eV) =      12.392408         12.756523
       Potential energy  (eV) =     -77.946862        -78.278106
       Total energy      (eV) =     -65.554454        -65.521584
       Temperature       (K)  =    3092.640347       3183.508534
       Pressure         (GPa) =      24.005344         23.650844

  Peak dynamic memory used =       0.57 MB 


  Timing analysis for GULP :

--------------------------------------------------------------------------------
  Task / Subroutine                                          Time (Seconds)
--------------------------------------------------------------------------------
  Calculation of real space energy and derivatives                3.0320
  Calculation of many-body energy and derivatives                 1.6280
  Molecular dynamics - update of geometry                         0.0040
--------------------------------------------------------------------------------
  Total CPU time                                                  4.8920
--------------------------------------------------------------------------------


  Dump file written as Recovery_2_3000_0.007.res                               
  GULP ASCII trajectory file written as Trajectories_2_3000_0.007.trg           


  Job Finished at 17:42.27 17th May        2018                               

