********************************************************************************
*                       GENERAL UTILITY LATTICE PROGRAM                        *
*                                 Julian Gale                                  *
*                       Curtin Institute for Computation                       *
*                           Department of Chemistry                            *
*                    Curtin University, Western Australia                      *
********************************************************************************
* Version = 5.0.0 * Last modified =  18th April 2018                           *
********************************************************************************
*  single       - perform a single point run                                   *
*  md           - perform molecular dynamics run                               *
*  conv         - constant volume calculation                                  *
********************************************************************************
* molecular dynamics of silver                                                 *
********************************************************************************


  Job Started  at 17:40.24 17th May        2018                               

  Number of CPUs =     1


  Total number of configurations input =   1

********************************************************************************
*  Input for Configuration =   1                                               *
********************************************************************************

  Formula = Ag32                                                        

  Number of irreducible atoms/shells =      32


  Total number atoms/shells =      32

  Dimensionality = 3               :  Bulk   



  Supercell dimensions :  x =   2  y =   2  z =   2

  Cartesian lattice vectors (Angstroms) :

        8.170000    0.000000    0.000000
        0.000000    8.170000    0.000000
        0.000000    0.000000    8.170000

  Cell parameters (Angstroms/Degrees):

  a =       8.1700    alpha =  90.0000
  b =       8.1700    beta  =  90.0000
  c =       8.1700    gamma =  90.0000

  Initial cell volume =         545.338513 Angs**3

  Temperature of configuration =  3000.     K 

  Pressure of configuration =         0.000 GPa 

  Fractional coordinates of asymmetric unit :

--------------------------------------------------------------------------------
   No.  Atomic       x           y          z         Charge      Occupancy
        Label      (Frac)      (Frac)     (Frac)        (e)         (Frac)  
--------------------------------------------------------------------------------
      1 Ag    c    0.000000 *  0.000000 *  0.000000 *   0.00000    1.000000    
      2 Ag    c    0.000000 *  0.000000 *  0.500000 *   0.00000    1.000000    
      3 Ag    c    0.000000 *  0.500000 *  0.000000 *   0.00000    1.000000    
      4 Ag    c    0.000000 *  0.500000 *  0.500000 *   0.00000    1.000000    
      5 Ag    c    0.500000 *  0.000000 *  0.000000 *   0.00000    1.000000    
      6 Ag    c    0.500000 *  0.000000 *  0.500000 *   0.00000    1.000000    
      7 Ag    c    0.500000 *  0.500000 *  0.000000 *   0.00000    1.000000    
      8 Ag    c    0.500000 *  0.500000 *  0.500000 *   0.00000    1.000000    
      9 Ag    c    0.000000 *  0.250000 *  0.250000 *   0.00000    1.000000    
     10 Ag    c    0.000000 *  0.250000 *  0.750000 *   0.00000    1.000000    
     11 Ag    c    0.000000 *  0.750000 *  0.250000 *   0.00000    1.000000    
     12 Ag    c    0.000000 *  0.750000 *  0.750000 *   0.00000    1.000000    
     13 Ag    c    0.500000 *  0.250000 *  0.250000 *   0.00000    1.000000    
     14 Ag    c    0.500000 *  0.250000 *  0.750000 *   0.00000    1.000000    
     15 Ag    c    0.500000 *  0.750000 *  0.250000 *   0.00000    1.000000    
     16 Ag    c    0.500000 *  0.750000 *  0.750000 *   0.00000    1.000000    
     17 Ag    c    0.250000 *  0.000000 *  0.250000 *   0.00000    1.000000    
     18 Ag    c    0.250000 *  0.000000 *  0.750000 *   0.00000    1.000000    
     19 Ag    c    0.250000 *  0.500000 *  0.250000 *   0.00000    1.000000    
     20 Ag    c    0.250000 *  0.500000 *  0.750000 *   0.00000    1.000000    
     21 Ag    c    0.750000 *  0.000000 *  0.250000 *   0.00000    1.000000    
     22 Ag    c    0.750000 *  0.000000 *  0.750000 *   0.00000    1.000000    
     23 Ag    c    0.750000 *  0.500000 *  0.250000 *   0.00000    1.000000    
     24 Ag    c    0.750000 *  0.500000 *  0.750000 *   0.00000    1.000000    
     25 Ag    c    0.250000 *  0.250000 *  0.000000 *   0.00000    1.000000    
     26 Ag    c    0.250000 *  0.250000 *  0.500000 *   0.00000    1.000000    
     27 Ag    c    0.250000 *  0.750000 *  0.000000 *   0.00000    1.000000    
     28 Ag    c    0.250000 *  0.750000 *  0.500000 *   0.00000    1.000000    
     29 Ag    c    0.750000 *  0.250000 *  0.000000 *   0.00000    1.000000    
     30 Ag    c    0.750000 *  0.250000 *  0.500000 *   0.00000    1.000000    
     31 Ag    c    0.750000 *  0.750000 *  0.000000 *   0.00000    1.000000    
     32 Ag    c    0.750000 *  0.750000 *  0.500000 *   0.00000    1.000000    
--------------------------------------------------------------------------------



********************************************************************************
*  General input information                                                   *
********************************************************************************

  Species output for all configurations : 

--------------------------------------------------------------------------------
  Species    Type    Atomic    Atomic    Charge       Radii (Angs)     Library
                     Number     Mass       (e)     Cova   Ionic  VDW   Symbol
--------------------------------------------------------------------------------
    Ag       Core       47     107.87   0.000000   1.590  0.000  2.370          
--------------------------------------------------------------------------------


  Lattice summation method               =    Ewald          (3-D)
                                         =    Parry          (2-D)
                                         =    Saunders et al (1-D)
  Accuracy factor for lattice sums       =   12.000


  Time limit = Infinity

  Maximum range for interatomic potentials =    100000.000000 Angstroms

  General interatomic potentials :

--------------------------------------------------------------------------------
Atom  Types   Potential      Parameter       Value         Units   Cutoffs(Ang)
  1     2                                                            Min /  Max 
--------------------------------------------------------------------------------
Ag   c Ag   c Many-body                                             0.000  8.000
--------------------------------------------------------------------------------
Ag   c Ag   c Buckingham    Buckingham A     11454.950    eV        0.000 12.000
                            Buckingham rho  0.26432400    Ang       
                            Buckingham C     0.0000000    eV*Ang^6  
--------------------------------------------------------------------------------

  Embedded Atom Model Densities :

--------------------------------------------------------------------------------
  Atom(s)       Functional Form          A          B          C         n      
--------------------------------------------------------------------------------
  Ag   c        Exponential          1.388      2.173      2.889         0
--------------------------------------------------------------------------------


  Embedded Atom Model alloy parameters :

--------------------------------------------------------------------------------
  Atom(s)                          Scale factor 
--------------------------------------------------------------------------------
  Ag    c                            1.000000
--------------------------------------------------------------------------------

  Embedded Atom Model functional = Square Root

--------------------------------------------------------------------------------
  Atom                     A     
--------------------------------------------------------------------------------
  Ag    c               1.000000
--------------------------------------------------------------------------------


  Manybody second derivative cross term cutoffs to be scale by = 0.50000000

********************************************************************************
*  Output for configuration   1                                                *
********************************************************************************


  Components of energy : 

--------------------------------------------------------------------------------
  Interatomic potentials     =          39.71625760 eV    
  Many-body potentials       =        -134.45860512 eV    
  Monopole - monopole (real) =           0.00000000 eV    
  Monopole - monopole (recip)=           0.00000000 eV    
  Monopole - monopole (total)=           0.00000000 eV    
--------------------------------------------------------------------------------
  Total lattice energy       =         -94.74234752 eV    
--------------------------------------------------------------------------------
  Total lattice energy       =           -9141.1883 kJ/(mole unit cells)
--------------------------------------------------------------------------------

  Equations of motion will be integrated using the leapfrog Verlet algorithm.

********************************************************************************
*  Molecular Dynamics                                                          *
********************************************************************************

  Microcanonical ensemble (NVE) to be used

  No. of mobile ions        =                 32

  No. of degrees of freedom =                 93

  Time step                 =           0.004000 ps
  Equilibration time        =           5.000000 ps
  Production time           =          10.000000 ps
  Scaling time              =           5.000000 ps
  Scaling frequency         =           0.004000 ps
  Sampling frequency        =           0.020000 ps
  Write frequency           =           0.020000 ps
  TD-Force start time       =           0.000000 ps
  TD-Field start time       =           0.000000 ps



  Molecular dynamics equilibration :

  ** Time :            0.02000 ps :
     Properties:                   Instantaneous       Averaged
       Kinetic energy    (eV) =      11.605117         11.605117
       Potential energy  (eV) =     -93.182852        -93.182852
       Total energy      (eV) =     -81.577736        -81.577736
       Temperature       (K)  =    2896.164490       2896.164490
       Pressure         (GPa) =       4.486417          4.486417
  ** Time :            0.04000 ps :
     Properties:                   Instantaneous       Averaged
       Kinetic energy    (eV) =      11.062579         11.333848
       Potential energy  (eV) =     -86.342619        -89.762736
       Total energy      (eV) =     -75.280040        -78.428888
       Temperature       (K)  =    2760.769095       2828.466793
       Pressure         (GPa) =      12.971241          8.728829
  ** Time :            0.06000 ps :
     Properties:                   Instantaneous       Averaged
       Kinetic energy    (eV) =      11.874540         11.514079
       Potential energy  (eV) =     -80.813559        -86.779677
       Total energy      (eV) =     -68.939019        -75.265598
       Temperature       (K)  =    2963.401702       2873.445096
       Pressure         (GPa) =      19.872539         12.443399
  ** Time :            0.08000 ps :
     Properties:                   Instantaneous       Averaged
       Kinetic energy    (eV) =      11.928191         11.617607
       Potential energy  (eV) =     -81.181612        -85.380161
       Total energy      (eV) =     -69.253421        -73.762554
       Temperature       (K)  =    2976.790646       2899.281483
       Pressure         (GPa) =      19.763630         14.273457
  ** Time :            0.10000 ps :
     Properties:                   Instantaneous       Averaged
       Kinetic energy    (eV) =      11.845673         11.663220
       Potential energy  (eV) =     -79.823918        -84.268912
       Total energy      (eV) =     -67.978244        -72.605692
       Temperature       (K)  =    2956.197674       2910.664722
       Pressure         (GPa) =      21.084925         15.635750
  ** Time :            0.12000 ps :
     Properties:                   Instantaneous       Averaged
       Kinetic energy    (eV) =      11.828862         11.690827
       Potential energy  (eV) =     -78.792321        -83.356147
       Total energy      (eV) =     -66.963459        -71.665320
       Temperature       (K)  =    2952.002158       2917.554294
       Pressure         (GPa) =      22.625541         16.800715
  ** Time :            0.14000 ps :
     Properties:                   Instantaneous       Averaged
       Kinetic energy    (eV) =      11.700935         11.692271
       Potential energy  (eV) =     -76.452386        -82.369895
       Total energy      (eV) =     -64.751451        -70.677624
       Temperature       (K)  =    2920.076929       2917.914671
       Pressure         (GPa) =      25.086605         17.984414
  ** Time :            0.16000 ps :
     Properties:                   Instantaneous       Averaged
       Kinetic energy    (eV) =      12.214754         11.757581
       Potential energy  (eV) =     -76.491593        -81.635107
       Total energy      (eV) =     -64.276839        -69.877526
       Temperature       (K)  =    3048.305221       2934.213489
       Pressure         (GPa) =      25.072827         18.870466
  ** Time :            0.18000 ps :
     Properties:                   Instantaneous       Averaged
       Kinetic energy    (eV) =      12.158611         11.802140
       Potential energy  (eV) =     -79.420925        -81.389087
       Total energy      (eV) =     -67.262313        -69.586947
       Temperature       (K)  =    3034.294211       2945.333570
       Pressure         (GPa) =      22.060844         19.224952
  ** Time :            0.20000 ps :
     Properties:                   Instantaneous       Averaged
       Kinetic energy    (eV) =      11.921158         11.814042
       Potential energy  (eV) =     -79.697888        -81.219967
       Total energy      (eV) =     -67.776730        -69.405925
       Temperature       (K)  =    2975.035633       2948.303776
       Pressure         (GPa) =      21.496351         19.452092
  ** Time :            0.22000 ps :
     Properties:                   Instantaneous       Averaged
       Kinetic energy    (eV) =      11.987705         11.829830
       Potential energy  (eV) =     -79.266331        -81.042364
       Total energy      (eV) =     -67.278627        -69.212534
       Temperature       (K)  =    2991.642866       2952.243693
       Pressure         (GPa) =      21.790738         19.664696
  ** Time :            0.24000 ps :
     Properties:                   Instantaneous       Averaged
       Kinetic energy    (eV) =      12.076089         11.850351
       Potential energy  (eV) =     -79.865364        -80.944281
       Total energy      (eV) =     -67.789275        -69.093929
       Temperature       (K)  =    3013.699958       2957.365049
       Pressure         (GPa) =      21.174465         19.790510
  ** Time :            0.26000 ps :
     Properties:                   Instantaneous       Averaged
       Kinetic energy    (eV) =      11.952928         11.858242
       Potential energy  (eV) =     -80.402307        -80.902590
       Total energy      (eV) =     -68.449379        -69.044349
       Temperature       (K)  =    2982.963908       2959.334192
       Pressure         (GPa) =      20.607419         19.853349
  ** Time :            0.28000 ps :
     Properties:                   Instantaneous       Averaged
       Kinetic energy    (eV) =      12.029519         11.870476
       Potential energy  (eV) =     -80.245365        -80.855646
       Total energy      (eV) =     -68.215846        -68.985170
       Temperature       (K)  =    3002.077997       2962.387321
       Pressure         (GPa) =      20.638472         19.909430
  ** Time :            0.30000 ps :
     Properties:                   Instantaneous       Averaged
       Kinetic energy    (eV) =      11.805841         11.866167
       Potential energy  (eV) =     -80.227524        -80.813771
       Total energy      (eV) =     -68.421683        -68.947604
       Temperature       (K)  =    2946.257185       2961.311978
       Pressure         (GPa) =      21.060150         19.986144
  ** Time :            0.32000 ps :
     Properties:                   Instantaneous       Averaged
       Kinetic energy    (eV) =      11.662975         11.853467
       Potential energy  (eV) =     -77.112597        -80.582448
       Total energy      (eV) =     -65.449621        -68.728980
       Temperature       (K)  =    2910.603691       2958.142710
       Pressure         (GPa) =      24.469907         20.266379
  ** Time :            0.34000 ps :
     Properties:                   Instantaneous       Averaged
       Kinetic energy    (eV) =      12.194738         11.873542
       Potential energy  (eV) =     -77.525622        -80.402634
       Total energy      (eV) =     -65.330885        -68.529092
       Temperature       (K)  =    3043.309846       2963.152542
       Pressure         (GPa) =      24.230248         20.499548
  ** Time :            0.36000 ps :
     Properties:                   Instantaneous       Averaged
       Kinetic energy    (eV) =      11.735438         11.865870
       Potential energy  (eV) =     -77.352189        -80.233165
       Total energy      (eV) =     -65.616751        -68.367295
       Temperature       (K)  =    2928.687437       2961.237814
       Pressure         (GPa) =      24.005469         20.694321
  ** Time :            0.38000 ps :
     Properties:                   Instantaneous       Averaged
       Kinetic energy    (eV) =      12.164885         11.881607
       Potential energy  (eV) =     -77.206830        -80.073884
       Total energy      (eV) =     -65.041945        -68.192277
       Temperature       (K)  =    3035.859746       2965.165284
       Pressure         (GPa) =      24.193520         20.878490
  ** Time :            0.40000 ps :
     Properties:                   Instantaneous       Averaged
       Kinetic energy    (eV) =      11.908162         11.882935
       Potential energy  (eV) =     -78.558981        -79.998139
       Total energy      (eV) =     -66.650819        -68.115204
       Temperature       (K)  =    2971.792309       2965.496635
       Pressure         (GPa) =      23.247391         20.996935
  ** Time :            0.42000 ps :
     Properties:                   Instantaneous       Averaged
       Kinetic energy    (eV) =      11.945263         11.885903
       Potential energy  (eV) =     -77.287954        -79.869083
       Total energy      (eV) =     -65.342690        -67.983180
       Temperature       (K)  =    2981.051266       2966.237332
       Pressure         (GPa) =      24.357928         21.156982
  ** Time :            0.44000 ps :
     Properties:                   Instantaneous       Averaged
       Kinetic energy    (eV) =      12.113284         11.896239
       Potential energy  (eV) =     -78.708161        -79.816313
       Total energy      (eV) =     -66.594877        -67.920075
       Temperature       (K)  =    3022.982443       2968.816655
       Pressure         (GPa) =      22.281686         21.208105
  ** Time :            0.46000 ps :
     Properties:                   Instantaneous       Averaged
       Kinetic energy    (eV) =      12.041831         11.902569
       Potential energy  (eV) =     -79.596646        -79.806763
       Total energy      (eV) =     -67.554816        -67.904194
       Temperature       (K)  =    3005.150579       2970.396391
       Pressure         (GPa) =      20.985792         21.198439
  ** Time :            0.48000 ps :
     Properties:                   Instantaneous       Averaged
       Kinetic energy    (eV) =      11.836517         11.899816
       Potential energy  (eV) =     -79.278858        -79.784767
       Total energy      (eV) =     -67.442341        -67.884950
       Temperature       (K)  =    2953.912517       2969.709563
       Pressure         (GPa) =      21.688261         21.218849
  ** Time :            0.50000 ps :
     Properties:                   Instantaneous       Averaged
       Kinetic energy    (eV) =      12.030633         11.905049
       Potential energy  (eV) =     -78.383774        -79.728727
       Total energy      (eV) =     -66.353141        -67.823678
       Temperature       (K)  =    3002.355961       2971.015419
       Pressure         (GPa) =      22.628189         21.275222
  ** Time :            0.52000 ps :
     Properties:                   Instantaneous       Averaged
       Kinetic energy    (eV) =      12.091159         11.912207
       Potential energy  (eV) =     -80.332293        -79.751941
       Total energy      (eV) =     -68.241134        -67.839734
       Temperature       (K)  =    3017.460829       2972.801781
       Pressure         (GPa) =      20.655800         21.251398
  ** Time :            0.54000 ps :
     Properties:                   Instantaneous       Averaged
       Kinetic energy    (eV) =      11.925902         11.912714
       Potential energy  (eV) =     -80.001926        -79.761200
       Total energy      (eV) =     -68.076024        -67.848485
       Temperature       (K)  =    2976.219369       2972.928358
       Pressure         (GPa) =      21.106576         21.246034
  ** Time :            0.56000 ps :
     Properties:                   Instantaneous       Averaged
       Kinetic energy    (eV) =      12.046177         11.917481
       Potential energy  (eV) =     -80.533527        -79.788783
       Total energy      (eV) =     -68.487350        -67.871302
       Temperature       (K)  =    3006.235153       2974.117886
       Pressure         (GPa) =      20.805065         21.230286
  ** Time :            0.58000 ps :
     Properties:                   Instantaneous       Averaged
       Kinetic energy    (eV) =      11.985864         11.919839
       Potential energy  (eV) =     -80.669701        -79.819159
       Total energy      (eV) =     -68.683836        -67.899320
       Temperature       (K)  =    2991.183620       2974.706360
       Pressure         (GPa) =      20.363106         21.200383
  ** Time :            0.60000 ps :
     Properties:                   Instantaneous       Averaged
       Kinetic energy    (eV) =      12.015916         11.923042
       Potential energy  (eV) =     -81.337408        -79.869768
       Total energy      (eV) =     -69.321492        -67.946726
       Temperature       (K)  =    2998.683307       2975.505592
       Pressure         (GPa) =      19.790188         21.153376
  ** Time :            0.62000 ps :
     Properties:                   Instantaneous       Averaged
       Kinetic energy    (eV) =      11.599631         11.912609
       Potential energy  (eV) =     -79.245216        -79.849621
       Total energy      (eV) =     -67.645585        -67.937012
       Temperature       (K)  =    2894.795515       2972.902041
       Pressure         (GPa) =      21.802890         21.174328
  ** Time :            0.64000 ps :
     Properties:                   Instantaneous       Averaged
       Kinetic energy    (eV) =      11.974491         11.914543
       Potential energy  (eV) =     -78.982699        -79.822530
       Total energy      (eV) =     -67.008208        -67.907987
       Temperature       (K)  =    2988.345281       2973.384642
       Pressure         (GPa) =      22.747158         21.223479
  ** Time :            0.66000 ps :
     Properties:                   Instantaneous       Averaged
       Kinetic energy    (eV) =      12.168227         11.922230
       Potential energy  (eV) =     -79.632437        -79.816769
       Total energy      (eV) =     -67.464210        -67.894539
       Temperature       (K)  =    3036.693956       2975.303106
       Pressure         (GPa) =      21.834567         21.241997
  ** Time :            0.68000 ps :
     Properties:                   Instantaneous       Averaged
       Kinetic energy    (eV) =      12.163739         11.929333
       Potential energy  (eV) =     -82.252940        -79.888421
       Total energy      (eV) =     -70.089201        -67.959088
       Temperature       (K)  =    3035.573941       2977.075778
       Pressure         (GPa) =      18.565674         21.163282
  ** Time :            0.70000 ps :
     Properties:                   Instantaneous       Averaged
       Kinetic energy    (eV) =      11.793437         11.925451
       Potential energy  (eV) =     -82.043166        -79.949985
       Total energy      (eV) =     -70.249728        -68.024535
       Temperature       (K)  =    2943.161662       2976.106803
       Pressure         (GPa) =      18.531664         21.088093
  ** Time :            0.72000 ps :
     Properties:                   Instantaneous       Averaged
       Kinetic energy    (eV) =      12.051503         11.928952
       Potential energy  (eV) =     -81.059808        -79.980814
       Total energy      (eV) =     -69.008306        -68.051862
       Temperature       (K)  =    3007.564280       2976.980622
       Pressure         (GPa) =      19.783860         21.051864
  ** Time :            0.74000 ps :
     Properties:                   Instantaneous       Averaged
       Kinetic energy    (eV) =      12.022719         11.931486
       Potential energy  (eV) =     -82.367253        -80.045312
       Total energy      (eV) =     -70.344534        -68.113826
       Temperature       (K)  =    3000.381004       2977.613065
       Pressure         (GPa) =      18.760792         20.989943
  ** Time :            0.76000 ps :
     Properties:                   Instantaneous       Averaged
       Kinetic energy    (eV) =      11.853445         11.929433
       Potential energy  (eV) =     -81.577676        -80.085638
       Total energy      (eV) =     -69.724232        -68.156205
       Temperature       (K)  =    2958.137007       2977.100537
       Pressure         (GPa) =      19.674994         20.955339
  ** Time :            0.78000 ps :
     Properties:                   Instantaneous       Averaged
       Kinetic energy    (eV) =      11.682186         11.923093
       Potential energy  (eV) =     -79.399344        -80.068040
       Total energy      (eV) =     -67.717158        -68.144947
       Temperature       (K)  =    2915.397926       2975.518418
       Pressure         (GPa) =      22.284649         20.989424
  ** Time :            0.80000 ps :
     Properties:                   Instantaneous       Averaged
       Kinetic energy    (eV) =      12.037541         11.925954
       Potential energy  (eV) =     -77.785126        -80.010967
       Total energy      (eV) =     -65.747585        -68.085013
       Temperature       (K)  =    3004.079939       2976.232456
       Pressure         (GPa) =      24.222410         21.070249
  ** Time :            0.82000 ps :
     Properties:                   Instantaneous       Averaged
       Kinetic energy    (eV) =      11.942391         11.926355
       Potential energy  (eV) =     -78.469130        -79.973362
       Total energy      (eV) =     -66.526740        -68.047007
       Temperature       (K)  =    2980.334374       2976.332503
       Pressure         (GPa) =      23.538900         21.130460
  ** Time :            0.84000 ps :
     Properties:                   Instantaneous       Averaged
       Kinetic energy    (eV) =      12.071943         11.929821
       Potential energy  (eV) =     -78.567217        -79.939882
       Total energy      (eV) =     -66.495274        -68.010061
       Temperature       (K)  =    3012.665339       2977.197571
       Pressure         (GPa) =      23.377485         21.183960
  ** Time :            0.86000 ps :
     Properties:                   Instantaneous       Averaged
       Kinetic energy    (eV) =      11.878436         11.928626
       Potential energy  (eV) =     -78.857223        -79.914704
       Total energy      (eV) =     -66.978787        -67.986077
       Temperature       (K)  =    2964.373857       2976.899345
       Pressure         (GPa) =      22.955227         21.225153
  ** Time :            0.88000 ps :
     Properties:                   Instantaneous       Averaged
       Kinetic energy    (eV) =      11.968207         11.929526
       Potential energy  (eV) =     -77.615668        -79.862453
       Total energy      (eV) =     -65.647461        -67.932927
       Temperature       (K)  =    2986.777091       2977.123839
       Pressure         (GPa) =      23.826079         21.284265
  ** Time :            0.90000 ps :
     Properties:                   Instantaneous       Averaged
       Kinetic energy    (eV) =      12.283161         11.937385
       Potential energy  (eV) =     -79.798626        -79.861035
       Total energy      (eV) =     -67.515465        -67.923650
       Temperature       (K)  =    3065.376767       2979.085015
       Pressure         (GPa) =      21.676309         21.292977
  ** Time :            0.92000 ps :
     Properties:                   Instantaneous       Averaged
       Kinetic energy    (eV) =      12.029101         11.939378
       Potential energy  (eV) =     -81.826887        -79.903771
       Total energy      (eV) =     -69.797786        -67.964392
       Temperature       (K)  =    3001.973718       2979.582596
       Pressure         (GPa) =      19.508007         21.254173
  ** Time :            0.94000 ps :
     Properties:                   Instantaneous       Averaged
       Kinetic energy    (eV) =      11.607375         11.932314
       Potential energy  (eV) =     -80.368064        -79.913649
       Total energy      (eV) =     -68.760690        -67.981335
       Temperature       (K)  =    2896.727993       2977.819732
       Pressure         (GPa) =      21.168000         21.252339
  ** Time :            0.96000 ps :
     Properties:                   Instantaneous       Averaged
       Kinetic energy    (eV) =      11.855209         11.930708
       Potential energy  (eV) =     -76.250873        -79.837341
       Total energy      (eV) =     -64.395663        -67.906633
       Temperature       (K)  =    2958.577472       2977.418851
       Pressure         (GPa) =      25.404262         21.338838
  ** Time :            0.98000 ps :
     Properties:                   Instantaneous       Averaged
       Kinetic energy    (eV) =      12.294661         11.938136
       Potential energy  (eV) =     -79.233769        -79.825024
       Total energy      (eV) =     -66.939109        -67.886888
       Temperature       (K)  =    3068.246614       2979.272479
       Pressure         (GPa) =      22.741750         21.367469
  ** Time :            1.00000 ps :
     Properties:                   Instantaneous       Averaged
       Kinetic energy    (eV) =      11.945135         11.938276
       Potential energy  (eV) =     -80.747645        -79.843476
       Total energy      (eV) =     -68.802510        -67.905200
       Temperature       (K)  =    2981.019165       2979.307413
       Pressure         (GPa) =      21.212584         21.364371
  ** Time :            1.02000 ps :
     Properties:                   Instantaneous       Averaged
       Kinetic energy    (eV) =      11.811644         11.935793
       Potential energy  (eV) =     -79.144813        -79.829777
       Total energy      (eV) =     -67.333170        -67.893984
       Temperature       (K)  =    2947.705220       2978.687762
       Pressure         (GPa) =      22.882618         21.394141
  ** Time :            1.04000 ps :
     Properties:                   Instantaneous       Averaged
       Kinetic energy    (eV) =      11.841640         11.933982
       Potential energy  (eV) =     -78.150261        -79.797478
       Total energy      (eV) =     -66.308621        -67.863496
       Temperature       (K)  =    2955.191043       2978.235902
       Pressure         (GPa) =      24.104368         21.446260
  ** Time :            1.06000 ps :
     Properties:                   Instantaneous       Averaged
       Kinetic energy    (eV) =      11.784097         11.931154
       Potential energy  (eV) =     -76.313213        -79.731737
       Total energy      (eV) =     -64.529116        -67.800583
       Temperature       (K)  =    2940.830758       2977.530145
       Pressure         (GPa) =      26.094374         21.533961
  ** Time :            1.08000 ps :
     Properties:                   Instantaneous       Averaged
       Kinetic energy    (eV) =      11.940683         11.931331
       Potential energy  (eV) =     -75.608524        -79.655382
       Total energy      (eV) =     -63.667841        -67.724051
       Temperature       (K)  =    2979.908154       2977.574182
       Pressure         (GPa) =      26.975884         21.634737
  ** Time :            1.10000 ps :
     Properties:                   Instantaneous       Averaged
       Kinetic energy    (eV) =      11.985297         11.932312
       Potential energy  (eV) =     -74.888623        -79.568713
       Total energy      (eV) =     -62.903326        -67.636402
       Temperature       (K)  =    2991.042093       2977.819053
       Pressure         (GPa) =      27.306010         21.737851
  ** Time :            1.12000 ps :
     Properties:                   Instantaneous       Averaged
       Kinetic energy    (eV) =      12.286313         11.938633
       Potential energy  (eV) =     -77.630735        -79.534107
       Total energy      (eV) =     -65.344422        -67.595473
       Temperature       (K)  =    3066.163351       2979.396630
       Pressure         (GPa) =      24.367168         21.784803
  ** Time :            1.14000 ps :
     Properties:                   Instantaneous       Averaged
       Kinetic energy    (eV) =      11.973861         11.939251
       Potential energy  (eV) =     -78.834968        -79.521841
       Total energy      (eV) =     -66.861106        -67.582590
       Temperature       (K)  =    2988.188083       2979.550866
       Pressure         (GPa) =      22.767363         21.802041
  ** Time :            1.16000 ps :
     Properties:                   Instantaneous       Averaged
       Kinetic energy    (eV) =      12.148478         11.942859
       Potential energy  (eV) =     -79.462997        -79.520826
       Total energy      (eV) =     -67.314519        -67.577968
       Temperature       (K)  =    3031.765370       2980.451116
       Pressure         (GPa) =      21.796362         21.801943
  ** Time :            1.18000 ps :
     Properties:                   Instantaneous       Averaged
       Kinetic energy    (eV) =      11.885372         11.941884
       Potential energy  (eV) =     -80.351245        -79.534901
       Total energy      (eV) =     -68.465874        -67.593017
       Temperature       (K)  =    2966.104720       2980.207957
       Pressure         (GPa) =      20.957865         21.787637
  ** Time :            1.20000 ps :
     Properties:                   Instantaneous       Averaged
       Kinetic energy    (eV) =      11.596913         11.936135
       Potential energy  (eV) =     -77.415503        -79.499578
       Total energy      (eV) =     -65.818590        -67.563443
       Temperature       (K)  =    2894.117274       2978.773112
       Pressure         (GPa) =      24.263238         21.828897
  ** Time :            1.22000 ps :
     Properties:                   Instantaneous       Averaged
       Kinetic energy    (eV) =      12.161529         11.939830
       Potential energy  (eV) =     -76.409623        -79.448923
       Total energy      (eV) =     -64.248094        -67.509093
       Temperature       (K)  =    3035.022435       2979.695232
       Pressure         (GPa) =      25.843602         21.894711
  ** Time :            1.24000 ps :
     Properties:                   Instantaneous       Averaged
       Kinetic energy    (eV) =      12.227266         11.944466
       Potential energy  (eV) =     -79.021953        -79.442036
       Total energy      (eV) =     -66.794687        -67.497571
       Temperature       (K)  =    3051.427729       2980.852208
       Pressure         (GPa) =      23.293661         21.917275
  ** Time :            1.26000 ps :
     Properties:                   Instantaneous       Averaged
       Kinetic energy    (eV) =      11.954624         11.944627
       Potential energy  (eV) =     -80.490703        -79.458682
       Total energy      (eV) =     -68.536079        -67.514055
       Temperature       (K)  =    2983.387299       2980.892447
       Pressure         (GPa) =      21.799215         21.915401
  ** Time :            1.28000 ps :
     Properties:                   Instantaneous       Averaged
       Kinetic energy    (eV) =      11.820029         11.942680
       Potential energy  (eV) =     -79.046633        -79.452244
       Total energy      (eV) =     -67.226604        -67.509563
       Temperature       (K)  =    2949.797786       2980.406593
       Pressure         (GPa) =      23.301639         21.937061
  ** Time :            1.30000 ps :
     Properties:                   Instantaneous       Averaged
       Kinetic energy    (eV) =      11.892179         11.941903
       Potential energy  (eV) =     -78.061951        -79.430855
       Total energy      (eV) =     -66.169772        -67.488951
       Temperature       (K)  =    2967.803604       2980.212701
       Pressure         (GPa) =      24.127883         21.970766
  ** Time :            1.32000 ps :
     Properties:                   Instantaneous       Averaged
       Kinetic energy    (eV) =      12.019586         11.943080
       Potential energy  (eV) =     -77.775978        -79.405781
       Total energy      (eV) =     -65.756392        -67.462700
       Temperature       (K)  =    2999.599068       2980.506434
       Pressure         (GPa) =      24.054582         22.002339
  ** Time :            1.34000 ps :
     Properties:                   Instantaneous       Averaged
       Kinetic energy    (eV) =      12.016140         11.944171
       Potential energy  (eV) =     -78.324038        -79.389635
       Total energy      (eV) =     -66.307898        -67.445465
       Temperature       (K)  =    2998.739235       2980.778565
       Pressure         (GPa) =      23.411441         22.023370
  ** Time :            1.36000 ps :
     Properties:                   Instantaneous       Averaged
       Kinetic energy    (eV) =      12.025650         11.945369
       Potential energy  (eV) =     -79.384681        -79.389562
       Total energy      (eV) =     -67.359031        -67.444193
       Temperature       (K)  =    3001.112482       2981.077593
       Pressure         (GPa) =      22.525572         22.030756
  ** Time :            1.38000 ps :
     Properties:                   Instantaneous       Averaged
       Kinetic energy    (eV) =      11.745005         11.942465
       Potential energy  (eV) =     -77.824453        -79.366880
       Total energy      (eV) =     -66.079448        -67.424415
       Temperature       (K)  =    2931.074965       2980.352918
       Pressure         (GPa) =      23.963916         22.058773
  ** Time :            1.40000 ps :
     Properties:                   Instantaneous       Averaged
       Kinetic energy    (eV) =      11.956063         11.942659
       Potential energy  (eV) =     -76.735430        -79.329287
       Total energy      (eV) =     -64.779368        -67.386628
       Temperature       (K)  =    2983.746352       2980.401395
       Pressure         (GPa) =      25.079336         22.101924
  ** Time :            1.42000 ps :
     Properties:                   Instantaneous       Averaged
       Kinetic energy    (eV) =      12.112204         11.945047
       Potential energy  (eV) =     -77.706432        -79.306430
       Total energy      (eV) =     -65.594228        -67.361383
       Temperature       (K)  =    3022.712924       2980.997332
       Pressure         (GPa) =      24.080577         22.129792
  ** Time :            1.44000 ps :
     Properties:                   Instantaneous       Averaged
       Kinetic energy    (eV) =      12.009660         11.945945
       Potential energy  (eV) =     -78.640319        -79.297179
       Total energy      (eV) =     -66.630659        -67.351234
       Temperature       (K)  =    2997.122020       2981.221286
       Pressure         (GPa) =      22.820864         22.139390
  ** Time :            1.46000 ps :
     Properties:                   Instantaneous       Averaged
       Kinetic energy    (eV) =      11.915667         11.945530
       Potential energy  (eV) =     -78.182722        -79.281912
       Total energy      (eV) =     -66.267055        -67.336382
       Temperature       (K)  =    2973.665164       2981.117778
       Pressure         (GPa) =      22.854933         22.149192
  ** Time :            1.48000 ps :
     Properties:                   Instantaneous       Averaged
       Kinetic energy    (eV) =      11.929196         11.945309
       Potential energy  (eV) =     -77.924014        -79.263562
       Total energy      (eV) =     -65.994818        -67.318253
       Temperature       (K)  =    2977.041524       2981.062693
       Pressure         (GPa) =      23.057957         22.161473
  ** Time :            1.50000 ps :
     Properties:                   Instantaneous       Averaged
       Kinetic energy    (eV) =      12.120296         11.947642
       Potential energy  (eV) =     -78.814581        -79.257576
       Total energy      (eV) =     -66.694285        -67.309934
       Temperature       (K)  =    3024.732175       2981.644953
       Pressure         (GPa) =      22.461603         22.165474
  ** Time :            1.52000 ps :
     Properties:                   Instantaneous       Averaged
       Kinetic energy    (eV) =      12.135265         11.950111
       Potential energy  (eV) =     -80.245100        -79.270570
       Total energy      (eV) =     -68.109835        -67.320459
       Temperature       (K)  =    3028.467946       2982.261045
       Pressure         (GPa) =      21.275905         22.153770
  ** Time :            1.54000 ps :
     Properties:                   Instantaneous       Averaged
       Kinetic energy    (eV) =      11.846680         11.948768
       Potential energy  (eV) =     -80.862957        -79.291250
       Total energy      (eV) =     -69.016276        -67.342482
       Temperature       (K)  =    2956.448914       2981.925823
       Pressure         (GPa) =      21.121983         22.140370
  ** Time :            1.56000 ps :
     Properties:                   Instantaneous       Averaged
       Kinetic energy    (eV) =      11.462128         11.942529
       Potential energy  (eV) =     -77.406572        -79.267087
       Total energy      (eV) =     -65.944444        -67.324559
       Temperature       (K)  =    2860.480316       2980.368829
       Pressure         (GPa) =      25.042666         22.177579
  ** Time :            1.58000 ps :
     Properties:                   Instantaneous       Averaged
       Kinetic energy    (eV) =      11.990865         11.943141
       Potential energy  (eV) =     -74.290689        -79.204095
       Total energy      (eV) =     -62.299824        -67.260954
       Temperature       (K)  =    2992.431550       2980.521522
       Pressure         (GPa) =      28.461217         22.257118
  ** Time :            1.60000 ps :
     Properties:                   Instantaneous       Averaged
       Kinetic energy    (eV) =      12.089516         11.944970
       Potential energy  (eV) =     -75.806962        -79.161631
       Total energy      (eV) =     -63.717445        -67.216660
       Temperature       (K)  =    3017.050880       2980.978139
       Pressure         (GPa) =      26.812367         22.314059
  ** Time :            1.62000 ps :
     Properties:                   Instantaneous       Averaged
       Kinetic energy    (eV) =      12.224040         11.948416
       Potential energy  (eV) =     -78.326926        -79.151326
       Total energy      (eV) =     -66.102887        -67.202910
       Temperature       (K)  =    3050.622458       2981.837945
       Pressure         (GPa) =      23.777433         22.332125
  ** Time :            1.64000 ps :
     Properties:                   Instantaneous       Averaged
       Kinetic energy    (eV) =      11.912635         11.947979
       Potential energy  (eV) =     -78.550592        -79.144000
       Total energy      (eV) =     -66.637957        -67.196021
       Temperature       (K)  =    2972.908555       2981.729050
       Pressure         (GPa) =      22.920985         22.339307
  ** Time :            1.66000 ps :
     Properties:                   Instantaneous       Averaged
       Kinetic energy    (eV) =      12.295179         11.952162
       Potential energy  (eV) =     -80.437977        -79.159590
       Total energy      (eV) =     -68.142799        -67.207427
       Temperature       (K)  =    3068.375826       2982.772987
       Pressure         (GPa) =      20.805211         22.320823
  ** Time :            1.68000 ps :
     Properties:                   Instantaneous       Averaged
       Kinetic energy    (eV) =      11.930351         11.951903
       Potential energy  (eV) =     -81.893120        -79.192132
       Total energy      (eV) =     -69.962769        -67.240229
       Temperature       (K)  =    2977.329840       2982.708188
       Pressure         (GPa) =      18.987441         22.281140
  ** Time :            1.70000 ps :
     Properties:                   Instantaneous       Averaged
       Kinetic energy    (eV) =      11.929544         11.951640
       Potential energy  (eV) =     -81.199416        -79.215747
       Total energy      (eV) =     -69.269873        -67.264107
       Temperature       (K)  =    2977.128320       2982.642542
       Pressure         (GPa) =      19.482799         22.248219
  ** Time :            1.72000 ps :
     Properties:                   Instantaneous       Averaged
       Kinetic energy    (eV) =      12.021997         11.952458
       Potential energy  (eV) =     -81.097293        -79.237626
       Total energy      (eV) =     -69.075296        -67.285168
       Temperature       (K)  =    3000.200721       2982.846707
       Pressure         (GPa) =      19.689549         22.218467
  ** Time :            1.74000 ps :
     Properties:                   Instantaneous       Averaged
       Kinetic energy    (eV) =      12.033954         11.953395
       Potential energy  (eV) =     -81.850349        -79.267657
       Total energy      (eV) =     -69.816395        -67.314262
       Temperature       (K)  =    3003.184869       2983.080479
       Pressure         (GPa) =      19.298553         22.184904
  ** Time :            1.76000 ps :
     Properties:                   Instantaneous       Averaged
       Kinetic energy    (eV) =      11.872048         11.952470
       Potential energy  (eV) =     -81.475309        -79.292744
       Total energy      (eV) =     -69.603261        -67.340274
       Temperature       (K)  =    2962.779568       2982.849787
       Pressure         (GPa) =      19.834477         22.158195
  ** Time :            1.78000 ps :
     Properties:                   Instantaneous       Averaged
       Kinetic energy    (eV) =      11.980380         11.952784
       Potential energy  (eV) =     -81.087989        -79.312915
       Total energy      (eV) =     -69.107609        -67.360131
       Temperature       (K)  =    2989.814862       2982.928046
       Pressure         (GPa) =      20.524213         22.139836
  ** Time :            1.80000 ps :
     Properties:                   Instantaneous       Averaged
       Kinetic energy    (eV) =      11.691519         11.949881
       Potential energy  (eV) =     -79.504643        -79.315045
       Total energy      (eV) =     -67.813124        -67.365165
       Temperature       (K)  =    2917.726938       2982.203589
       Pressure         (GPa) =      22.593946         22.144881
  ** Time :            1.82000 ps :
     Properties:                   Instantaneous       Averaged
       Kinetic energy    (eV) =      12.104014         11.951575
       Potential energy  (eV) =     -78.389206        -79.304871
       Total energy      (eV) =     -66.285192        -67.353297
       Temperature       (K)  =    3020.668911       2982.626285
       Pressure         (GPa) =      24.019797         22.165485
  ** Time :            1.84000 ps :
     Properties:                   Instantaneous       Averaged
       Kinetic energy    (eV) =      12.039651         11.952532
       Potential energy  (eV) =     -80.021388        -79.312660
       Total energy      (eV) =     -67.981737        -67.360128
       Temperature       (K)  =    3004.606486       2982.865200
       Pressure         (GPa) =      22.032151         22.164036
  ** Time :            1.86000 ps :
     Properties:                   Instantaneous       Averaged
       Kinetic energy    (eV) =      12.125012         11.954387
       Potential energy  (eV) =     -80.658135        -79.327127
       Total energy      (eV) =     -68.533123        -67.372740
       Temperature       (K)  =    3025.909130       2983.328038
       Pressure         (GPa) =      20.791757         22.149280
  ** Time :            1.88000 ps :
     Properties:                   Instantaneous       Averaged
       Kinetic energy    (eV) =      12.001826         11.954891
       Potential energy  (eV) =     -81.905175        -79.354553
       Total energy      (eV) =     -69.903349        -67.399662
       Temperature       (K)  =    2995.167030       2983.453985
       Pressure         (GPa) =      19.477146         22.120853
  ** Time :            1.90000 ps :
     Properties:                   Instantaneous       Averaged
       Kinetic energy    (eV) =      12.040346         11.955791
       Potential energy  (eV) =     -81.958039        -79.381958
       Total energy      (eV) =     -69.917692        -67.426167
       Temperature       (K)  =    3004.780040       2983.678470
       Pressure         (GPa) =      19.272023         22.090865
  ** Time :            1.92000 ps :
     Properties:                   Instantaneous       Averaged
       Kinetic energy    (eV) =      11.871853         11.954916
       Potential energy  (eV) =     -82.122301        -79.410503
       Total energy      (eV) =     -70.250448        -67.455587
       Temperature       (K)  =    2962.731068       2983.460268
       Pressure         (GPa) =      18.975600         22.058415
  ** Time :            1.94000 ps :
     Properties:                   Instantaneous       Averaged
       Kinetic energy    (eV) =      11.849653         11.953831
       Potential energy  (eV) =     -80.334747        -79.420032
       Total energy      (eV) =     -68.485095        -67.466200
       Temperature       (K)  =    2957.190737       2983.189448
       Pressure         (GPa) =      20.774690         22.045180
  ** Time :            1.96000 ps :
     Properties:                   Instantaneous       Averaged
       Kinetic energy    (eV) =      11.947611         11.953768
       Potential energy  (eV) =     -80.316664        -79.429181
       Total energy      (eV) =     -68.369053        -67.475413
       Temperature       (K)  =    2981.637130       2983.173608
       Pressure         (GPa) =      21.101004         22.035546
  ** Time :            1.98000 ps :
     Properties:                   Instantaneous       Averaged
       Kinetic energy    (eV) =      11.985199         11.954085
       Potential energy  (eV) =     -79.855836        -79.433491
       Total energy      (eV) =     -67.870637        -67.479405
       Temperature       (K)  =    2991.017510       2983.252839
       Pressure         (GPa) =      21.421541         22.029344
  ** Time :            2.00000 ps :
     Properties:                   Instantaneous       Averaged
       Kinetic energy    (eV) =      11.975164         11.954296
       Potential energy  (eV) =     -80.214786        -79.441304
       Total energy      (eV) =     -68.239622        -67.487008
       Temperature       (K)  =    2988.513209       2983.305443
       Pressure         (GPa) =      21.101813         22.020068
  ** Time :            2.02000 ps :
     Properties:                   Instantaneous       Averaged
       Kinetic energy    (eV) =      11.922213         11.953978
       Potential energy  (eV) =     -79.616927        -79.443042
       Total energy      (eV) =     -67.694714        -67.489064
       Temperature       (K)  =    2975.298819       2983.226169
       Pressure         (GPa) =      21.872131         22.018604
  ** Time :            2.04000 ps :
     Properties:                   Instantaneous       Averaged
       Kinetic energy    (eV) =      11.892834         11.953379
       Potential energy  (eV) =     -79.126032        -79.439935
       Total energy      (eV) =     -67.233198        -67.486556
       Temperature       (K)  =    2967.967009       2983.076570
       Pressure         (GPa) =      22.759750         22.025870
  ** Time :            2.06000 ps :
     Properties:                   Instantaneous       Averaged
       Kinetic energy    (eV) =      11.670464         11.950632
       Potential energy  (eV) =     -77.021554        -79.416455
       Total energy      (eV) =     -65.351091        -67.465823
       Temperature       (K)  =    2912.472443       2982.391093
       Pressure         (GPa) =      25.316510         22.057818
  ** Time :            2.08000 ps :
     Properties:                   Instantaneous       Averaged
       Kinetic energy    (eV) =      12.119154         11.952253
       Potential energy  (eV) =     -75.837891        -79.382046
       Total energy      (eV) =     -63.718737        -67.429793
       Temperature       (K)  =    3024.447191       2982.795478
       Pressure         (GPa) =      26.705516         22.102507
  ** Time :            2.10000 ps :
     Properties:                   Instantaneous       Averaged
       Kinetic energy    (eV) =      12.185788         11.954477
       Potential energy  (eV) =     -78.832373        -79.376811
       Total energy      (eV) =     -66.646585        -67.422334
       Temperature       (K)  =    3041.076423       2983.350535
       Pressure         (GPa) =      23.597791         22.116748
  ** Time :            2.12000 ps :
     Properties:                   Instantaneous       Averaged
       Kinetic energy    (eV) =      11.937513         11.954317
       Potential energy  (eV) =     -79.121059        -79.374398
       Total energy      (eV) =     -67.183546        -67.420081
       Temperature       (K)  =    2979.117180       2983.310598
       Pressure         (GPa) =      22.711299         22.122357
  ** Time :            2.14000 ps :
     Properties:                   Instantaneous       Averaged
       Kinetic energy    (eV) =      12.014877         11.954883
       Potential energy  (eV) =     -79.201212        -79.372780
       Total energy      (eV) =     -67.186335        -67.417897
       Temperature       (K)  =    2998.423912       2983.451844
       Pressure         (GPa) =      22.613977         22.126952
  ** Time :            2.16000 ps :
     Properties:                   Instantaneous       Averaged
       Kinetic energy    (eV) =      11.855105         11.953959
       Potential energy  (eV) =     -79.006600        -79.369389
       Total energy      (eV) =     -67.151495        -67.415430
       Temperature       (K)  =    2958.551374       2983.221284
       Pressure         (GPa) =      23.029239         22.135306
  ** Time :            2.18000 ps :
     Properties:                   Instantaneous       Averaged
       Kinetic energy    (eV) =      11.902594         11.953488
       Potential energy  (eV) =     -77.717964        -79.354238
       Total energy      (eV) =     -65.815371        -67.400751
       Temperature       (K)  =    2970.402699       2983.103682
       Pressure         (GPa) =      24.390414         22.155995
  ** Time :            2.20000 ps :
     Properties:                   Instantaneous       Averaged
       Kinetic energy    (eV) =      11.906519         11.953061
       Potential energy  (eV) =     -77.007139        -79.332901
       Total energy      (eV) =     -65.100620        -67.379840
       Temperature       (K)  =    2971.382294       2982.997124
       Pressure         (GPa) =      24.910634         22.181037
  ** Time :            2.22000 ps :
     Properties:                   Instantaneous       Averaged
       Kinetic energy    (eV) =      12.023242         11.953693
       Potential energy  (eV) =     -76.878670        -79.310791
       Total energy      (eV) =     -64.855428        -67.357098
       Temperature       (K)  =    3000.511538       2983.154911
       Pressure         (GPa) =      24.540548         22.202294
  ** Time :            2.24000 ps :
     Properties:                   Instantaneous       Averaged
       Kinetic energy    (eV) =      12.268147         11.956500
       Potential energy  (eV) =     -78.812855        -79.306345
       Total energy      (eV) =     -66.544708        -67.349844
       Temperature       (K)  =    3061.629791       2983.855580
       Pressure         (GPa) =      22.003476         22.200519
  ** Time :            2.26000 ps :
     Properties:                   Instantaneous       Averaged
       Kinetic energy    (eV) =      11.964284         11.956569
       Potential energy  (eV) =     -80.602415        -79.317815
       Total energy      (eV) =     -68.638131        -67.361245
       Temperature       (K)  =    2985.798046       2983.872770
       Pressure         (GPa) =      20.038897         22.181390
  ** Time :            2.28000 ps :
     Properties:                   Instantaneous       Averaged
       Kinetic energy    (eV) =      11.808397         11.955270
       Potential energy  (eV) =     -78.920877        -79.314333
       Total energy      (eV) =     -67.112480        -67.359063
       Temperature       (K)  =    2946.895085       2983.548404
       Pressure         (GPa) =      21.652588         22.176751
  ** Time :            2.30000 ps :
     Properties:                   Instantaneous       Averaged
       Kinetic energy    (eV) =      11.992043         11.955589
       Potential energy  (eV) =     -78.790646        -79.309779
       Total energy      (eV) =     -66.798603        -67.354190
       Temperature       (K)  =    2992.725490       2983.628205
       Pressure         (GPa) =      22.338050         22.178154
  ** Time :            2.32000 ps :
     Properties:                   Instantaneous       Averaged
       Kinetic energy    (eV) =      11.824918         11.954463
       Potential energy  (eV) =     -77.787396        -79.296655
       Total energy      (eV) =     -65.962477        -67.342192
       Temperature       (K)  =    2951.018014       2983.347083
       Pressure         (GPa) =      23.990755         22.193780
  ** Time :            2.34000 ps :
     Properties:                   Instantaneous       Averaged
       Kinetic energy    (eV) =      11.956269         11.954478
       Potential energy  (eV) =     -77.028261        -79.277267
       Total energy      (eV) =     -65.071992        -67.322789
       Temperature       (K)  =    2983.797805       2983.350935
       Pressure         (GPa) =      25.153153         22.219073
  ** Time :            2.36000 ps :
     Properties:                   Instantaneous       Averaged
       Kinetic energy    (eV) =      11.674643         11.952107
       Potential energy  (eV) =     -75.491143        -79.245181
       Total energy      (eV) =     -63.816499        -67.293074
       Temperature       (K)  =    2913.515494       2982.759109
       Pressure         (GPa) =      26.203861         22.252843
  ** Time :            2.38000 ps :
     Properties:                   Instantaneous       Averaged
       Kinetic energy    (eV) =      12.077451         11.953160
       Potential energy  (eV) =     -75.181740        -79.211035
       Total energy      (eV) =     -63.104289        -67.257874
       Temperature       (K)  =    3014.039814       2983.021972
       Pressure         (GPa) =      26.582919         22.289230
  ** Time :            2.40000 ps :
     Properties:                   Instantaneous       Averaged
       Kinetic energy    (eV) =      12.174343         11.955003
       Potential energy  (eV) =     -76.739968        -79.190442
       Total energy      (eV) =     -64.565625        -67.235439
       Temperature       (K)  =    3038.220172       2983.481957
       Pressure         (GPa) =      25.514922         22.316111
  ** Time :            2.42000 ps :
     Properties:                   Instantaneous       Averaged
       Kinetic energy    (eV) =      12.202064         11.957045
       Potential energy  (eV) =     -79.079609        -79.189526
       Total energy      (eV) =     -66.877545        -67.232481
       Temperature       (K)  =    3045.138157       2983.991513
       Pressure         (GPa) =      23.091836         22.322522
  ** Time :            2.44000 ps :
     Properties:                   Instantaneous       Averaged
       Kinetic energy    (eV) =      11.934273         11.956859
       Potential energy  (eV) =     -79.978910        -79.195997
       Total energy      (eV) =     -68.044637        -67.239138
       Temperature       (K)  =    2978.308469       2983.944930
       Pressure         (GPa) =      21.803492         22.318267
  ** Time :            2.46000 ps :
     Properties:                   Instantaneous       Averaged
       Kinetic energy    (eV) =      12.034036         11.957486
       Potential energy  (eV) =     -79.515629        -79.198595
       Total energy      (eV) =     -67.481593        -67.241109
       Temperature       (K)  =    3003.205301       2984.101519
       Pressure         (GPa) =      22.054847         22.316126
  ** Time :            2.48000 ps :
     Properties:                   Instantaneous       Averaged
       Kinetic energy    (eV) =      11.979720         11.957665
       Potential energy  (eV) =     -80.158452        -79.206336
       Total energy      (eV) =     -68.178731        -67.248671
       Temperature       (K)  =    2989.650307       2984.146267
       Pressure         (GPa) =      21.669929         22.310914
  ** Time :            2.50000 ps :
     Properties:                   Instantaneous       Averaged
       Kinetic energy    (eV) =      12.057908         11.958467
       Potential energy  (eV) =     -80.359348        -79.215560
       Total energy      (eV) =     -68.301440        -67.257093
       Temperature       (K)  =    3009.162752       2984.346399
       Pressure         (GPa) =      21.268092         22.302572
  ** Time :            2.52000 ps :
     Properties:                   Instantaneous       Averaged
       Kinetic energy    (eV) =      12.009360         11.958871
       Potential energy  (eV) =     -80.974822        -79.229523
       Total energy      (eV) =     -68.965462        -67.270651
       Temperature       (K)  =    2997.047191       2984.447199
       Pressure         (GPa) =      20.194553         22.285841
  ** Time :            2.54000 ps :
     Properties:                   Instantaneous       Averaged
       Kinetic energy    (eV) =      11.956092         11.958849
       Potential energy  (eV) =     -81.043023        -79.243802
       Total energy      (eV) =     -69.086931        -67.284953
       Temperature       (K)  =    2983.753695       2984.441738
       Pressure         (GPa) =      20.003596         22.267871
  ** Time :            2.56000 ps :
     Properties:                   Instantaneous       Averaged
       Kinetic energy    (eV) =      11.903940         11.958420
       Potential energy  (eV) =     -80.361983        -79.252538
       Total energy      (eV) =     -68.458043        -67.294118
       Temperature       (K)  =    2970.738566       2984.334682
       Pressure         (GPa) =      21.181222         22.259382
  ** Time :            2.58000 ps :
     Properties:                   Instantaneous       Averaged
       Kinetic energy    (eV) =      11.672334         11.956203
       Potential energy  (eV) =     -78.300900        -79.245161
       Total energy      (eV) =     -66.628566        -67.288958
       Temperature       (K)  =    2912.939129       2983.781228
       Pressure         (GPa) =      23.656022         22.270208
  ** Time :            2.60000 ps :
     Properties:                   Instantaneous       Averaged
       Kinetic energy    (eV) =      12.123450         11.957489
       Potential energy  (eV) =     -78.796943        -79.241713
       Total energy      (eV) =     -66.673493        -67.284224
       Temperature       (K)  =    3025.519408       2984.102291
       Pressure         (GPa) =      23.324250         22.278316
  ** Time :            2.62000 ps :
     Properties:                   Instantaneous       Averaged
       Kinetic energy    (eV) =      12.058291         11.958259
       Potential energy  (eV) =     -79.373008        -79.242715
       Total energy      (eV) =     -67.314716        -67.284457
       Temperature       (K)  =    3009.258408       2984.294323
       Pressure         (GPa) =      22.138472         22.277249
  ** Time :            2.64000 ps :
     Properties:                   Instantaneous       Averaged
       Kinetic energy    (eV) =      11.953305         11.958221
       Potential energy  (eV) =     -80.467725        -79.251996
       Total energy      (eV) =     -68.514420        -67.293775
       Temperature       (K)  =    2983.058007       2984.284957
       Pressure         (GPa) =      20.806324         22.266105
  ** Time :            2.66000 ps :
     Properties:                   Instantaneous       Averaged
       Kinetic energy    (eV) =      11.639695         11.955826
       Potential energy  (eV) =     -78.409259        -79.245659
       Total energy      (eV) =     -66.769564        -67.289833
       Temperature       (K)  =    2904.793807       2983.687279
       Pressure         (GPa) =      23.134212         22.272633
  ** Time :            2.68000 ps :
     Properties:                   Instantaneous       Averaged
       Kinetic energy    (eV) =      11.828954         11.954879
       Potential energy  (eV) =     -75.479355        -79.217553
       Total energy      (eV) =     -63.650400        -67.262673
       Temperature       (K)  =    2952.025238       2983.450995
       Pressure         (GPa) =      26.367805         22.303194
  ** Time :            2.70000 ps :
     Properties:                   Instantaneous       Averaged
       Kinetic energy    (eV) =      12.187500         11.956602
       Potential energy  (eV) =     -76.467620        -79.197183
       Total energy      (eV) =     -64.280119        -67.240580
       Temperature       (K)  =    3041.503715       2983.881015
       Pressure         (GPa) =      25.496722         22.326849
  ** Time :            2.72000 ps :
     Properties:                   Instantaneous       Averaged
       Kinetic energy    (eV) =      12.105282         11.957696
       Potential energy  (eV) =     -78.308402        -79.190648
       Total energy      (eV) =     -66.203120        -67.232952
       Temperature       (K)  =    3020.985348       2984.153841
       Pressure         (GPa) =      23.642216         22.336521
  ** Time :            2.74000 ps :
     Properties:                   Instantaneous       Averaged
       Kinetic energy    (eV) =      11.984446         11.957891
       Potential energy  (eV) =     -79.066009        -79.189738
       Total energy      (eV) =     -67.081563        -67.231847
       Temperature       (K)  =    2990.829607       2984.202569
       Pressure         (GPa) =      22.599140         22.338438
  ** Time :            2.76000 ps :
     Properties:                   Instantaneous       Averaged
       Kinetic energy    (eV) =      11.956841         11.957883
       Potential energy  (eV) =     -78.739695        -79.186477
       Total energy      (eV) =     -66.782854        -67.228593
       Temperature       (K)  =    2983.940531       2984.200670
       Pressure         (GPa) =      22.654952         22.340732
  ** Time :            2.78000 ps :
     Properties:                   Instantaneous       Averaged
       Kinetic energy    (eV) =      11.734254         11.956274
       Potential energy  (eV) =     -77.738339        -79.176058
       Total energy      (eV) =     -66.004084        -67.219784
       Temperature       (K)  =    2928.392017       2983.799169
       Pressure         (GPa) =      24.017569         22.352795
  ** Time :            2.80000 ps :
     Properties:                   Instantaneous       Averaged
       Kinetic energy    (eV) =      11.792515         11.955105
       Potential energy  (eV) =     -74.982220        -79.146102
       Total energy      (eV) =     -63.189705        -67.190998
       Temperature       (K)  =    2942.931361       2983.507256
       Pressure         (GPa) =      26.683568         22.383729
  ** Time :            2.82000 ps :
     Properties:                   Instantaneous       Averaged
       Kinetic energy    (eV) =      12.541888         11.959266
       Potential energy  (eV) =     -78.436396        -79.141069
       Total energy      (eV) =     -65.894508        -67.181803
       Temperature       (K)  =    3129.944360       2984.545817
       Pressure         (GPa) =      23.245800         22.389843
  ** Time :            2.84000 ps :
     Properties:                   Instantaneous       Averaged
       Kinetic energy    (eV) =      11.952749         11.959220
       Potential energy  (eV) =     -81.238719        -79.155841
       Total energy      (eV) =     -69.285970        -67.196621
       Temperature       (K)  =    2982.919256       2984.534363
       Pressure         (GPa) =      20.177979         22.374267
  ** Time :            2.86000 ps :
     Properties:                   Instantaneous       Averaged
       Kinetic energy    (eV) =      11.968964         11.959289
       Potential energy  (eV) =     -80.314294        -79.163942
       Total energy      (eV) =     -68.345330        -67.204654
       Temperature       (K)  =    2986.966052       2984.551368
       Pressure         (GPa) =      20.773067         22.363070
  ** Time :            2.88000 ps :
     Properties:                   Instantaneous       Averaged
       Kinetic energy    (eV) =      12.089682         11.960194
       Potential energy  (eV) =     -81.363103        -79.179214
       Total energy      (eV) =     -69.273421        -67.219020
       Temperature       (K)  =    3017.092260       2984.777346
       Pressure         (GPa) =      19.420915         22.342638
  ** Time :            2.90000 ps :
     Properties:                   Instantaneous       Averaged
       Kinetic energy    (eV) =      11.901442         11.959789
       Potential energy  (eV) =     -81.271413        -79.193643
       Total energy      (eV) =     -69.369971        -67.233854
       Temperature       (K)  =    2970.115201       2984.676228
       Pressure         (GPa) =      19.363106         22.322089
  ** Time :            2.92000 ps :
     Properties:                   Instantaneous       Averaged
       Kinetic energy    (eV) =      11.781138         11.958565
       Potential energy  (eV) =     -80.196204        -79.200510
       Total energy      (eV) =     -68.415066        -67.241945
       Temperature       (K)  =    2940.092318       2984.370859
       Pressure         (GPa) =      21.157619         22.314114
  ** Time :            2.94000 ps :
     Properties:                   Instantaneous       Averaged
       Kinetic energy    (eV) =      11.948245         11.958495
       Potential energy  (eV) =     -78.746295        -79.197420
       Total energy      (eV) =     -66.798050        -67.238925
       Temperature       (K)  =    2981.795376       2984.353338
       Pressure         (GPa) =      23.258674         22.320539
  ** Time :            2.96000 ps :
     Properties:                   Instantaneous       Averaged
       Kinetic energy    (eV) =      12.077225         11.959297
       Potential energy  (eV) =     -79.657886        -79.200531
       Total energy      (eV) =     -67.580661        -67.241234
       Temperature       (K)  =    3013.983405       2984.553541
       Pressure         (GPa) =      22.614803         22.322527
  ** Time :            2.98000 ps :
     Properties:                   Instantaneous       Averaged
       Kinetic energy    (eV) =      11.924845         11.959066
       Potential energy  (eV) =     -79.863682        -79.204982
       Total energy      (eV) =     -67.938836        -67.245916
       Temperature       (K)  =    2975.955765       2984.495838
       Pressure         (GPa) =      22.473251         22.323539
  ** Time :            3.00000 ps :
     Properties:                   Instantaneous       Averaged
       Kinetic energy    (eV) =      11.947712         11.958990
       Potential energy  (eV) =     -79.660822        -79.208021
       Total energy      (eV) =     -67.713110        -67.249031
       Temperature       (K)  =    2981.662373       2984.476948
       Pressure         (GPa) =      22.496910         22.324695
  ** Time :            3.02000 ps :
     Properties:                   Instantaneous       Averaged
       Kinetic energy    (eV) =      12.113007         11.960010
       Potential energy  (eV) =     -79.838601        -79.212197
       Total energy      (eV) =     -67.725594        -67.252187
       Temperature       (K)  =    3022.913129       2984.731493
       Pressure         (GPa) =      21.478711         22.319092
  ** Time :            3.04000 ps :
     Properties:                   Instantaneous       Averaged
       Kinetic energy    (eV) =      11.964706         11.960041
       Potential energy  (eV) =     -81.414310        -79.226685
       Total energy      (eV) =     -69.449604        -67.266643
       Temperature       (K)  =    2985.903370       2984.739202
       Pressure         (GPa) =      19.367049         22.299671
  ** Time :            3.06000 ps :
     Properties:                   Instantaneous       Averaged
       Kinetic energy    (eV) =      11.651412         11.958024
       Potential energy  (eV) =     -79.221762        -79.226652
       Total energy      (eV) =     -67.570350        -67.268628
       Temperature       (K)  =    2907.717892       2984.235795
       Pressure         (GPa) =      21.362005         22.293542
  ** Time :            3.08000 ps :
     Properties:                   Instantaneous       Averaged
       Kinetic energy    (eV) =      12.056200         11.958662
       Potential energy  (eV) =     -77.905669        -79.218075
       Total energy      (eV) =     -65.849469        -67.259413
       Temperature       (K)  =    3008.736450       2984.394890
       Pressure         (GPa) =      23.022959         22.298279
  ** Time :            3.10000 ps :
     Properties:                   Instantaneous       Averaged
       Kinetic energy    (eV) =      12.085208         11.959478
       Potential energy  (eV) =     -79.302128        -79.218617
       Total energy      (eV) =     -67.216920        -67.259139
       Temperature       (K)  =    3015.975667       2984.598637
       Pressure         (GPa) =      22.005137         22.296388
  ** Time :            3.12000 ps :
     Properties:                   Instantaneous       Averaged
       Kinetic energy    (eV) =      11.857659         11.958825
       Potential energy  (eV) =     -79.339488        -79.219392
       Total energy      (eV) =     -67.481829        -67.260566
       Temperature       (K)  =    2959.188778       2984.435754
       Pressure         (GPa) =      21.986751         22.294403
  ** Time :            3.14000 ps :
     Properties:                   Instantaneous       Averaged
       Kinetic energy    (eV) =      12.074720         11.959563
       Potential energy  (eV) =     -78.778255        -79.216582
       Total energy      (eV) =     -66.703535        -67.257018
       Temperature       (K)  =    3013.358289       2984.619974
       Pressure         (GPa) =      22.210531         22.293869
  ** Time :            3.16000 ps :
     Properties:                   Instantaneous       Averaged
       Kinetic energy    (eV) =      11.887061         11.959105
       Potential energy  (eV) =     -79.860930        -79.220660
       Total energy      (eV) =     -67.973869        -67.261555
       Temperature       (K)  =    2966.526220       2984.505456
       Pressure         (GPa) =      21.393826         22.288172
  ** Time :            3.18000 ps :
     Properties:                   Instantaneous       Averaged
       Kinetic energy    (eV) =      11.876760         11.958587
       Potential energy  (eV) =     -77.938765        -79.212598
       Total energy      (eV) =     -66.062005        -67.254011
       Temperature       (K)  =    2963.955633       2984.376212
       Pressure         (GPa) =      23.388571         22.295093
  ** Time :            3.20000 ps :
     Properties:                   Instantaneous       Averaged
       Kinetic energy    (eV) =      12.071580         11.959293
       Potential energy  (eV) =     -78.894346        -79.210609
       Total energy      (eV) =     -66.822766        -67.251316
       Temperature       (K)  =    3012.574629       2984.552452
       Pressure         (GPa) =      22.732442         22.297826
  ** Time :            3.22000 ps :
     Properties:                   Instantaneous       Averaged
       Kinetic energy    (eV) =      11.975622         11.959394
       Potential energy  (eV) =     -79.302269        -79.211178
       Total energy      (eV) =     -67.326647        -67.251784
       Temperature       (K)  =    2988.627535       2984.577763
       Pressure         (GPa) =      22.479570         22.298955
  ** Time :            3.24000 ps :
     Properties:                   Instantaneous       Averaged
       Kinetic energy    (eV) =      11.983508         11.959543
       Potential energy  (eV) =     -79.140338        -79.210741
       Total energy      (eV) =     -67.156830        -67.251198
       Temperature       (K)  =    2990.595616       2984.614910
       Pressure         (GPa) =      22.765301         22.301834
  ** Time :            3.26000 ps :
     Properties:                   Instantaneous       Averaged
       Kinetic energy    (eV) =      11.892079         11.959129
       Potential energy  (eV) =     -78.999709        -79.209446
       Total energy      (eV) =     -67.107630        -67.250317
       Temperature       (K)  =    2967.778603       2984.511620
       Pressure         (GPa) =      22.793737         22.304852
  ** Time :            3.28000 ps :
     Properties:                   Instantaneous       Averaged
       Kinetic energy    (eV) =      12.120462         11.960113
[...]
       Total energy      (eV) =     -64.779571        -64.776937
       Temperature       (K)  =    3357.222691       3318.480501
       Pressure         (GPa) =      23.241721         23.911167
  ** Time :            9.14000 ps :
     Properties:                   Instantaneous       Averaged
       Kinetic energy    (eV) =      14.692830         13.300418
       Potential energy  (eV) =     -79.472262        -78.077360
       Total energy      (eV) =     -64.779432        -64.776943
       Temperature       (K)  =    3666.732078       3319.242539
       Pressure         (GPa) =      22.635498         23.908375
  ** Time :            9.16000 ps :
     Properties:                   Instantaneous       Averaged
       Kinetic energy    (eV) =      14.567274         13.303184
       Potential energy  (eV) =     -79.347641        -78.080134
       Total energy      (eV) =     -64.780367        -64.776950
       Temperature       (K)  =    3635.398438       3319.932836
       Pressure         (GPa) =      23.464032         23.907405
  ** Time :            9.18000 ps :
     Properties:                   Instantaneous       Averaged
       Kinetic energy    (eV) =      11.758227         13.299818
       Potential energy  (eV) =     -76.526943        -78.076750
       Total energy      (eV) =     -64.768716        -64.776932
       Temperature       (K)  =    2934.374688       3319.092840
       Pressure         (GPa) =      26.448931         23.912942
  ** Time :            9.20000 ps :
     Properties:                   Instantaneous       Averaged
       Kinetic energy    (eV) =      11.205842         13.295266
       Potential energy  (eV) =     -75.978044        -78.072187
       Total energy      (eV) =     -64.772201        -64.776922
       Temperature       (K)  =    2796.521869       3317.956816
       Pressure         (GPa) =      26.767446         23.919148
  ** Time :            9.22000 ps :
     Properties:                   Instantaneous       Averaged
       Kinetic energy    (eV) =      11.206313         13.290734
       Potential energy  (eV) =     -75.987590        -78.067665
       Total energy      (eV) =     -64.781277        -64.776931
       Temperature       (K)  =    2796.639288       3316.825976
       Pressure         (GPa) =      26.127164         23.923937
  ** Time :            9.24000 ps :
     Properties:                   Instantaneous       Averaged
       Kinetic energy    (eV) =      10.004601         13.283621
       Potential energy  (eV) =     -74.770634        -78.060529
       Total energy      (eV) =     -64.766033        -64.776908
       Temperature       (K)  =    2496.741024       3315.050900
       Pressure         (GPa) =      26.498357         23.929510
  ** Time :            9.26000 ps :
     Properties:                   Instantaneous       Averaged
       Kinetic energy    (eV) =      11.976864         13.280799
       Potential energy  (eV) =     -76.762590        -78.057726
       Total energy      (eV) =     -64.785726        -64.776927
       Temperature       (K)  =    2988.937575       3314.346552
       Pressure         (GPa) =      24.883031         23.931569
  ** Time :            9.28000 ps :
     Properties:                   Instantaneous       Averaged
       Kinetic energy    (eV) =      12.858146         13.279888
       Potential energy  (eV) =     -77.632813        -78.056810
       Total energy      (eV) =     -64.774667        -64.776922
       Temperature       (K)  =    3208.869695       3314.119231
       Pressure         (GPa) =      24.018429         23.931756
  ** Time :            9.30000 ps :
     Properties:                   Instantaneous       Averaged
       Kinetic energy    (eV) =      13.066078         13.279428
       Potential energy  (eV) =     -77.840467        -78.056345
       Total energy      (eV) =     -64.774389        -64.776916
       Temperature       (K)  =    3260.760965       3314.004482
       Pressure         (GPa) =      23.836196         23.931551
  ** Time :            9.32000 ps :
     Properties:                   Instantaneous       Averaged
       Kinetic energy    (eV) =      13.173605         13.279201
       Potential energy  (eV) =     -77.947584        -78.056111
       Total energy      (eV) =     -64.773979        -64.776910
       Temperature       (K)  =    3287.595284       3313.947810
       Pressure         (GPa) =      23.793159         23.931254
  ** Time :            9.34000 ps :
     Properties:                   Instantaneous       Averaged
       Kinetic energy    (eV) =      13.024144         13.278655
       Potential energy  (eV) =     -77.795045        -78.055552
       Total energy      (eV) =     -64.770901        -64.776897
       Temperature       (K)  =    3250.295887       3313.811510
       Pressure         (GPa) =      23.645233         23.930641
  ** Time :            9.36000 ps :
     Properties:                   Instantaneous       Averaged
       Kinetic energy    (eV) =      14.493611         13.281251
       Potential energy  (eV) =     -79.280210        -78.058169
       Total energy      (eV) =     -64.786599        -64.776918
       Temperature       (K)  =    3617.015049       3314.459381
       Pressure         (GPa) =      22.101971         23.926734
  ** Time :            9.38000 ps :
     Properties:                   Instantaneous       Averaged
       Kinetic energy    (eV) =      14.614092         13.284093
       Potential energy  (eV) =     -79.391334        -78.061012
       Total energy      (eV) =     -64.777242        -64.776919
       Temperature       (K)  =    3647.082100       3315.168598
       Pressure         (GPa) =      22.039462         23.922710
  ** Time :            9.40000 ps :
     Properties:                   Instantaneous       Averaged
       Kinetic energy    (eV) =      13.470093         13.284489
       Potential energy  (eV) =     -78.241177        -78.061395
       Total energy      (eV) =     -64.771084        -64.776906
       Temperature       (K)  =    3361.586574       3315.267359
       Pressure         (GPa) =      23.339450         23.921469
  ** Time :            9.42000 ps :
     Properties:                   Instantaneous       Averaged
       Kinetic energy    (eV) =      13.829744         13.285646
       Potential energy  (eV) =     -78.605508        -78.062550
       Total energy      (eV) =     -64.775765        -64.776904
       Temperature       (K)  =    3451.340777       3315.556263
       Pressure         (GPa) =      23.266480         23.920078
  ** Time :            9.44000 ps :
     Properties:                   Instantaneous       Averaged
       Kinetic energy    (eV) =      12.417477         13.283807
       Potential energy  (eV) =     -77.206981        -78.060738
       Total energy      (eV) =     -64.789505        -64.776931
       Temperature       (K)  =    3098.896434       3315.097238
       Pressure         (GPa) =      24.779985         23.921900
  ** Time :            9.46000 ps :
     Properties:                   Instantaneous       Averaged
       Kinetic energy    (eV) =       9.033972         13.274822
       Potential energy  (eV) =     -73.790455        -78.051709
       Total energy      (eV) =     -64.756483        -64.776887
       Temperature       (K)  =    2254.511368       3312.854984
       Pressure         (GPa) =      27.468038         23.929397
  ** Time :            9.48000 ps :
     Properties:                   Instantaneous       Averaged
       Kinetic energy    (eV) =      10.826668         13.269657
       Potential energy  (eV) =     -75.612613        -78.046564
       Total energy      (eV) =     -64.785944        -64.776906
       Temperature       (K)  =    2701.895443       3311.566040
       Pressure         (GPa) =      26.383199         23.934574
  ** Time :            9.50000 ps :
     Properties:                   Instantaneous       Averaged
       Kinetic energy    (eV) =      11.719645         13.266394
       Potential energy  (eV) =     -76.483386        -78.043273
       Total energy      (eV) =     -64.763740        -64.776879
       Temperature       (K)  =    2924.746214       3310.751683
       Pressure         (GPa) =      25.528246         23.937929
  ** Time :            9.52000 ps :
     Properties:                   Instantaneous       Averaged
       Kinetic energy    (eV) =      15.277427         13.270619
       Potential energy  (eV) =     -80.069074        -78.047529
       Total energy      (eV) =     -64.791647        -64.776910
       Temperature       (K)  =    3812.623487       3311.806035
       Pressure         (GPa) =      22.148134         23.934169
  ** Time :            9.54000 ps :
     Properties:                   Instantaneous       Averaged
       Kinetic energy    (eV) =      16.192452         13.276744
       Potential energy  (eV) =     -80.970337        -78.053656
       Total energy      (eV) =     -64.777885        -64.776912
       Temperature       (K)  =    4040.976642       3313.334695
       Pressure         (GPa) =      20.796379         23.927591
  ** Time :            9.56000 ps :
     Properties:                   Instantaneous       Averaged
       Kinetic energy    (eV) =      15.095765         13.280550
       Potential energy  (eV) =     -79.877085        -78.057471
       Total energy      (eV) =     -64.781320        -64.776921
       Temperature       (K)  =    3767.288132       3314.284388
       Pressure         (GPa) =      22.047472         23.923658
  ** Time :            9.58000 ps :
     Properties:                   Instantaneous       Averaged
       Kinetic energy    (eV) =      12.744877         13.279432
       Potential energy  (eV) =     -77.514592        -78.056338
       Total energy      (eV) =     -64.769715        -64.776906
       Temperature       (K)  =    3180.602262       3314.005302
       Pressure         (GPa) =      24.400793         23.924654
  ** Time :            9.60000 ps :
     Properties:                   Instantaneous       Averaged
       Kinetic energy    (eV) =      12.668600         13.278159
       Potential energy  (eV) =     -77.449213        -78.055073
       Total energy      (eV) =     -64.780613        -64.776914
       Temperature       (K)  =    3161.566659       3313.687722
       Pressure         (GPa) =      24.666895         23.926200
  ** Time :            9.62000 ps :
     Properties:                   Instantaneous       Averaged
       Kinetic energy    (eV) =      13.323805         13.278254
       Potential energy  (eV) =     -78.102886        -78.055172
       Total energy      (eV) =     -64.779081        -64.776918
       Temperature       (K)  =    3325.079147       3313.711404
       Pressure         (GPa) =      24.094824         23.926551
  ** Time :            9.64000 ps :
     Properties:                   Instantaneous       Averaged
       Kinetic energy    (eV) =      13.661784         13.279050
       Potential energy  (eV) =     -78.445984        -78.055983
       Total energy      (eV) =     -64.784199        -64.776933
       Temperature       (K)  =    3409.424945       3313.909980
       Pressure         (GPa) =      23.961856         23.926624
  ** Time :            9.66000 ps :
     Properties:                   Instantaneous       Averaged
       Kinetic energy    (eV) =      13.894538         13.280324
       Potential energy  (eV) =     -78.668536        -78.057251
       Total energy      (eV) =     -64.773998        -64.776927
       Temperature       (K)  =    3467.510847       3314.227994
       Pressure         (GPa) =      23.717156         23.926190
  ** Time :            9.68000 ps :
     Properties:                   Instantaneous       Averaged
       Kinetic energy    (eV) =      14.825051         13.283516
       Potential energy  (eV) =     -79.613020        -78.060466
       Total energy      (eV) =     -64.787968        -64.776950
       Temperature       (K)  =    3699.729068       3315.024484
       Pressure         (GPa) =      22.751306         23.923763
  ** Time :            9.70000 ps :
     Properties:                   Instantaneous       Averaged
       Kinetic energy    (eV) =      13.112351         13.283163
       Potential energy  (eV) =     -77.890033        -78.060114
       Total energy      (eV) =     -64.777682        -64.776952
       Temperature       (K)  =    3272.308701       3314.936410
       Pressure         (GPa) =      24.177347         23.924286
  ** Time :            9.72000 ps :
     Properties:                   Instantaneous       Averaged
       Kinetic energy    (eV) =      12.131448         13.280793
       Potential energy  (eV) =     -76.911685        -78.057751
       Total energy      (eV) =     -64.780237        -64.776958
       Temperature       (K)  =    3027.515326       3314.345009
       Pressure         (GPa) =      25.313346         23.927144
  ** Time :            9.74000 ps :
     Properties:                   Instantaneous       Averaged
       Kinetic energy    (eV) =      12.238544         13.278653
       Potential energy  (eV) =     -77.001247        -78.055582
       Total energy      (eV) =     -64.762703        -64.776929
       Temperature       (K)  =    3054.242188       3313.810917
       Pressure         (GPa) =      24.957684         23.929260
  ** Time :            9.76000 ps :
     Properties:                   Instantaneous       Averaged
       Kinetic energy    (eV) =      16.637486         13.285536
       Potential energy  (eV) =     -81.431281        -78.062499
       Total energy      (eV) =     -64.793796        -64.776964
       Temperature       (K)  =    4152.038814       3315.528597
       Pressure         (GPa) =      20.956351         23.923168
  ** Time :            9.78000 ps :
     Properties:                   Instantaneous       Averaged
       Kinetic energy    (eV) =      16.559039         13.292230
       Potential energy  (eV) =     -81.339502        -78.069201
       Total energy      (eV) =     -64.780463        -64.776971
       Temperature       (K)  =    4132.461679       3317.199217
       Pressure         (GPa) =      21.256855         23.917715
  ** Time :            9.80000 ps :
     Properties:                   Instantaneous       Averaged
       Kinetic energy    (eV) =      14.871993         13.295454
       Potential energy  (eV) =     -79.648569        -78.072424
       Total energy      (eV) =     -64.776576        -64.776970
       Temperature       (K)  =    3711.443737       3318.003798
       Pressure         (GPa) =      23.063090         23.915971
  ** Time :            9.82000 ps :
     Properties:                   Instantaneous       Averaged
       Kinetic energy    (eV) =      14.516558         13.297941
       Potential energy  (eV) =     -79.298740        -78.074921
       Total energy      (eV) =     -64.782182        -64.776981
       Temperature       (K)  =    3622.741690       3318.624445
       Pressure         (GPa) =      23.178281         23.914469
  ** Time :            9.84000 ps :
     Properties:                   Instantaneous       Averaged
       Kinetic energy    (eV) =      14.117790         13.299607
       Potential energy  (eV) =     -78.893495        -78.076585
       Total energy      (eV) =     -64.775705        -64.776978
       Temperature       (K)  =    3523.225532       3319.040301
       Pressure         (GPa) =      23.396960         23.913417
  ** Time :            9.86000 ps :
     Properties:                   Instantaneous       Averaged
       Kinetic energy    (eV) =      14.649463         13.302345
       Potential energy  (eV) =     -79.427717        -78.079326
       Total energy      (eV) =     -64.778254        -64.776981
       Temperature       (K)  =    3655.909350       3319.723605
       Pressure         (GPa) =      23.128295         23.911824
  ** Time :            9.88000 ps :
     Properties:                   Instantaneous       Averaged
       Kinetic energy    (eV) =      14.974517         13.305730
       Potential energy  (eV) =     -79.762929        -78.082734
       Total energy      (eV) =     -64.788413        -64.777004
       Temperature       (K)  =    3737.029543       3320.568354
       Pressure         (GPa) =      23.140221         23.910262
  ** Time :            9.90000 ps :
     Properties:                   Instantaneous       Averaged
       Kinetic energy    (eV) =      14.439050         13.308020
       Potential energy  (eV) =     -79.212795        -78.085017
       Total energy      (eV) =     -64.773745        -64.776997
       Temperature       (K)  =    3603.398861       3321.139729
       Pressure         (GPa) =      23.551611         23.909538
  ** Time :            9.92000 ps :
     Properties:                   Instantaneous       Averaged
       Kinetic energy    (eV) =      14.624211         13.310673
       Potential energy  (eV) =     -79.415128        -78.087698
       Total energy      (eV) =     -64.790918        -64.777025
       Temperature       (K)  =    3649.607403       3321.801962
       Pressure         (GPa) =      23.208941         23.908125
  ** Time :            9.94000 ps :
     Properties:                   Instantaneous       Averaged
       Kinetic energy    (eV) =      11.902214         13.307839
       Potential energy  (eV) =     -76.673920        -78.084854
       Total energy      (eV) =     -64.771706        -64.777014
       Temperature       (K)  =    2970.307838       3321.094730
       Pressure         (GPa) =      25.097822         23.910519
  ** Time :            9.96000 ps :
     Properties:                   Instantaneous       Averaged
       Kinetic energy    (eV) =      12.742018         13.306703
       Potential energy  (eV) =     -77.512937        -78.083705
       Total energy      (eV) =     -64.770919        -64.777002
       Temperature       (K)  =    3179.888677       3320.811184
       Pressure         (GPa) =      24.011817         23.910722
  ** Time :            9.98000 ps :
     Properties:                   Instantaneous       Averaged
       Kinetic energy    (eV) =      16.123897         13.312349
       Potential energy  (eV) =     -80.920213        -78.089390
       Total energy      (eV) =     -64.796316        -64.777041
       Temperature       (K)  =    4023.867905       3322.220115
       Pressure         (GPa) =      21.278076         23.905447
  ** Time :           10.00000 ps :
     Properties:                   Instantaneous       Averaged
       Kinetic energy    (eV) =      13.420600         13.312565
       Potential energy  (eV) =     -78.198858        -78.089609
       Total energy      (eV) =     -64.778258        -64.777043
       Temperature       (K)  =    3349.235125       3322.274145
       Pressure         (GPa) =      23.803782         23.905243

  Peak dynamic memory used =       0.57 MB 


  Timing analysis for GULP :

--------------------------------------------------------------------------------
  Task / Subroutine                                          Time (Seconds)
--------------------------------------------------------------------------------
  Calculation of real space energy and derivatives                5.2440
  Calculation of many-body energy and derivatives                 2.8720
  Molecular dynamics - update of geometry                         0.0160
  Molecular dynamics - velocity correction                        0.0080
--------------------------------------------------------------------------------
  Total CPU time                                                  8.4120
--------------------------------------------------------------------------------


  Dump file written as Recovery_2_3000_0.004.res                               
  GULP ASCII trajectory file written as Trajectories_2_3000_0.004.trg           


  Job Finished at 17:40.33 17th May        2018                               

