********************************************************************************
*                       GENERAL UTILITY LATTICE PROGRAM                        *
*                                 Julian Gale                                  *
*                       Curtin Institute for Computation                       *
*                           Department of Chemistry                            *
*                    Curtin University, Western Australia                      *
********************************************************************************
* Version = 5.0.0 * Last modified =  18th April 2018                           *
********************************************************************************
*  single       - perform a single point run                                   *
*  md           - perform molecular dynamics run                               *
*  conv         - constant volume calculation                                  *
********************************************************************************
* molecular dynamics of silver                                                 *
********************************************************************************


  Job Started  at 17:42.10 17th May        2018                               

  Number of CPUs =     1


  Total number of configurations input =   1

********************************************************************************
*  Input for Configuration =   1                                               *
********************************************************************************

  Formula = Ag32                                                        

  Number of irreducible atoms/shells =      32


  Total number atoms/shells =      32

  Dimensionality = 3               :  Bulk   



  Supercell dimensions :  x =   2  y =   2  z =   2

  Cartesian lattice vectors (Angstroms) :

        8.170000    0.000000    0.000000
        0.000000    8.170000    0.000000
        0.000000    0.000000    8.170000

  Cell parameters (Angstroms/Degrees):

  a =       8.1700    alpha =  90.0000
  b =       8.1700    beta  =  90.0000
  c =       8.1700    gamma =  90.0000

  Initial cell volume =         545.338513 Angs**3

  Temperature of configuration =  3000.     K 

  Pressure of configuration =         0.000 GPa 

  Fractional coordinates of asymmetric unit :

--------------------------------------------------------------------------------
   No.  Atomic       x           y          z         Charge      Occupancy
        Label      (Frac)      (Frac)     (Frac)        (e)         (Frac)  
--------------------------------------------------------------------------------
      1 Ag    c    0.000000 *  0.000000 *  0.000000 *   0.00000    1.000000    
      2 Ag    c    0.000000 *  0.000000 *  0.500000 *   0.00000    1.000000    
      3 Ag    c    0.000000 *  0.500000 *  0.000000 *   0.00000    1.000000    
      4 Ag    c    0.000000 *  0.500000 *  0.500000 *   0.00000    1.000000    
      5 Ag    c    0.500000 *  0.000000 *  0.000000 *   0.00000    1.000000    
      6 Ag    c    0.500000 *  0.000000 *  0.500000 *   0.00000    1.000000    
      7 Ag    c    0.500000 *  0.500000 *  0.000000 *   0.00000    1.000000    
      8 Ag    c    0.500000 *  0.500000 *  0.500000 *   0.00000    1.000000    
      9 Ag    c    0.000000 *  0.250000 *  0.250000 *   0.00000    1.000000    
     10 Ag    c    0.000000 *  0.250000 *  0.750000 *   0.00000    1.000000    
     11 Ag    c    0.000000 *  0.750000 *  0.250000 *   0.00000    1.000000    
     12 Ag    c    0.000000 *  0.750000 *  0.750000 *   0.00000    1.000000    
     13 Ag    c    0.500000 *  0.250000 *  0.250000 *   0.00000    1.000000    
     14 Ag    c    0.500000 *  0.250000 *  0.750000 *   0.00000    1.000000    
     15 Ag    c    0.500000 *  0.750000 *  0.250000 *   0.00000    1.000000    
     16 Ag    c    0.500000 *  0.750000 *  0.750000 *   0.00000    1.000000    
     17 Ag    c    0.250000 *  0.000000 *  0.250000 *   0.00000    1.000000    
     18 Ag    c    0.250000 *  0.000000 *  0.750000 *   0.00000    1.000000    
     19 Ag    c    0.250000 *  0.500000 *  0.250000 *   0.00000    1.000000    
     20 Ag    c    0.250000 *  0.500000 *  0.750000 *   0.00000    1.000000    
     21 Ag    c    0.750000 *  0.000000 *  0.250000 *   0.00000    1.000000    
     22 Ag    c    0.750000 *  0.000000 *  0.750000 *   0.00000    1.000000    
     23 Ag    c    0.750000 *  0.500000 *  0.250000 *   0.00000    1.000000    
     24 Ag    c    0.750000 *  0.500000 *  0.750000 *   0.00000    1.000000    
     25 Ag    c    0.250000 *  0.250000 *  0.000000 *   0.00000    1.000000    
     26 Ag    c    0.250000 *  0.250000 *  0.500000 *   0.00000    1.000000    
     27 Ag    c    0.250000 *  0.750000 *  0.000000 *   0.00000    1.000000    
     28 Ag    c    0.250000 *  0.750000 *  0.500000 *   0.00000    1.000000    
     29 Ag    c    0.750000 *  0.250000 *  0.000000 *   0.00000    1.000000    
     30 Ag    c    0.750000 *  0.250000 *  0.500000 *   0.00000    1.000000    
     31 Ag    c    0.750000 *  0.750000 *  0.000000 *   0.00000    1.000000    
     32 Ag    c    0.750000 *  0.750000 *  0.500000 *   0.00000    1.000000    
--------------------------------------------------------------------------------



********************************************************************************
*  General input information                                                   *
********************************************************************************

  Species output for all configurations : 

--------------------------------------------------------------------------------
  Species    Type    Atomic    Atomic    Charge       Radii (Angs)     Library
                     Number     Mass       (e)     Cova   Ionic  VDW   Symbol
--------------------------------------------------------------------------------
    Ag       Core       47     107.87   0.000000   1.590  0.000  2.370          
--------------------------------------------------------------------------------


  Lattice summation method               =    Ewald          (3-D)
                                         =    Parry          (2-D)
                                         =    Saunders et al (1-D)
  Accuracy factor for lattice sums       =   12.000


  Time limit = Infinity

  Maximum range for interatomic potentials =    100000.000000 Angstroms

  General interatomic potentials :

--------------------------------------------------------------------------------
Atom  Types   Potential      Parameter       Value         Units   Cutoffs(Ang)
  1     2                                                            Min /  Max 
--------------------------------------------------------------------------------
Ag   c Ag   c Many-body                                             0.000  8.000
--------------------------------------------------------------------------------
Ag   c Ag   c Buckingham    Buckingham A     11454.950    eV        0.000 12.000
                            Buckingham rho  0.26432400    Ang       
                            Buckingham C     0.0000000    eV*Ang^6  
--------------------------------------------------------------------------------

  Embedded Atom Model Densities :

--------------------------------------------------------------------------------
  Atom(s)       Functional Form          A          B          C         n      
--------------------------------------------------------------------------------
  Ag   c        Exponential          1.388      2.173      2.889         0
--------------------------------------------------------------------------------


  Embedded Atom Model alloy parameters :

--------------------------------------------------------------------------------
  Atom(s)                          Scale factor 
--------------------------------------------------------------------------------
  Ag    c                            1.000000
--------------------------------------------------------------------------------

  Embedded Atom Model functional = Square Root

--------------------------------------------------------------------------------
  Atom                     A     
--------------------------------------------------------------------------------
  Ag    c               1.000000
--------------------------------------------------------------------------------


  Manybody second derivative cross term cutoffs to be scale by = 0.50000000

********************************************************************************
*  Output for configuration   1                                                *
********************************************************************************


  Components of energy : 

--------------------------------------------------------------------------------
  Interatomic potentials     =          39.71625760 eV    
  Many-body potentials       =        -134.45860512 eV    
  Monopole - monopole (real) =           0.00000000 eV    
  Monopole - monopole (recip)=           0.00000000 eV    
  Monopole - monopole (total)=           0.00000000 eV    
--------------------------------------------------------------------------------
  Total lattice energy       =         -94.74234752 eV    
--------------------------------------------------------------------------------
  Total lattice energy       =           -9141.1883 kJ/(mole unit cells)
--------------------------------------------------------------------------------

  Equations of motion will be integrated using the leapfrog Verlet algorithm.

********************************************************************************
*  Molecular Dynamics                                                          *
********************************************************************************

  Microcanonical ensemble (NVE) to be used

  No. of mobile ions        =                 32

  No. of degrees of freedom =                 93

  Time step                 =           0.005000 ps
  Equilibration time        =           5.000000 ps
  Production time           =          10.000000 ps
  Scaling time              =           5.000000 ps
  Scaling frequency         =           0.005000 ps
  Sampling frequency        =           0.020000 ps
  Write frequency           =           0.020000 ps
  TD-Force start time       =           0.000000 ps
  TD-Field start time       =           0.000000 ps



  Molecular dynamics equilibration :

  ** Time :            0.02000 ps :
     Properties:                   Instantaneous       Averaged
       Kinetic energy    (eV) =      11.540270         11.540270
       Potential energy  (eV) =     -93.382522        -93.382522
       Total energy      (eV) =     -81.842252        -81.842252
       Temperature       (K)  =    2879.981436       2879.981436
       Pressure         (GPa) =       4.197276          4.197276
  ** Time :            0.04000 ps :
     Properties:                   Instantaneous       Averaged
       Kinetic energy    (eV) =      10.842359         11.191315
       Potential energy  (eV) =     -86.909327        -90.145924
       Total energy      (eV) =     -76.066968        -78.954610
       Temperature       (K)  =    2705.811214       2792.896325
       Pressure         (GPa) =      12.259034          8.228155
  ** Time :            0.06000 ps :
     Properties:                   Instantaneous       Averaged
       Kinetic energy    (eV) =      11.749504         11.377378
       Potential energy  (eV) =     -81.118517        -87.136789
       Total energy      (eV) =     -69.369013        -75.759411
       Temperature       (K)  =    2932.197780       2839.330143
       Pressure         (GPa) =      19.460450         11.972253
  ** Time :            0.08000 ps :
     Properties:                   Instantaneous       Averaged
       Kinetic energy    (eV) =      11.903742         11.508969
       Potential energy  (eV) =     -81.355161        -85.691382
       Total energy      (eV) =     -69.451419        -74.182413
       Temperature       (K)  =    2970.689201       2872.169908
       Pressure         (GPa) =      19.558899         13.868915
  ** Time :            0.10000 ps :
     Properties:                   Instantaneous       Averaged
       Kinetic energy    (eV) =      11.770836         11.561342
       Potential energy  (eV) =     -79.966554        -84.546416
       Total energy      (eV) =     -68.195717        -72.985074
       Temperature       (K)  =    2937.521380       2885.240202
       Pressure         (GPa) =      20.892717         15.273675
  ** Time :            0.12000 ps :
     Properties:                   Instantaneous       Averaged
       Kinetic energy    (eV) =      11.777926         11.597440
       Potential energy  (eV) =     -78.924476        -83.609426
       Total energy      (eV) =     -67.146549        -72.011986
       Temperature       (K)  =    2939.290727       2894.248623
       Pressure         (GPa) =      22.442729         16.468518
  ** Time :            0.14000 ps :
     Properties:                   Instantaneous       Averaged
       Kinetic energy    (eV) =      11.589796         11.596348
       Potential energy  (eV) =     -76.643171        -82.614247
       Total energy      (eV) =     -65.053374        -71.017899
       Temperature       (K)  =    2892.341156       2893.976128
       Pressure         (GPa) =      24.877347         17.669779
  ** Time :            0.16000 ps :
     Properties:                   Instantaneous       Averaged
       Kinetic energy    (eV) =      12.205847         11.672535
       Potential energy  (eV) =     -76.379944        -81.834959
       Total energy      (eV) =     -64.174097        -70.162424
       Temperature       (K)  =    3046.082303       2912.989400
       Pressure         (GPa) =      25.178734         18.608398
  ** Time :            0.18000 ps :
     Properties:                   Instantaneous       Averaged
       Kinetic energy    (eV) =      12.200011         11.731144
       Potential energy  (eV) =     -79.300537        -81.553356
       Total energy      (eV) =     -67.100527        -69.822213
       Temperature       (K)  =    3044.625773       2927.615663
       Pressure         (GPa) =      22.203472         19.007851
  ** Time :            0.20000 ps :
     Properties:                   Instantaneous       Averaged
       Kinetic energy    (eV) =      11.888717         11.746901
       Potential energy  (eV) =     -79.672310        -81.365252
       Total energy      (eV) =     -67.783593        -69.618351
       Temperature       (K)  =    2966.939658       2931.548063
       Pressure         (GPa) =      21.539929         19.261059
  ** Time :            0.22000 ps :
     Properties:                   Instantaneous       Averaged
       Kinetic energy    (eV) =      11.955656         11.765879
       Potential energy  (eV) =     -79.209317        -81.169258
       Total energy      (eV) =     -67.253661        -69.403379
       Temperature       (K)  =    2983.644740       2936.284124
       Pressure         (GPa) =      21.863759         19.497668
  ** Time :            0.24000 ps :
     Properties:                   Instantaneous       Averaged
       Kinetic energy    (eV) =      12.076543         11.791767
       Potential energy  (eV) =     -79.778546        -81.053365
       Total energy      (eV) =     -67.702002        -69.261598
       Temperature       (K)  =    3013.813373       2942.744895
       Pressure         (GPa) =      21.266601         19.645079
  ** Time :            0.26000 ps :
     Properties:                   Instantaneous       Averaged
       Kinetic energy    (eV) =      11.944214         11.803494
       Potential energy  (eV) =     -80.433476        -81.005681
       Total energy      (eV) =     -68.489262        -69.202187
       Temperature       (K)  =    2980.789280       2945.671386
       Pressure         (GPa) =      20.589973         19.717763
  ** Time :            0.28000 ps :
     Properties:                   Instantaneous       Averaged
       Kinetic energy    (eV) =      11.991407         11.816916
       Potential energy  (eV) =     -80.212719        -80.949041
       Total energy      (eV) =     -68.221312        -69.132125
       Temperature       (K)  =    2992.566719       2949.021053
       Pressure         (GPa) =      20.655871         19.784771
  ** Time :            0.30000 ps :
     Properties:                   Instantaneous       Averaged
       Kinetic energy    (eV) =      11.778022         11.814323
       Potential energy  (eV) =     -80.293567        -80.905343
       Total energy      (eV) =     -68.515545        -69.091019
       Temperature       (K)  =    2939.314665       2948.373960
       Pressure         (GPa) =      20.953470         19.862684
  ** Time :            0.32000 ps :
     Properties:                   Instantaneous       Averaged
       Kinetic energy    (eV) =      11.557238         11.798256
       Potential energy  (eV) =     -77.435471        -80.688476
       Total energy      (eV) =     -65.878233        -68.890220
       Temperature       (K)  =    2884.216009       2944.364088
       Pressure         (GPa) =      24.098016         20.127392
  ** Time :            0.34000 ps :
     Properties:                   Instantaneous       Averaged
       Kinetic energy    (eV) =      12.206297         11.822258
       Potential energy  (eV) =     -77.584452        -80.505886
       Total energy      (eV) =     -65.378156        -68.683628
       Temperature       (K)  =    3046.194507       2950.354113
       Pressure         (GPa) =      24.144357         20.363684
  ** Time :            0.36000 ps :
     Properties:                   Instantaneous       Averaged
       Kinetic energy    (eV) =      11.641979         11.812242
       Potential energy  (eV) =     -77.555911        -80.341999
       Total energy      (eV) =     -65.913931        -68.529756
       Temperature       (K)  =    2905.363880       2947.854656
       Pressure         (GPa) =      23.796908         20.554419
  ** Time :            0.38000 ps :
     Properties:                   Instantaneous       Averaged
       Kinetic energy    (eV) =      12.148825         11.829957
       Potential energy  (eV) =     -77.048051        -80.168633
       Total energy      (eV) =     -64.899226        -68.338676
       Temperature       (K)  =    3031.851906       2952.275564
       Pressure         (GPa) =      24.314227         20.752304
  ** Time :            0.40000 ps :
     Properties:                   Instantaneous       Averaged
       Kinetic energy    (eV) =      11.871984         11.832059
       Potential energy  (eV) =     -78.397397        -80.080071
       Total energy      (eV) =     -66.525413        -68.248013
       Temperature       (K)  =    2962.763644       2952.799968
       Pressure         (GPa) =      23.359992         20.882688
  ** Time :            0.42000 ps :
     Properties:                   Instantaneous       Averaged
       Kinetic energy    (eV) =      11.947692         11.837565
       Potential energy  (eV) =     -77.370999        -79.951068
       Total energy      (eV) =     -65.423308        -68.113503
       Temperature       (K)  =    2981.657217       2954.174122
       Pressure         (GPa) =      24.247857         21.042934
  ** Time :            0.44000 ps :
     Properties:                   Instantaneous       Averaged
       Kinetic energy    (eV) =      12.128989         11.850812
       Potential energy  (eV) =     -78.955194        -79.905801
       Total energy      (eV) =     -66.826205        -68.054989
       Temperature       (K)  =    3026.901695       2957.479921
       Pressure         (GPa) =      22.030969         21.087845
  ** Time :            0.46000 ps :
     Properties:                   Instantaneous       Averaged
       Kinetic energy    (eV) =      11.980195         11.856437
       Potential energy  (eV) =     -79.624488        -79.893570
       Total energy      (eV) =     -67.644294        -68.037133
       Temperature       (K)  =    2989.768663       2958.883779
       Pressure         (GPa) =      20.907700         21.080013
  ** Time :            0.48000 ps :
     Properties:                   Instantaneous       Averaged
       Kinetic energy    (eV) =      11.807948         11.854417
       Potential energy  (eV) =     -79.484812        -79.876538
       Total energy      (eV) =     -67.676863        -68.022122
       Temperature       (K)  =    2946.783018       2958.379581
       Pressure         (GPa) =      21.456157         21.095685
  ** Time :            0.50000 ps :
     Properties:                   Instantaneous       Averaged
       Kinetic energy    (eV) =      11.981807         11.859512
       Potential energy  (eV) =     -78.463376        -79.820012
       Total energy      (eV) =     -66.481569        -67.960500
       Temperature       (K)  =    2990.171099       2959.651242
       Pressure         (GPa) =      22.482026         21.151139
  ** Time :            0.52000 ps :
     Properties:                   Instantaneous       Averaged
       Kinetic energy    (eV) =      12.155969         11.870914
       Potential energy  (eV) =     -80.644855        -79.851736
       Total energy      (eV) =     -68.488886        -67.980822
       Temperature       (K)  =    3033.634919       2962.496768
       Pressure         (GPa) =      20.236507         21.115961
  ** Time :            0.54000 ps :
     Properties:                   Instantaneous       Averaged
       Kinetic energy    (eV) =      11.897119         11.871885
       Potential energy  (eV) =     -80.525445        -79.876689
       Total energy      (eV) =     -68.628327        -68.004804
       Temperature       (K)  =    2969.036290       2962.738972
       Pressure         (GPa) =      20.367420         21.088237
  ** Time :            0.56000 ps :
     Properties:                   Instantaneous       Averaged
       Kinetic energy    (eV) =      12.068799         11.878918
       Potential energy  (eV) =     -81.202283        -79.924031
       Total energy      (eV) =     -69.133484        -68.045114
       Temperature       (K)  =    3011.880636       2964.494032
       Pressure         (GPa) =      19.904287         21.045953
  ** Time :            0.58000 ps :
     Properties:                   Instantaneous       Averaged
       Kinetic energy    (eV) =      11.902026         11.879714
       Potential energy  (eV) =     -81.180742        -79.967366
       Total energy      (eV) =     -69.278716        -68.087652
       Temperature       (K)  =    2970.260900       2964.692889
       Pressure         (GPa) =      19.664949         20.998332
  ** Time :            0.60000 ps :
     Properties:                   Instantaneous       Averaged
       Kinetic energy    (eV) =      12.014487         11.884207
       Potential energy  (eV) =     -81.637972        -80.023053
       Total energy      (eV) =     -69.623485        -68.138846
       Temperature       (K)  =    2998.326578       2965.814012
       Pressure         (GPa) =      19.312199         20.942128
  ** Time :            0.62000 ps :
     Properties:                   Instantaneous       Averaged
       Kinetic energy    (eV) =      11.466162         11.870721
       Potential energy  (eV) =     -79.449005        -80.004535
       Total energy      (eV) =     -67.982842        -68.133814
       Temperature       (K)  =    2861.487177       2962.448630
       Pressure         (GPa) =      21.378018         20.956189
  ** Time :            0.64000 ps :
     Properties:                   Instantaneous       Averaged
       Kinetic energy    (eV) =      11.779855         11.867882
       Potential energy  (eV) =     -78.461040        -79.956301
       Total energy      (eV) =     -66.681185        -68.088419
       Temperature       (K)  =    2939.772115       2961.739989
       Pressure         (GPa) =      23.053694         21.021736
  ** Time :            0.66000 ps :
     Properties:                   Instantaneous       Averaged
       Kinetic energy    (eV) =      12.241542         11.879205
       Potential energy  (eV) =     -78.774679        -79.920494
       Total energy      (eV) =     -66.533138        -68.041289
       Temperature       (K)  =    3054.990217       2964.565754
       Pressure         (GPa) =      22.463796         21.065435
  ** Time :            0.68000 ps :
     Properties:                   Instantaneous       Averaged
       Kinetic energy    (eV) =      12.191573         11.888392
       Potential energy  (eV) =     -81.944104        -79.980012
       Total energy      (eV) =     -69.752531        -68.091620
       Temperature       (K)  =    3042.520149       2966.858530
       Pressure         (GPa) =      18.632934         20.993890
  ** Time :            0.70000 ps :
     Properties:                   Instantaneous       Averaged
       Kinetic energy    (eV) =      11.772091         11.885069
       Potential energy  (eV) =     -81.952861        -80.036379
       Total energy      (eV) =     -70.180770        -68.151310
       Temperature       (K)  =    2937.834397       2966.029269
       Pressure         (GPa) =      18.412014         20.920123
  ** Time :            0.72000 ps :
     Properties:                   Instantaneous       Averaged
       Kinetic energy    (eV) =      11.878568         11.884889
       Potential energy  (eV) =     -80.596117        -80.051928
       Total energy      (eV) =     -68.717550        -68.167039
       Temperature       (K)  =    2964.406779       2965.984200
       Pressure         (GPa) =      20.121513         20.897939
  ** Time :            0.74000 ps :
     Properties:                   Instantaneous       Averaged
       Kinetic energy    (eV) =      11.857464         11.884148
       Potential energy  (eV) =     -80.066455        -80.052320
       Total energy      (eV) =     -68.208991        -68.168173
       Temperature       (K)  =    2959.140019       2965.799222
       Pressure         (GPa) =      21.167831         20.905233
  ** Time :            0.76000 ps :
     Properties:                   Instantaneous       Averaged
       Kinetic energy    (eV) =      11.844475         11.883104
       Potential energy  (eV) =     -79.333515        -80.033404
       Total energy      (eV) =     -67.489040        -68.150301
       Temperature       (K)  =    2955.898680       2965.538682
       Pressure         (GPa) =      22.241672         20.940403
  ** Time :            0.78000 ps :
     Properties:                   Instantaneous       Averaged
       Kinetic energy    (eV) =      11.996998         11.886024
       Potential energy  (eV) =     -79.045531        -80.008074
       Total energy      (eV) =     -67.048533        -68.122050
       Temperature       (K)  =    2993.962041       2966.267486
       Pressure         (GPa) =      22.775528         20.987457
  ** Time :            0.80000 ps :
     Properties:                   Instantaneous       Averaged
       Kinetic energy    (eV) =      12.054608         11.890238
       Potential energy  (eV) =     -79.909633        -80.005613
       Total energy      (eV) =     -67.855025        -68.115375
       Temperature       (K)  =    3008.339334       2967.319282
       Pressure         (GPa) =      22.143123         21.016349
  ** Time :            0.82000 ps :
     Properties:                   Instantaneous       Averaged
       Kinetic energy    (eV) =      11.851665         11.889298
       Potential energy  (eV) =     -79.842732        -80.001641
       Total energy      (eV) =     -67.991067        -68.112343
       Temperature       (K)  =    2957.692936       2967.084493
       Pressure         (GPa) =      22.330115         21.048392
  ** Time :            0.84000 ps :
     Properties:                   Instantaneous       Averaged
       Kinetic energy    (eV) =      11.696284         11.884702
       Potential energy  (eV) =     -78.213957        -79.959077
       Total energy      (eV) =     -66.517674        -68.074375
       Temperature       (K)  =    2918.916124       2965.937627
       Pressure         (GPa) =      23.799037         21.113883
  ** Time :            0.86000 ps :
     Properties:                   Instantaneous       Averaged
       Kinetic energy    (eV) =      11.928521         11.885721
       Potential energy  (eV) =     -76.999876        -79.890258
       Total energy      (eV) =     -65.071354        -68.004537
       Temperature       (K)  =    2976.873161       2966.191942
       Pressure         (GPa) =      24.751292         21.198474
  ** Time :            0.88000 ps :
     Properties:                   Instantaneous       Averaged
       Kinetic energy    (eV) =      12.161921         11.891998
       Potential energy  (eV) =     -78.113144        -79.849869
       Total energy      (eV) =     -65.951223        -67.957871
       Temperature       (K)  =    3035.120102       2967.758491
       Pressure         (GPa) =      23.442481         21.249475
  ** Time :            0.90000 ps :
     Properties:                   Instantaneous       Averaged
       Kinetic energy    (eV) =      12.028023         11.895021
       Potential energy  (eV) =     -79.661919        -79.845692
       Total energy      (eV) =     -67.633896        -67.950671
       Temperature       (K)  =    3001.704567       2968.512848
       Pressure         (GPa) =      21.985193         21.265824
  ** Time :            0.92000 ps :
     Properties:                   Instantaneous       Averaged
       Kinetic energy    (eV) =      11.977585         11.896816
       Potential energy  (eV) =     -79.689222        -79.842291
       Total energy      (eV) =     -67.711637        -67.945475
       Temperature       (K)  =    2989.117342       2968.960772
       Pressure         (GPa) =      21.830192         21.278093
  ** Time :            0.94000 ps :
     Properties:                   Instantaneous       Averaged
       Kinetic energy    (eV) =      11.878615         11.896429
       Potential energy  (eV) =     -79.997351        -79.845590
       Total energy      (eV) =     -68.118736        -67.949161
       Temperature       (K)  =    2964.418574       2968.864129
       Pressure         (GPa) =      21.355170         21.279733
  ** Time :            0.96000 ps :
     Properties:                   Instantaneous       Averaged
       Kinetic energy    (eV) =      12.128104         11.901255
       Potential energy  (eV) =     -80.295377        -79.854961
       Total energy      (eV) =     -68.167272        -67.953705
       Temperature       (K)  =    3026.680910       2970.068646
       Pressure         (GPa) =      21.044209         21.274826
  ** Time :            0.98000 ps :
     Properties:                   Instantaneous       Averaged
       Kinetic energy    (eV) =      12.002309         11.903318
       Potential energy  (eV) =     -81.387983        -79.886247
       Total energy      (eV) =     -69.385674        -67.982929
       Temperature       (K)  =    2995.287559       2970.583317
       Pressure         (GPa) =      19.977520         21.248350
  ** Time :            1.00000 ps :
     Properties:                   Instantaneous       Averaged
       Kinetic energy    (eV) =      11.892144         11.903094
       Potential energy  (eV) =     -81.165306        -79.911828
       Total energy      (eV) =     -69.273163        -68.008734
       Temperature       (K)  =    2967.794721       2970.527545
       Pressure         (GPa) =      19.993848         21.223260
  ** Time :            1.02000 ps :
     Properties:                   Instantaneous       Averaged
       Kinetic energy    (eV) =      11.919819         11.903422
       Potential energy  (eV) =     -80.730984        -79.927890
       Total energy      (eV) =     -68.811165        -68.024468
       Temperature       (K)  =    2974.701379       2970.609385
       Pressure         (GPa) =      20.199758         21.203192
  ** Time :            1.04000 ps :
     Properties:                   Instantaneous       Averaged
       Kinetic energy    (eV) =      12.084794         11.906910
       Potential energy  (eV) =     -81.206563        -79.952480
       Total energy      (eV) =     -69.121769        -68.045570
       Temperature       (K)  =    3015.872352       2971.479827
       Pressure         (GPa) =      19.773946         21.175706
  ** Time :            1.06000 ps :
     Properties:                   Instantaneous       Averaged
       Kinetic energy    (eV) =      12.043237         11.909482
       Potential energy  (eV) =     -82.293253        -79.996645
       Total energy      (eV) =     -70.250016        -68.087163
       Temperature       (K)  =    3005.501383       2972.121743
       Pressure         (GPa) =      18.935080         21.133430
  ** Time :            1.08000 ps :
     Properties:                   Instantaneous       Averaged
       Kinetic energy    (eV) =      11.728297         11.906127
       Potential energy  (eV) =     -81.651091        -80.027283
       Total energy      (eV) =     -69.922794        -68.121156
       Temperature       (K)  =    2926.905170       2971.284399
       Pressure         (GPa) =      19.626720         21.105528
  ** Time :            1.10000 ps :
     Properties:                   Instantaneous       Averaged
       Kinetic energy    (eV) =      11.891237         11.905856
       Potential energy  (eV) =     -80.112760        -80.028837
       Total energy      (eV) =     -68.221522        -68.122981
       Temperature       (K)  =    2967.568561       2971.216838
       Pressure         (GPa) =      21.169715         21.106695
  ** Time :            1.12000 ps :
     Properties:                   Instantaneous       Averaged
       Kinetic energy    (eV) =      11.843549         11.904744
       Potential energy  (eV) =     -80.019059        -80.028663
       Total energy      (eV) =     -68.175510        -68.123919
       Temperature       (K)  =    2955.667462       2970.939171
       Pressure         (GPa) =      21.453990         21.112897
  ** Time :            1.14000 ps :
     Properties:                   Instantaneous       Averaged
       Kinetic energy    (eV) =      11.938265         11.905332
       Potential energy  (eV) =     -79.054485        -80.011572
       Total energy      (eV) =     -67.116220        -68.106240
       Temperature       (K)  =    2979.304851       2971.085937
       Pressure         (GPa) =      22.600716         21.138999
  ** Time :            1.16000 ps :
     Properties:                   Instantaneous       Averaged
       Kinetic energy    (eV) =      12.008177         11.907105
       Potential energy  (eV) =     -79.745662        -80.006987
       Total energy      (eV) =     -67.737485        -68.099882
       Temperature       (K)  =    2996.751926       2971.528454
       Pressure         (GPa) =      22.142209         21.156296
  ** Time :            1.18000 ps :
     Properties:                   Instantaneous       Averaged
       Kinetic energy    (eV) =      12.069425         11.909856
       Potential energy  (eV) =     -80.359020        -80.012954
       Total energy      (eV) =     -68.289595        -68.103098
       Temperature       (K)  =    3012.036954       2972.215039
       Pressure         (GPa) =      21.458068         21.161410
  ** Time :            1.20000 ps :
     Properties:                   Instantaneous       Averaged
       Kinetic energy    (eV) =      12.033925         11.911924
       Potential energy  (eV) =     -81.375755        -80.035667
       Total energy      (eV) =     -69.341829        -68.123743
       Temperature       (K)  =    3003.177654       2972.731083
       Pressure         (GPa) =      20.076455         21.143328
  ** Time :            1.22000 ps :
     Properties:                   Instantaneous       Averaged
       Kinetic energy    (eV) =      11.728659         11.908920
       Potential energy  (eV) =     -80.541862        -80.043965
       Total energy      (eV) =     -68.813204        -68.135046
       Temperature       (K)  =    2926.995511       2971.981319
       Pressure         (GPa) =      20.656573         21.135348
  ** Time :            1.24000 ps :
     Properties:                   Instantaneous       Averaged
       Kinetic energy    (eV) =      11.623368         11.904314
       Potential energy  (eV) =     -78.539821        -80.019705
       Total energy      (eV) =     -66.916453        -68.115391
       Temperature       (K)  =    2900.719172       2970.831930
       Pressure         (GPa) =      23.005314         21.165509
  ** Time :            1.26000 ps :
     Properties:                   Instantaneous       Averaged
       Kinetic energy    (eV) =      12.021776         11.906178
       Potential energy  (eV) =     -77.632258        -79.981809
       Total energy      (eV) =     -65.610482        -68.075631
       Temperature       (K)  =    3000.145739       2971.297228
       Pressure         (GPa) =      24.034273         21.211045
  ** Time :            1.28000 ps :
     Properties:                   Instantaneous       Averaged
       Kinetic energy    (eV) =      11.929189         11.906538
       Potential energy  (eV) =     -78.023849        -79.951216
       Total energy      (eV) =     -66.094660        -68.044678
       Temperature       (K)  =    2977.039803       2971.386956
       Pressure         (GPa) =      23.261615         21.243085
  ** Time :            1.30000 ps :
     Properties:                   Instantaneous       Averaged
       Kinetic energy    (eV) =      12.032950         11.908483
       Potential energy  (eV) =     -78.761107        -79.932907
       Total energy      (eV) =     -66.728157        -68.024424
       Temperature       (K)  =    3002.934232       2971.872299
       Pressure         (GPa) =      22.258323         21.258704
  ** Time :            1.32000 ps :
     Properties:                   Instantaneous       Averaged
       Kinetic energy    (eV) =      12.014477         11.910089
       Potential energy  (eV) =     -79.779765        -79.930586
       Total energy      (eV) =     -67.765288        -68.020498
       Temperature       (K)  =    2998.324075       2972.273083
       Pressure         (GPa) =      21.558714         21.263250
  ** Time :            1.34000 ps :
     Properties:                   Instantaneous       Averaged
       Kinetic energy    (eV) =      11.674459         11.906572
       Potential energy  (eV) =     -78.438608        -79.908318
       Total energy      (eV) =     -66.764149        -68.001746
       Temperature       (K)  =    2913.469451       2971.395417
       Pressure         (GPa) =      23.431066         21.295605
  ** Time :            1.36000 ps :
     Properties:                   Instantaneous       Averaged
       Kinetic energy    (eV) =      12.061174         11.908845
       Potential energy  (eV) =     -77.986766        -79.880060
       Total energy      (eV) =     -65.925592        -67.971214
       Temperature       (K)  =    3009.977834       2971.962806
       Pressure         (GPa) =      24.047918         21.336080
  ** Time :            1.38000 ps :
     Properties:                   Instantaneous       Averaged
       Kinetic energy    (eV) =      11.969562         11.909725
       Potential energy  (eV) =     -78.669324        -79.862513
       Total energy      (eV) =     -66.699762        -67.952788
       Temperature       (K)  =    2987.115092       2972.182404
       Pressure         (GPa) =      23.103511         21.361695
  ** Time :            1.40000 ps :
     Properties:                   Instantaneous       Averaged
       Kinetic energy    (eV) =      11.887317         11.909405
       Potential energy  (eV) =     -78.690273        -79.845767
       Total energy      (eV) =     -66.802956        -67.936361
       Temperature       (K)  =    2966.590164       2972.102515
       Pressure         (GPa) =      23.013916         21.385298
  ** Time :            1.42000 ps :
     Properties:                   Instantaneous       Averaged
       Kinetic energy    (eV) =      11.804463         11.907927
       Potential energy  (eV) =     -77.917320        -79.818605
       Total energy      (eV) =     -66.112857        -67.910678
       Temperature       (K)  =    2945.913302       2971.733653
       Pressure         (GPa) =      23.665152         21.417409
  ** Time :            1.44000 ps :
     Properties:                   Instantaneous       Averaged
       Kinetic energy    (eV) =      11.462345         11.901739
       Potential energy  (eV) =     -75.136194        -79.753572
       Total energy      (eV) =     -63.673848        -67.851833
       Temperature       (K)  =    2860.534618       2970.189222
       Pressure         (GPa) =      26.689297         21.490630
  ** Time :            1.46000 ps :
     Properties:                   Instantaneous       Averaged
       Kinetic energy    (eV) =      12.197289         11.905787
       Potential energy  (eV) =     -74.428963        -79.680632
       Total energy      (eV) =     -62.231674        -67.774845
       Temperature       (K)  =    3043.946515       2971.199596
       Pressure         (GPa) =      27.915096         21.578636
  ** Time :            1.48000 ps :
     Properties:                   Instantaneous       Averaged
       Kinetic energy    (eV) =      12.256720         11.910529
       Potential energy  (eV) =     -77.832728        -79.655660
       Total energy      (eV) =     -65.576008        -67.745131
       Temperature       (K)  =    3058.778058       2972.383088
       Pressure         (GPa) =      24.371342         21.616375
  ** Time :            1.50000 ps :
     Properties:                   Instantaneous       Averaged
       Kinetic energy    (eV) =      11.868170         11.909965
       Potential energy  (eV) =     -78.360720        -79.638394
       Total energy      (eV) =     -66.492550        -67.728430
       Temperature       (K)  =    2961.811878       2972.242139
       Pressure         (GPa) =      23.641387         21.643376
  ** Time :            1.52000 ps :
     Properties:                   Instantaneous       Averaged
       Kinetic energy    (eV) =      12.118890         11.912714
       Potential energy  (eV) =     -78.729770        -79.626439
       Total energy      (eV) =     -66.610880        -67.713725
       Temperature       (K)  =    3024.381394       2972.928182
       Pressure         (GPa) =      23.204488         21.663916
  ** Time :            1.54000 ps :
     Properties:                   Instantaneous       Averaged
       Kinetic energy    (eV) =      11.737815         11.910442
       Potential energy  (eV) =     -78.532255        -79.612229
       Total energy      (eV) =     -66.794439        -67.701786
       Temperature       (K)  =    2929.280662       2972.361331
       Pressure         (GPa) =      23.372638         21.686108
  ** Time :            1.56000 ps :
     Properties:                   Instantaneous       Averaged
       Kinetic energy    (eV) =      11.877219         11.910016
       Potential energy  (eV) =     -77.854787        -79.589697
       Total energy      (eV) =     -65.977568        -67.679681
       Temperature       (K)  =    2964.070130       2972.255033
       Pressure         (GPa) =      24.736947         21.725221
  ** Time :            1.58000 ps :
     Properties:                   Instantaneous       Averaged
       Kinetic energy    (eV) =      11.906296         11.909969
       Potential energy  (eV) =     -77.342883        -79.561257
       Total energy      (eV) =     -65.436586        -67.651287
       Temperature       (K)  =    2971.326682       2972.243282
       Pressure         (GPa) =      25.618764         21.774506
  ** Time :            1.60000 ps :
     Properties:                   Instantaneous       Averaged
       Kinetic energy    (eV) =      12.113962         11.912519
       Potential energy  (eV) =     -77.626067        -79.537067
       Total energy      (eV) =     -65.512105        -67.624548
       Temperature       (K)  =    3023.151463       2972.879634
       Pressure         (GPa) =      25.165489         21.816894
  ** Time :            1.62000 ps :
     Properties:                   Instantaneous       Averaged
       Kinetic energy    (eV) =      11.915156         11.912552
       Potential energy  (eV) =     -78.757113        -79.527438
       Total energy      (eV) =     -66.841957        -67.614886
       Temperature       (K)  =    2973.537638       2972.887758
       Pressure         (GPa) =      23.761669         21.840903
  ** Time :            1.64000 ps :
     Properties:                   Instantaneous       Averaged
       Kinetic energy    (eV) =      11.516494         11.907722
       Potential energy  (eV) =     -76.512514        -79.490670
       Total energy      (eV) =     -64.996020        -67.582949
       Temperature       (K)  =    2874.047960       2971.682394
       Pressure         (GPa) =      25.759830         21.888695
  ** Time :            1.66000 ps :
     Properties:                   Instantaneous       Averaged
       Kinetic energy    (eV) =      12.243278         11.911765
       Potential energy  (eV) =     -75.480795        -79.442359
       Total energy      (eV) =     -63.237517        -67.530594
       Temperature       (K)  =    3055.423523       2972.691324
       Pressure         (GPa) =      26.663471         21.946222
  ** Time :            1.68000 ps :
     Properties:                   Instantaneous       Averaged
       Kinetic energy    (eV) =      12.153597         11.914644
       Potential energy  (eV) =     -78.696471        -79.433479
       Total energy      (eV) =     -66.542874        -67.518835
       Temperature       (K)  =    3033.042859       2973.409794
       Pressure         (GPa) =      23.238778         21.961610
  ** Time :            1.70000 ps :
     Properties:                   Instantaneous       Averaged
       Kinetic energy    (eV) =      11.823667         11.913573
       Potential energy  (eV) =     -78.382891        -79.421119
       Total energy      (eV) =     -66.559224        -67.507546
       Temperature       (K)  =    2950.705725       2973.142688
       Pressure         (GPa) =      23.254223         21.976817
  ** Time :            1.72000 ps :
     Properties:                   Instantaneous       Averaged
       Kinetic energy    (eV) =      12.344657         11.918586
       Potential energy  (eV) =     -79.375612        -79.420590
       Total energy      (eV) =     -67.030956        -67.502004
       Temperature       (K)  =    3080.723562       2974.393628
       Pressure         (GPa) =      22.058219         21.977764
  ** Time :            1.74000 ps :
     Properties:                   Instantaneous       Averaged
       Kinetic energy    (eV) =      12.045654         11.920046
       Potential energy  (eV) =     -81.977230        -79.449977
       Total energy      (eV) =     -69.931576        -67.529930
       Temperature       (K)  =    3006.104650       2974.758122
       Pressure         (GPa) =      19.119941         21.944915
  ** Time :            1.76000 ps :
     Properties:                   Instantaneous       Averaged
       Kinetic energy    (eV) =      11.647391         11.916948
       Potential energy  (eV) =     -80.864232        -79.466048
       Total energy      (eV) =     -69.216841        -67.549100
       Temperature       (K)  =    2906.714427       2973.984899
       Pressure         (GPa) =      20.075284         21.923669
  ** Time :            1.78000 ps :
     Properties:                   Instantaneous       Averaged
       Kinetic energy    (eV) =      11.778133         11.915388
       Potential energy  (eV) =     -78.111674        -79.450830
       Total energy      (eV) =     -66.333541        -67.535442
       Temperature       (K)  =    2939.342232       2973.595655
       Pressure         (GPa) =      22.964153         21.935360
  ** Time :            1.80000 ps :
     Properties:                   Instantaneous       Averaged
       Kinetic energy    (eV) =      12.009683         11.916436
       Potential energy  (eV) =     -79.301790        -79.449174
       Total energy      (eV) =     -67.292107        -67.532738
       Temperature       (K)  =    2997.127801       2973.857124
       Pressure         (GPa) =      22.236152         21.938702
  ** Time :            1.82000 ps :
     Properties:                   Instantaneous       Averaged
       Kinetic energy    (eV) =      11.954481         11.916854
       Potential energy  (eV) =     -78.754700        -79.441543
       Total energy      (eV) =     -66.800219        -67.524688
       Temperature       (K)  =    2983.351600       2973.961458
       Pressure         (GPa) =      22.790483         21.948063
  ** Time :            1.84000 ps :
     Properties:                   Instantaneous       Averaged
       Kinetic energy    (eV) =      12.103505         11.918883
       Potential energy  (eV) =     -79.959458        -79.447172
       Total energy      (eV) =     -67.855953        -67.528289
       Temperature       (K)  =    3020.541924       2974.467768
       Pressure         (GPa) =      21.934520         21.947915
  ** Time :            1.86000 ps :
     Properties:                   Instantaneous       Averaged
       Kinetic energy    (eV) =      11.808847         11.917700
       Potential energy  (eV) =     -79.687772        -79.449759
       Total energy      (eV) =     -67.878925        -67.532059
       Temperature       (K)  =    2947.007307       2974.172494
       Pressure         (GPa) =      22.080381         21.949340
  ** Time :            1.88000 ps :
     Properties:                   Instantaneous       Averaged
       Kinetic energy    (eV) =      11.935118         11.917885
       Potential energy  (eV) =     -79.326979        -79.448453
       Total energy      (eV) =     -67.391861        -67.530568
       Temperature       (K)  =    2978.519487       2974.218739
       Pressure         (GPa) =      22.310963         21.953187
  ** Time :            1.90000 ps :
     Properties:                   Instantaneous       Averaged
       Kinetic energy    (eV) =      11.839607         11.917061
       Potential energy  (eV) =     -78.812384        -79.441758
       Total energy      (eV) =     -66.972777        -67.524696
       Temperature       (K)  =    2954.683726       2974.013107
       Pressure         (GPa) =      22.634963         21.960363
  ** Time :            1.92000 ps :
     Properties:                   Instantaneous       Averaged
       Kinetic energy    (eV) =      12.034698         11.918286
       Potential energy  (eV) =     -78.613845        -79.433133
       Total energy      (eV) =     -66.579147        -67.514847
       Temperature       (K)  =    3003.370528       2974.318913
       Pressure         (GPa) =      22.846754         21.969597
  ** Time :            1.94000 ps :
     Properties:                   Instantaneous       Averaged
       Kinetic energy    (eV) =      12.064551         11.919794
       Potential energy  (eV) =     -79.792190        -79.436835
       Total energy      (eV) =     -67.727639        -67.517041
       Temperature       (K)  =    3010.820632       2974.695220
       Pressure         (GPa) =      21.859795         21.968465
  ** Time :            1.96000 ps :
     Properties:                   Instantaneous       Averaged
       Kinetic energy    (eV) =      11.966466         11.920271
       Potential energy  (eV) =     -80.039854        -79.442988
       Total energy      (eV) =     -68.073388        -67.522718
       Temperature       (K)  =    2986.342667       2974.814071
       Pressure         (GPa) =      21.431540         21.962986
  ** Time :            1.98000 ps :
     Properties:                   Instantaneous       Averaged
       Kinetic energy    (eV) =      12.180021         11.922894
       Potential energy  (eV) =     -81.121752        -79.459945
       Total energy      (eV) =     -68.941731        -67.537051
       Temperature       (K)  =    3039.637210       2975.468850
       Pressure         (GPa) =      20.218452         21.945364
  ** Time :            2.00000 ps :
     Properties:                   Instantaneous       Averaged
       Kinetic energy    (eV) =      12.036805         11.924033
       Potential energy  (eV) =     -82.432708        -79.489673
       Total energy      (eV) =     -70.395903        -67.565640
       Temperature       (K)  =    3003.896331       2975.753125
       Pressure         (GPa) =      18.698713         21.912898
  ** Time :            2.02000 ps :
     Properties:                   Instantaneous       Averaged
       Kinetic energy    (eV) =      11.833442         11.923136
       Potential energy  (eV) =     -81.975145        -79.514282
       Total energy      (eV) =     -70.141702        -67.591145
       Temperature       (K)  =    2953.145283       2975.529285
       Pressure         (GPa) =      18.963424         21.883695
  ** Time :            2.04000 ps :
     Properties:                   Instantaneous       Averaged
       Kinetic energy    (eV) =      11.914363         11.923050
       Potential energy  (eV) =     -81.371963        -79.532494
       Total energy      (eV) =     -69.457599        -67.609444
       Temperature       (K)  =    2973.339896       2975.507821
       Pressure         (GPa) =      19.570920         21.861021
  ** Time :            2.06000 ps :
     Properties:                   Instantaneous       Averaged
       Kinetic energy    (eV) =      11.820499         11.922055
       Potential energy  (eV) =     -80.683143        -79.543666
       Total energy      (eV) =     -68.862644        -67.621611
       Temperature       (K)  =    2949.915086       2975.259348
       Pressure         (GPa) =      20.365317         21.846499
  ** Time :            2.08000 ps :
     Properties:                   Instantaneous       Averaged
       Kinetic energy    (eV) =      11.932042         11.922151
       Potential energy  (eV) =     -80.001925        -79.548072
       Total energy      (eV) =     -68.069883        -67.625921
       Temperature       (K)  =    2977.751623       2975.283312
       Pressure         (GPa) =      21.334446         21.841576
  ** Time :            2.10000 ps :
     Properties:                   Instantaneous       Averaged
       Kinetic energy    (eV) =      11.764201         11.920647
       Potential energy  (eV) =     -79.361652        -79.546297
       Total energy      (eV) =     -67.597451        -67.625650
       Temperature       (K)  =    2935.865537       2974.907904
       Pressure         (GPa) =      22.012597         21.843205
  ** Time :            2.12000 ps :
     Properties:                   Instantaneous       Averaged
       Kinetic energy    (eV) =      12.186264         11.923152
       Potential energy  (eV) =     -79.325412        -79.544213
       Total energy      (eV) =     -67.139148        -67.621060
       Temperature       (K)  =    3041.195248       2975.533257
       Pressure         (GPa) =      22.109680         21.845718
  ** Time :            2.14000 ps :
     Properties:                   Instantaneous       Averaged
       Kinetic energy    (eV) =      11.634577         11.920455
       Potential energy  (eV) =     -79.661753        -79.545311
       Total energy      (eV) =     -68.027176        -67.624856
       Temperature       (K)  =    2903.516696       2974.860205
       Pressure         (GPa) =      22.050479         21.847632
  ** Time :            2.16000 ps :
     Properties:                   Instantaneous       Averaged
       Kinetic energy    (eV) =      12.060826         11.921755
       Potential energy  (eV) =     -77.999916        -79.531002
       Total energy      (eV) =     -65.939090        -67.609247
       Temperature       (K)  =    3009.891016       2975.184564
       Pressure         (GPa) =      23.782788         21.865550
  ** Time :            2.18000 ps :
     Properties:                   Instantaneous       Averaged
       Kinetic energy    (eV) =      11.928788         11.921820
       Potential energy  (eV) =     -79.225931        -79.528203
       Total energy      (eV) =     -67.297143        -67.606384
       Temperature       (K)  =    2976.939630       2975.200666
       Pressure         (GPa) =      22.651956         21.872765
  ** Time :            2.20000 ps :
     Properties:                   Instantaneous       Averaged
       Kinetic energy    (eV) =      11.883352         11.921470
       Potential energy  (eV) =     -78.304138        -79.517075
       Total energy      (eV) =     -66.420785        -67.595605
       Temperature       (K)  =    2965.600724       2975.113393
       Pressure         (GPa) =      23.315741         21.885883
  ** Time :            2.22000 ps :
     Properties:                   Instantaneous       Averaged
       Kinetic energy    (eV) =      12.029967         11.922447
       Potential energy  (eV) =     -79.032396        -79.512709
       Total energy      (eV) =     -67.002429        -67.590261
       Temperature       (K)  =    3002.189715       2975.357324
       Pressure         (GPa) =      22.658982         21.892848
  ** Time :            2.24000 ps :
     Properties:                   Instantaneous       Averaged
       Kinetic energy    (eV) =      12.157603         11.924547
       Potential energy  (eV) =     -79.662456        -79.514046
       Total energy      (eV) =     -67.504853        -67.589499
       Temperature       (K)  =    3034.042562       2975.881300
       Pressure         (GPa) =      21.649866         21.890678
  ** Time :            2.26000 ps :
     Properties:                   Instantaneous       Averaged
       Kinetic energy    (eV) =      12.164426         11.926670
       Potential energy  (eV) =     -81.832536        -79.534564
       Total energy      (eV) =     -69.668109        -67.607894
       Temperature       (K)  =    3035.745420       2976.411070
       Pressure         (GPa) =      19.113871         21.866105
  ** Time :            2.28000 ps :
     Properties:                   Instantaneous       Averaged
       Kinetic energy    (eV) =      11.847606         11.925976
       Potential energy  (eV) =     -82.036087        -79.556507
       Total energy      (eV) =     -70.188481        -67.630530
       Temperature       (K)  =    2956.680037       2976.237991
       Pressure         (GPa) =      18.612055         21.837561
  ** Time :            2.30000 ps :
     Properties:                   Instantaneous       Averaged
       Kinetic energy    (eV) =      11.950616         11.926191
       Potential energy  (eV) =     -81.154320        -79.570401
       Total energy      (eV) =     -69.203704        -67.644210
       Temperature       (K)  =    2982.387104       2976.291462
       Pressure         (GPa) =      19.413166         21.816479
  ** Time :            2.32000 ps :
     Properties:                   Instantaneous       Averaged
       Kinetic energy    (eV) =      11.819822         11.925274
       Potential energy  (eV) =     -80.992342        -79.582659
       Total energy      (eV) =     -69.172520        -67.657385
       Temperature       (K)  =    2949.746211       2976.062623
       Pressure         (GPa) =      19.987230         21.800709
  ** Time :            2.34000 ps :
     Properties:                   Instantaneous       Averaged
       Kinetic energy    (eV) =      11.776939         11.924006
       Potential energy  (eV) =     -79.376065        -79.580893
       Total energy      (eV) =     -67.599126        -67.656887
       Temperature       (K)  =    2939.044325       2975.746228
       Pressure         (GPa) =      21.976093         21.802208
  ** Time :            2.36000 ps :
     Properties:                   Instantaneous       Averaged
       Kinetic energy    (eV) =      11.774031         11.922735
       Potential energy  (eV) =     -78.516691        -79.571874
       Total energy      (eV) =     -66.742660        -67.649140
       Temperature       (K)  =    2938.318623       2975.429045
       Pressure         (GPa) =      23.123472         21.813406
  ** Time :            2.38000 ps :
     Properties:                   Instantaneous       Averaged
       Kinetic energy    (eV) =      11.979281         11.923210
       Potential energy  (eV) =     -77.606386        -79.555358
       Total energy      (eV) =     -65.627105        -67.632148
       Temperature       (K)  =    2989.540728       2975.547630
       Pressure         (GPa) =      24.075105         21.832411
  ** Time :            2.40000 ps :
     Properties:                   Instantaneous       Averaged
       Kinetic energy    (eV) =      12.015111         11.923976
       Potential energy  (eV) =     -78.122579        -79.543418
       Total energy      (eV) =     -66.107468        -67.619442
       Temperature       (K)  =    2998.482409       2975.738753
       Pressure         (GPa) =      23.556834         21.846782
  ** Time :            2.42000 ps :
     Properties:                   Instantaneous       Averaged
       Kinetic energy    (eV) =      11.998046         11.924588
       Potential energy  (eV) =     -79.189784        -79.540495
       Total energy      (eV) =     -67.191738        -67.615907
       Temperature       (K)  =    2994.223604       2975.891521
       Pressure         (GPa) =      22.540096         21.852512
  ** Time :            2.44000 ps :
     Properties:                   Instantaneous       Averaged
       Kinetic energy    (eV) =      11.889775         11.924303
       Potential energy  (eV) =     -78.785212        -79.534304
       Total energy      (eV) =     -66.895437        -67.610002
       Temperature       (K)  =    2967.203527       2975.820308
       Pressure         (GPa) =      22.964908         21.861630
  ** Time :            2.46000 ps :
     Properties:                   Instantaneous       Averaged
       Kinetic energy    (eV) =      12.147438         11.926117
       Potential energy  (eV) =     -79.568831        -79.534585
       Total energy      (eV) =     -67.421392        -67.608468
       Temperature       (K)  =    3031.505906       2976.273036
       Pressure         (GPa) =      22.196351         21.864351
  ** Time :            2.48000 ps :
     Properties:                   Instantaneous       Averaged
       Kinetic energy    (eV) =      11.894369         11.925861
       Potential energy  (eV) =     -80.320069        -79.540920
       Total energy      (eV) =     -68.425700        -67.615059
       Temperature       (K)  =    2968.349971       2976.209140
       Pressure         (GPa) =      21.649331         21.862617
  ** Time :            2.50000 ps :
     Properties:                   Instantaneous       Averaged
       Kinetic energy    (eV) =      11.664107         11.923767
       Potential energy  (eV) =     -78.918229        -79.535938
       Total energy      (eV) =     -67.254123        -67.612171
       Temperature       (K)  =    2910.885962       2975.686555
       Pressure         (GPa) =      23.690254         21.877238
  ** Time :            2.52000 ps :
     Properties:                   Instantaneous       Averaged
       Kinetic energy    (eV) =      11.826830         11.922997
       Potential energy  (eV) =     -77.026703        -79.516024
       Total energy      (eV) =     -65.199873        -67.593026
       Temperature       (K)  =    2951.495067       2975.494559
       Pressure         (GPa) =      25.776076         21.908181
  ** Time :            2.54000 ps :
     Properties:                   Instantaneous       Averaged
       Kinetic energy    (eV) =      12.103284         11.924417
       Potential energy  (eV) =     -77.692577        -79.501666
       Total energy      (eV) =     -65.589293        -67.577249
       Temperature       (K)  =    3020.486818       2975.848829
       Pressure         (GPa) =      24.819347         21.931104
  ** Time :            2.56000 ps :
     Properties:                   Instantaneous       Averaged
       Kinetic energy    (eV) =      12.096837         11.925764
       Potential energy  (eV) =     -79.119215        -79.498678
       Total energy      (eV) =     -67.022378        -67.572914
       Temperature       (K)  =    3018.877981       2976.184994
       Pressure         (GPa) =      23.168535         21.940771
  ** Time :            2.58000 ps :
     Properties:                   Instantaneous       Averaged
       Kinetic energy    (eV) =      11.827597         11.925003
       Potential energy  (eV) =     -79.078710        -79.495422
       Total energy      (eV) =     -67.251113        -67.570419
       Temperature       (K)  =    2951.686548       2975.995084
       Pressure         (GPa) =      23.180181         21.950379
  ** Time :            2.60000 ps :
     Properties:                   Instantaneous       Averaged
       Kinetic energy    (eV) =      11.998589         11.925569
       Potential energy  (eV) =     -78.696886        -79.489280
       Total energy      (eV) =     -66.698297        -67.563711
       Temperature       (K)  =    2994.359195       2976.136346
       Pressure         (GPa) =      23.524997         21.962491
  ** Time :            2.62000 ps :
     Properties:                   Instantaneous       Averaged
       Kinetic energy    (eV) =      12.105608         11.926943
       Potential energy  (eV) =     -79.439483        -79.488900
       Total energy      (eV) =     -67.333876        -67.561956
       Temperature       (K)  =    3021.066626       2976.479325
       Pressure         (GPa) =      22.460300         21.966291
  ** Time :            2.64000 ps :
     Properties:                   Instantaneous       Averaged
       Kinetic energy    (eV) =      11.856136         11.926407
       Potential energy  (eV) =     -80.134867        -79.493793
       Total energy      (eV) =     -68.278731        -67.567386
       Temperature       (K)  =    2958.808595       2976.345456
       Pressure         (GPa) =      21.637618         21.963801
  ** Time :            2.66000 ps :
     Properties:                   Instantaneous       Averaged
       Kinetic energy    (eV) =      11.605940         11.923997
       Potential energy  (eV) =     -77.735763        -79.480575
       Total energy      (eV) =     -66.129823        -67.556578
       Temperature       (K)  =    2896.369867       2975.744136
       Pressure         (GPa) =      23.715615         21.976973
  ** Time :            2.68000 ps :
     Properties:                   Instantaneous       Averaged
       Kinetic energy    (eV) =      12.377835         11.927384
       Potential energy  (eV) =     -79.515060        -79.480832
       Total energy      (eV) =     -67.137225        -67.553448
       Temperature       (K)  =    3089.003569       2976.589356
       Pressure         (GPa) =      22.213828         21.978741
  ** Time :            2.70000 ps :
     Properties:                   Instantaneous       Averaged
       Kinetic energy    (eV) =      11.801211         11.926450
       Potential energy  (eV) =     -80.578735        -79.488965
       Total energy      (eV) =     -68.777524        -67.562515
       Temperature       (K)  =    2945.101767       2976.356114
       Pressure         (GPa) =      20.996818         21.971467
  ** Time :            2.72000 ps :
     Properties:                   Instantaneous       Averaged
       Kinetic energy    (eV) =      11.645535         11.924384
       Potential energy  (eV) =     -78.042215        -79.478327
       Total energy      (eV) =     -66.396680        -67.553943
       Temperature       (K)  =    2906.251158       2975.840636
       Pressure         (GPa) =      23.534608         21.982961
  ** Time :            2.74000 ps :
     Properties:                   Instantaneous       Averaged
       Kinetic energy    (eV) =      11.975716         11.924759
       Potential energy  (eV) =     -77.050806        -79.460608
       Total energy      (eV) =     -65.075090        -67.535849
       Temperature       (K)  =    2988.651076       2975.934143
       Pressure         (GPa) =      24.400075         22.000604
  ** Time :            2.76000 ps :
     Properties:                   Instantaneous       Averaged
       Kinetic energy    (eV) =      12.161741         11.926476
       Potential energy  (eV) =     -78.554910        -79.454045
       Total energy      (eV) =     -66.393169        -67.527569
       Temperature       (K)  =    3035.075213       2976.362702
       Pressure         (GPa) =      22.579042         22.004795
  ** Time :            2.78000 ps :
     Properties:                   Instantaneous       Averaged
       Kinetic energy    (eV) =      12.111962         11.927810
       Potential energy  (eV) =     -79.968070        -79.457743
       Total energy      (eV) =     -67.856108        -67.529932
       Temperature       (K)  =    3022.652362       2976.695721
       Pressure         (GPa) =      21.258205         21.999424
  ** Time :            2.80000 ps :
     Properties:                   Instantaneous       Averaged
       Kinetic energy    (eV) =      11.809988         11.926969
       Potential energy  (eV) =     -80.161458        -79.462769
       Total energy      (eV) =     -68.351470        -67.535801
       Temperature       (K)  =    2947.291993       2976.485694
       Pressure         (GPa) =      21.302135         21.994444
  ** Time :            2.82000 ps :
     Properties:                   Instantaneous       Averaged
       Kinetic energy    (eV) =      11.880265         11.926638
       Potential energy  (eV) =     -78.774760        -79.457890
       Total energy      (eV) =     -66.894494        -67.531252
       Temperature       (K)  =    2964.830390       2976.403033
       Pressure         (GPa) =      22.571665         21.998537
  ** Time :            2.84000 ps :
     Properties:                   Instantaneous       Averaged
       Kinetic energy    (eV) =      11.961417         11.926883
       Potential energy  (eV) =     -79.112920        -79.455461
       Total energy      (eV) =     -67.151503        -67.528578
       Temperature       (K)  =    2985.082510       2976.464156
       Pressure         (GPa) =      22.256644         22.000355
  ** Time :            2.86000 ps :
     Properties:                   Instantaneous       Averaged
       Kinetic energy    (eV) =      11.806352         11.926040
       Potential energy  (eV) =     -78.011764        -79.445365
       Total energy      (eV) =     -66.205412        -67.519325
       Temperature       (K)  =    2946.384686       2976.253810
       Pressure         (GPa) =      23.358293         22.009851
  ** Time :            2.88000 ps :
     Properties:                   Instantaneous       Averaged
       Kinetic energy    (eV) =      11.858004         11.925567
       Potential energy  (eV) =     -77.485226        -79.431753
       Total energy      (eV) =     -65.627223        -67.506186
       Temperature       (K)  =    2959.274745       2976.135900
       Pressure         (GPa) =      24.285453         22.025654
  ** Time :            2.90000 ps :
     Properties:                   Instantaneous       Averaged
       Kinetic energy    (eV) =      11.727886         11.924204
       Potential energy  (eV) =     -76.348787        -79.410491
       Total energy      (eV) =     -64.620901        -67.486287
       Temperature       (K)  =    2926.802697       2975.795671
       Pressure         (GPa) =      25.786939         22.051594
  ** Time :            2.92000 ps :
     Properties:                   Instantaneous       Averaged
       Kinetic energy    (eV) =      12.203710         11.926118
       Potential energy  (eV) =     -75.730304        -79.385284
       Total energy      (eV) =     -63.526594        -67.459166
       Temperature       (K)  =    3045.549069       2976.273434
       Pressure         (GPa) =      26.313392         22.080784
  ** Time :            2.94000 ps :
     Properties:                   Instantaneous       Averaged
       Kinetic energy    (eV) =      12.258714         11.928381
       Potential energy  (eV) =     -79.693083        -79.387378
       Total energy      (eV) =     -67.434369        -67.458997
       Temperature       (K)  =    3059.275795       2976.838075
       Pressure         (GPa) =      22.404483         22.082986
  ** Time :            2.96000 ps :
     Properties:                   Instantaneous       Averaged
       Kinetic energy    (eV) =      12.093782         11.929498
       Potential energy  (eV) =     -80.507380        -79.394946
       Total energy      (eV) =     -68.413598        -67.465447
       Temperature       (K)  =    3018.115541       2977.116977
       Pressure         (GPa) =      21.127816         22.076532
  ** Time :            2.98000 ps :
     Properties:                   Instantaneous       Averaged
       Kinetic energy    (eV) =      12.079735         11.930507
       Potential energy  (eV) =     -81.698435        -79.410405
       Total energy      (eV) =     -69.618700        -67.479899
       Temperature       (K)  =    3014.609926       2977.368608
       Pressure         (GPa) =      19.930830         22.062132
  ** Time :            3.00000 ps :
     Properties:                   Instantaneous       Averaged
       Kinetic energy    (eV) =      12.111363         11.931712
       Potential energy  (eV) =     -82.938192        -79.433924
       Total energy      (eV) =     -70.826829        -67.502211
       Temperature       (K)  =    3022.503013       2977.669504
       Pressure         (GPa) =      18.721140         22.039858
  ** Time :            3.02000 ps :
     Properties:                   Instantaneous       Averaged
       Kinetic energy    (eV) =      11.919245         11.931630
       Potential energy  (eV) =     -83.147822        -79.458519
       Total energy      (eV) =     -71.228576        -67.526889
       Temperature       (K)  =    2974.558207       2977.648899
       Pressure         (GPa) =      18.323330         22.015246
  ** Time :            3.04000 ps :
     Properties:                   Instantaneous       Averaged
       Kinetic energy    (eV) =      11.695543         11.930077
       Potential energy  (eV) =     -81.916839        -79.474692
       Total energy      (eV) =     -70.221296        -67.544616
       Temperature       (K)  =    2918.731126       2977.261282
       Pressure         (GPa) =      19.315155         21.997482
  ** Time :            3.06000 ps :
     Properties:                   Instantaneous       Averaged
       Kinetic energy    (eV) =      12.037087         11.930776
       Potential energy  (eV) =     -82.192393        -79.492455
       Total energy      (eV) =     -70.155306        -67.561679
       Temperature       (K)  =    3003.966641       2977.435827
       Pressure         (GPa) =      19.365143         21.980277
  ** Time :            3.08000 ps :
     Properties:                   Instantaneous       Averaged
       Kinetic energy    (eV) =      11.935364         11.930806
       Potential energy  (eV) =     -81.460256        -79.505233
       Total energy      (eV) =     -69.524892        -67.574427
       Temperature       (K)  =    2978.580777       2977.443262
       Pressure         (GPa) =      19.886753         21.966683
  ** Time :            3.10000 ps :
     Properties:                   Instantaneous       Averaged
       Kinetic energy    (eV) =      12.038947         11.931504
       Potential energy  (eV) =     -82.718596        -79.525964
       Total energy      (eV) =     -70.679649        -67.594461
       Temperature       (K)  =    3004.430902       2977.617376
       Pressure         (GPa) =      18.202562         21.942398
  ** Time :            3.12000 ps :
     Properties:                   Instantaneous       Averaged
       Kinetic energy    (eV) =      11.550803         11.929063
       Potential energy  (eV) =     -80.957247        -79.535139
       Total energy      (eV) =     -69.406444        -67.606076
       Temperature       (K)  =    2882.610060       2977.008354
       Pressure         (GPa) =      19.493265         21.926699
  ** Time :            3.14000 ps :
     Properties:                   Instantaneous       Averaged
       Kinetic energy    (eV) =      11.651473         11.927295
       Potential energy  (eV) =     -78.310461        -79.527339
       Total energy      (eV) =     -66.658988        -67.600044
       Temperature       (K)  =    2907.733019       2976.567110
       Pressure         (GPa) =      22.489308         21.930282
  ** Time :            3.16000 ps :
     Properties:                   Instantaneous       Averaged
       Kinetic energy    (eV) =      12.046043         11.928047
       Potential energy  (eV) =     -77.924583        -79.517195
       Total energy      (eV) =     -65.878540        -67.589148
       Temperature       (K)  =    3006.201677       2976.754671
       Pressure         (GPa) =      23.482541         21.940107
  ** Time :            3.18000 ps :
     Properties:                   Instantaneous       Averaged
       Kinetic energy    (eV) =      12.094356         11.929093
       Potential energy  (eV) =     -79.039186        -79.514188
       Total energy      (eV) =     -66.944830        -67.585096
       Temperature       (K)  =    3018.258642       2977.015702
       Pressure         (GPa) =      22.788657         21.945443
  ** Time :            3.20000 ps :
     Properties:                   Instantaneous       Averaged
       Kinetic energy    (eV) =      11.958802         11.929278
       Potential energy  (eV) =     -79.875528        -79.516447
       Total energy      (eV) =     -67.916726        -67.587168
       Temperature       (K)  =    2984.429993       2977.062041
       Pressure         (GPa) =      21.947457         21.945456
  ** Time :            3.22000 ps :
     Properties:                   Instantaneous       Averaged
       Kinetic energy    (eV) =      11.596643         11.927212
       Potential energy  (eV) =     -78.322762        -79.509033
       Total energy      (eV) =     -66.726119        -67.581820
       Temperature       (K)  =    2894.049710       2976.546437
       Pressure         (GPa) =      23.222372         21.953387
  ** Time :            3.24000 ps :
     Properties:                   Instantaneous       Averaged
       Kinetic energy    (eV) =      11.918041         11.927156
       Potential energy  (eV) =     -76.576604        -79.490931
       Total energy      (eV) =     -64.658564        -67.563776
       Temperature       (K)  =    2974.257643       2976.532308
       Pressure         (GPa) =      25.004763         21.972223
  ** Time :            3.26000 ps :
     Properties:                   Instantaneous       Averaged
       Kinetic energy    (eV) =      11.896527         11.926968
       Potential energy  (eV) =     -76.420890        -79.472097
       Total energy      (eV) =     -64.524363        -67.545129
       Temperature       (K)  =    2968.888762       2976.485416
       Pressure         (GPa) =      25.344351         21.992911
  ** Time :            3.28000 ps :
     Properties:                   Instantaneous       Averaged
       Kinetic energy    (eV) =      12.029890         11.927595
[...]
       Total energy      (eV) =     -65.958310        -65.970260
       Temperature       (K)  =    3197.428014       3173.340315
       Pressure         (GPa) =      23.504379         23.062235
  ** Time :            9.14000 ps :
     Properties:                   Instantaneous       Averaged
       Kinetic energy    (eV) =      11.794275         12.713762
       Potential energy  (eV) =     -77.762160        -78.684016
       Total energy      (eV) =     -65.967885        -65.970254
       Temperature       (K)  =    2943.370703       3172.837099
       Pressure         (GPa) =      24.368556         23.065093
  ** Time :            9.16000 ps :
     Properties:                   Instantaneous       Averaged
       Kinetic energy    (eV) =      10.677346         12.709315
       Potential energy  (eV) =     -76.655300        -78.679587
       Total energy      (eV) =     -65.977953        -65.970271
       Temperature       (K)  =    2664.630770       3171.727479
       Pressure         (GPa) =      25.176574         23.069703
  ** Time :            9.18000 ps :
     Properties:                   Instantaneous       Averaged
       Kinetic energy    (eV) =      10.050252         12.703522
       Potential energy  (eV) =     -75.997812        -78.673744
       Total energy      (eV) =     -65.947559        -65.970222
       Temperature       (K)  =    2508.133701       3170.281741
       Pressure         (GPa) =      25.366718         23.074708
  ** Time :            9.20000 ps :
     Properties:                   Instantaneous       Averaged
       Kinetic energy    (eV) =      13.009260         12.704187
       Potential energy  (eV) =     -78.999900        -78.674453
       Total energy      (eV) =     -65.990640        -65.970266
       Temperature       (K)  =    3246.581490       3170.447610
       Pressure         (GPa) =      22.897438         23.074322
  ** Time :            9.22000 ps :
     Properties:                   Instantaneous       Averaged
       Kinetic energy    (eV) =      12.744154         12.704273
       Potential energy  (eV) =     -78.695793        -78.674499
       Total energy      (eV) =     -65.951639        -65.970226
       Temperature       (K)  =    3180.421780       3170.469245
       Pressure         (GPa) =      23.196759         23.074588
  ** Time :            9.24000 ps :
     Properties:                   Instantaneous       Averaged
       Kinetic energy    (eV) =      13.642719         12.706305
       Potential energy  (eV) =     -79.611243        -78.676527
       Total energy      (eV) =     -65.968524        -65.970222
       Temperature       (K)  =    3404.667000       3170.976167
       Pressure         (GPa) =      22.530990         23.073411
  ** Time :            9.26000 ps :
     Properties:                   Instantaneous       Averaged
       Kinetic energy    (eV) =      14.156920         12.709438
       Potential energy  (eV) =     -80.126524        -78.679659
       Total energy      (eV) =     -65.969604        -65.970221
       Temperature       (K)  =    3532.990707       3171.758056
       Pressure         (GPa) =      21.941620         23.070967
  ** Time :            9.28000 ps :
     Properties:                   Instantaneous       Averaged
       Kinetic energy    (eV) =      13.338055         12.710793
       Potential energy  (eV) =     -79.313825        -78.681025
       Total energy      (eV) =     -65.975770        -65.970233
       Temperature       (K)  =    3328.635203       3172.096153
       Pressure         (GPa) =      22.546565         23.069837
  ** Time :            9.30000 ps :
     Properties:                   Instantaneous       Averaged
       Kinetic energy    (eV) =      11.269444         12.707693
       Potential energy  (eV) =     -77.226979        -78.677898
       Total energy      (eV) =     -65.957535        -65.970205
       Temperature       (K)  =    2812.394196       3171.322601
       Pressure         (GPa) =      24.274414         23.072427
  ** Time :            9.32000 ps :
     Properties:                   Instantaneous       Averaged
       Kinetic energy    (eV) =      11.234676         12.704532
       Potential energy  (eV) =     -77.202240        -78.674732
       Total energy      (eV) =     -65.967564        -65.970200
       Temperature       (K)  =    2803.717552       3170.533749
       Pressure         (GPa) =      24.340927         23.075149
  ** Time :            9.34000 ps :
     Properties:                   Instantaneous       Averaged
       Kinetic energy    (eV) =      12.291337         12.703647
       Potential energy  (eV) =     -78.269288        -78.673863
       Total energy      (eV) =     -65.977951        -65.970216
       Temperature       (K)  =    3067.417097       3170.312942
       Pressure         (GPa) =      23.454909         23.075963
  ** Time :            9.36000 ps :
     Properties:                   Instantaneous       Averaged
       Kinetic energy    (eV) =      11.541961         12.701165
       Potential energy  (eV) =     -77.522139        -78.671402
       Total energy      (eV) =     -65.980178        -65.970238
       Temperature       (K)  =    2880.403436       3169.693477
       Pressure         (GPa) =      24.032448         23.078006
  ** Time :            9.38000 ps :
     Properties:                   Instantaneous       Averaged
       Kinetic energy    (eV) =      11.170214         12.697901
       Potential energy  (eV) =     -77.123225        -78.668101
       Total energy      (eV) =     -65.953011        -65.970201
       Temperature       (K)  =    2787.630495       3168.878844
       Pressure         (GPa) =      24.217230         23.080435
  ** Time :            9.40000 ps :
     Properties:                   Instantaneous       Averaged
       Kinetic energy    (eV) =      13.943673         12.700551
       Potential energy  (eV) =     -79.946065        -78.670821
       Total energy      (eV) =     -66.002392        -65.970269
       Temperature       (K)  =    3479.772828       3169.540321
       Pressure         (GPa) =      21.963299         23.078059
  ** Time :            9.42000 ps :
     Properties:                   Instantaneous       Averaged
       Kinetic energy    (eV) =      11.506134         12.698015
       Potential energy  (eV) =     -77.455471        -78.668240
       Total energy      (eV) =     -65.949337        -65.970225
       Temperature       (K)  =    2871.462486       3168.907459
       Pressure         (GPa) =      24.053772         23.080130
  ** Time :            9.44000 ps :
     Properties:                   Instantaneous       Averaged
       Kinetic energy    (eV) =      12.333166         12.697242
       Potential energy  (eV) =     -78.313476        -78.667489
       Total energy      (eV) =     -65.980310        -65.970246
       Temperature       (K)  =    3077.855923       3168.714553
       Pressure         (GPa) =      23.556138         23.081139
  ** Time :            9.46000 ps :
     Properties:                   Instantaneous       Averaged
       Kinetic energy    (eV) =      12.735442         12.697323
       Potential energy  (eV) =     -78.689636        -78.667535
       Total energy      (eV) =     -65.954194        -65.970212
       Temperature       (K)  =    3178.247540       3168.734707
       Pressure         (GPa) =      22.891959         23.080739
  ** Time :            9.48000 ps :
     Properties:                   Instantaneous       Averaged
       Kinetic energy    (eV) =      14.437058         12.700993
       Potential energy  (eV) =     -80.409798        -78.671211
       Total energy      (eV) =     -65.972740        -65.970218
       Temperature       (K)  =    3602.901592       3169.650671
       Pressure         (GPa) =      21.190552         23.076751
  ** Time :            9.50000 ps :
     Properties:                   Instantaneous       Averaged
       Kinetic energy    (eV) =      15.113643         12.706073
       Potential energy  (eV) =     -81.101312        -78.676327
       Total energy      (eV) =     -65.987669        -65.970254
       Temperature       (K)  =    3771.749844       3170.918249
       Pressure         (GPa) =      20.694802         23.071736
  ** Time :            9.52000 ps :
     Properties:                   Instantaneous       Averaged
       Kinetic energy    (eV) =      12.904083         12.706489
       Potential energy  (eV) =     -78.856474        -78.676706
       Total energy      (eV) =     -65.952391        -65.970217
       Temperature       (K)  =    3220.333654       3171.022062
       Pressure         (GPa) =      22.878042         23.071329
  ** Time :            9.54000 ps :
     Properties:                   Instantaneous       Averaged
       Kinetic energy    (eV) =      12.928146         12.706953
       Potential energy  (eV) =     -78.903620        -78.677181
       Total energy      (eV) =     -65.975473        -65.970228
       Temperature       (K)  =    3226.338849       3171.138031
       Pressure         (GPa) =      23.533020         23.072297
  ** Time :            9.56000 ps :
     Properties:                   Instantaneous       Averaged
       Kinetic energy    (eV) =      12.613234         12.706757
       Potential energy  (eV) =     -78.559995        -78.676936
       Total energy      (eV) =     -65.946761        -65.970179
       Temperature       (K)  =    3147.749524       3171.089101
       Pressure         (GPa) =      23.811014         23.073843
  ** Time :            9.58000 ps :
     Properties:                   Instantaneous       Averaged
       Kinetic energy    (eV) =      14.807871         12.711144
       Potential energy  (eV) =     -80.787401        -78.681342
       Total energy      (eV) =     -65.979529        -65.970198
       Temperature       (K)  =    3695.441639       3172.183782
       Pressure         (GPa) =      21.709304         23.070994
  ** Time :            9.60000 ps :
     Properties:                   Instantaneous       Averaged
       Kinetic energy    (eV) =      14.203205         12.714252
       Potential energy  (eV) =     -80.162241        -78.684427
       Total energy      (eV) =     -65.959036        -65.970175
       Temperature       (K)  =    3544.541600       3172.959528
       Pressure         (GPa) =      21.763822         23.068271
  ** Time :            9.62000 ps :
     Properties:                   Instantaneous       Averaged
       Kinetic energy    (eV) =      13.852258         12.716618
       Potential energy  (eV) =     -79.816278        -78.686780
       Total energy      (eV) =     -65.964021        -65.970162
       Temperature       (K)  =    3456.959406       3173.549964
       Pressure         (GPa) =      21.715209         23.065458
  ** Time :            9.64000 ps :
     Properties:                   Instantaneous       Averaged
       Kinetic energy    (eV) =      13.675502         12.718607
       Potential energy  (eV) =     -79.639564        -78.688757
       Total energy      (eV) =     -65.964062        -65.970150
       Temperature       (K)  =    3412.848440       3174.046434
       Pressure         (GPa) =      21.622676         23.062464
  ** Time :            9.66000 ps :
     Properties:                   Instantaneous       Averaged
       Kinetic energy    (eV) =      13.473314         12.720170
       Potential energy  (eV) =     -79.442712        -78.690318
       Total energy      (eV) =     -65.969398        -65.970148
       Temperature       (K)  =    3362.390499       3174.436380
       Pressure         (GPa) =      21.904146         23.060066
  ** Time :            9.68000 ps :
     Properties:                   Instantaneous       Averaged
       Kinetic energy    (eV) =      12.198797         12.719093
       Potential energy  (eV) =     -78.167134        -78.689237
       Total energy      (eV) =     -65.968337        -65.970144
       Temperature       (K)  =    3044.322830       3174.167551
       Pressure         (GPa) =      23.188504         23.060332
  ** Time :            9.70000 ps :
     Properties:                   Instantaneous       Averaged
       Kinetic energy    (eV) =      12.658399         12.718968
       Potential energy  (eV) =     -78.627155        -78.689109
       Total energy      (eV) =     -65.968756        -65.970142
       Temperature       (K)  =    3159.020925       3174.136320
       Pressure         (GPa) =      22.857689         23.059914
  ** Time :            9.72000 ps :
     Properties:                   Instantaneous       Averaged
       Kinetic energy    (eV) =      14.386166         12.722398
       Potential energy  (eV) =     -80.374973        -78.692578
       Total energy      (eV) =     -65.988808        -65.970180
       Temperature       (K)  =    3590.201049       3174.992421
       Pressure         (GPa) =      21.348068         23.056391
  ** Time :            9.74000 ps :
     Properties:                   Instantaneous       Averaged
       Kinetic energy    (eV) =      12.035317         12.720987
       Potential energy  (eV) =     -78.005324        -78.691167
       Total energy      (eV) =     -65.970007        -65.970180
       Temperature       (K)  =    3003.524918       3174.640331
       Pressure         (GPa) =      23.313112         23.056919
  ** Time :            9.76000 ps :
     Properties:                   Instantaneous       Averaged
       Kinetic energy    (eV) =      10.902016         12.717260
       Potential energy  (eV) =     -76.865159        -78.687425
       Total energy      (eV) =     -65.963142        -65.970165
       Temperature       (K)  =    2720.699292       3173.710124
       Pressure         (GPa) =      24.181660         23.059223
  ** Time :            9.78000 ps :
     Properties:                   Instantaneous       Averaged
       Kinetic energy    (eV) =      12.542958         12.716903
       Potential energy  (eV) =     -78.516509        -78.687075
       Total energy      (eV) =     -65.973551        -65.970172
       Temperature       (K)  =    3130.211469       3173.621170
       Pressure         (GPa) =      22.757739         23.058607
  ** Time :            9.80000 ps :
     Properties:                   Instantaneous       Averaged
       Kinetic energy    (eV) =      13.324394         12.718143
       Potential energy  (eV) =     -79.311334        -78.688349
       Total energy      (eV) =     -65.986940        -65.970206
       Temperature       (K)  =    3325.226154       3173.930568
       Pressure         (GPa) =      22.533715         23.057536
  ** Time :            9.82000 ps :
     Properties:                   Instantaneous       Averaged
       Kinetic energy    (eV) =      12.532478         12.717765
       Potential energy  (eV) =     -78.486371        -78.687938
       Total energy      (eV) =     -65.953893        -65.970173
       Temperature       (K)  =    3127.596066       3173.836200
       Pressure         (GPa) =      23.461544         23.058358
  ** Time :            9.84000 ps :
     Properties:                   Instantaneous       Averaged
       Kinetic energy    (eV) =      14.757714         12.721911
       Potential energy  (eV) =     -80.743485        -78.692116
       Total energy      (eV) =     -65.985771        -65.970205
       Temperature       (K)  =    3682.924492       3174.870933
       Pressure         (GPa) =      21.619222         23.055433
  ** Time :            9.86000 ps :
     Properties:                   Instantaneous       Averaged
       Kinetic energy    (eV) =      14.341016         12.725195
       Potential energy  (eV) =     -80.321651        -78.695421
       Total energy      (eV) =     -65.980635        -65.970226
       Temperature       (K)  =    3578.933437       3175.690532
       Pressure         (GPa) =      21.760851         23.052807
  ** Time :            9.88000 ps :
     Properties:                   Instantaneous       Averaged
       Kinetic energy    (eV) =      12.298666         12.724332
       Potential energy  (eV) =     -78.251110        -78.694522
       Total energy      (eV) =     -65.952444        -65.970190
       Temperature       (K)  =    3069.246219       3175.475058
       Pressure         (GPa) =      23.537413         23.053788
  ** Time :            9.90000 ps :
     Properties:                   Instantaneous       Averaged
       Kinetic energy    (eV) =      13.272830         12.725440
       Potential energy  (eV) =     -79.263436        -78.695671
       Total energy      (eV) =     -65.990606        -65.970231
       Temperature       (K)  =    3312.357716       3175.751588
       Pressure         (GPa) =      23.067363         23.053816
  ** Time :            9.92000 ps :
     Properties:                   Instantaneous       Averaged
       Kinetic energy    (eV) =      12.748178         12.725486
       Potential energy  (eV) =     -78.708754        -78.695698
       Total energy      (eV) =     -65.960577        -65.970212
       Temperature       (K)  =    3181.426021       3175.763029
       Pressure         (GPa) =      23.083821         23.053876
  ** Time :            9.94000 ps :
     Properties:                   Instantaneous       Averaged
       Kinetic energy    (eV) =      13.830584         12.727709
       Potential energy  (eV) =     -79.807047        -78.697934
       Total energy      (eV) =     -65.976463        -65.970224
       Temperature       (K)  =    3451.550411       3176.317933
       Pressure         (GPa) =      22.294620         23.052349
  ** Time :            9.96000 ps :
     Properties:                   Instantaneous       Averaged
       Kinetic energy    (eV) =      13.843253         12.729950
       Potential energy  (eV) =     -79.812240        -78.700171
       Total energy      (eV) =     -65.968986        -65.970222
       Temperature       (K)  =    3454.712255       3176.876958
       Pressure         (GPa) =      22.621408         23.051483
  ** Time :            9.98000 ps :
     Properties:                   Instantaneous       Averaged
       Kinetic energy    (eV) =      13.431485         12.731355
       Potential energy  (eV) =     -79.398557        -78.701571
       Total energy      (eV) =     -65.967072        -65.970215
       Temperature       (K)  =    3351.951578       3177.227809
       Pressure         (GPa) =      22.842353         23.051064
  ** Time :           10.00000 ps :
     Properties:                   Instantaneous       Averaged
       Kinetic energy    (eV) =      12.508078         12.730909
       Potential energy  (eV) =     -78.499977        -78.701168
       Total energy      (eV) =     -65.991899        -65.970259
       Temperature       (K)  =    3121.506757       3177.116367
       Pressure         (GPa) =      23.424598         23.051811

  Peak dynamic memory used =       0.57 MB 


  Timing analysis for GULP :

--------------------------------------------------------------------------------
  Task / Subroutine                                          Time (Seconds)
--------------------------------------------------------------------------------
  Calculation of real space energy and derivatives                4.2080
  Calculation of many-body energy and derivatives                 2.2680
  Molecular dynamics - update of geometry                         0.0120
  Molecular dynamics - corrector                                  0.0040
--------------------------------------------------------------------------------
  Total CPU time                                                  6.7600
--------------------------------------------------------------------------------


  Dump file written as Recovery_2_3000_0.005.res                               
  GULP ASCII trajectory file written as Trajectories_2_3000_0.005.trg           


  Job Finished at 17:42.16 17th May        2018                               

