********************************************************************************
*                       GENERAL UTILITY LATTICE PROGRAM                        *
*                                 Julian Gale                                  *
*                       Curtin Institute for Computation                       *
*                           Department of Chemistry                            *
*                    Curtin University, Western Australia                      *
********************************************************************************
* Version = 5.0.0 * Last modified =  18th April 2018                           *
********************************************************************************
*  single       - perform a single point run                                   *
*  md           - perform molecular dynamics run                               *
*  conv         - constant volume calculation                                  *
********************************************************************************
* molecular dynamics of silver                                                 *
********************************************************************************


  Job Started  at 17:42.28 17th May        2018                               

  Number of CPUs =     1


  Total number of configurations input =   1

********************************************************************************
*  Input for Configuration =   1                                               *
********************************************************************************

  Formula = Ag32                                                        

  Number of irreducible atoms/shells =      32


  Total number atoms/shells =      32

  Dimensionality = 3               :  Bulk   



  Supercell dimensions :  x =   2  y =   2  z =   2

  Cartesian lattice vectors (Angstroms) :

        8.170000    0.000000    0.000000
        0.000000    8.170000    0.000000
        0.000000    0.000000    8.170000

  Cell parameters (Angstroms/Degrees):

  a =       8.1700    alpha =  90.0000
  b =       8.1700    beta  =  90.0000
  c =       8.1700    gamma =  90.0000

  Initial cell volume =         545.338513 Angs**3

  Temperature of configuration =  3000.     K 

  Pressure of configuration =         0.000 GPa 

  Fractional coordinates of asymmetric unit :

--------------------------------------------------------------------------------
   No.  Atomic       x           y          z         Charge      Occupancy
        Label      (Frac)      (Frac)     (Frac)        (e)         (Frac)  
--------------------------------------------------------------------------------
      1 Ag    c    0.000000 *  0.000000 *  0.000000 *   0.00000    1.000000    
      2 Ag    c    0.000000 *  0.000000 *  0.500000 *   0.00000    1.000000    
      3 Ag    c    0.000000 *  0.500000 *  0.000000 *   0.00000    1.000000    
      4 Ag    c    0.000000 *  0.500000 *  0.500000 *   0.00000    1.000000    
      5 Ag    c    0.500000 *  0.000000 *  0.000000 *   0.00000    1.000000    
      6 Ag    c    0.500000 *  0.000000 *  0.500000 *   0.00000    1.000000    
      7 Ag    c    0.500000 *  0.500000 *  0.000000 *   0.00000    1.000000    
      8 Ag    c    0.500000 *  0.500000 *  0.500000 *   0.00000    1.000000    
      9 Ag    c    0.000000 *  0.250000 *  0.250000 *   0.00000    1.000000    
     10 Ag    c    0.000000 *  0.250000 *  0.750000 *   0.00000    1.000000    
     11 Ag    c    0.000000 *  0.750000 *  0.250000 *   0.00000    1.000000    
     12 Ag    c    0.000000 *  0.750000 *  0.750000 *   0.00000    1.000000    
     13 Ag    c    0.500000 *  0.250000 *  0.250000 *   0.00000    1.000000    
     14 Ag    c    0.500000 *  0.250000 *  0.750000 *   0.00000    1.000000    
     15 Ag    c    0.500000 *  0.750000 *  0.250000 *   0.00000    1.000000    
     16 Ag    c    0.500000 *  0.750000 *  0.750000 *   0.00000    1.000000    
     17 Ag    c    0.250000 *  0.000000 *  0.250000 *   0.00000    1.000000    
     18 Ag    c    0.250000 *  0.000000 *  0.750000 *   0.00000    1.000000    
     19 Ag    c    0.250000 *  0.500000 *  0.250000 *   0.00000    1.000000    
     20 Ag    c    0.250000 *  0.500000 *  0.750000 *   0.00000    1.000000    
     21 Ag    c    0.750000 *  0.000000 *  0.250000 *   0.00000    1.000000    
     22 Ag    c    0.750000 *  0.000000 *  0.750000 *   0.00000    1.000000    
     23 Ag    c    0.750000 *  0.500000 *  0.250000 *   0.00000    1.000000    
     24 Ag    c    0.750000 *  0.500000 *  0.750000 *   0.00000    1.000000    
     25 Ag    c    0.250000 *  0.250000 *  0.000000 *   0.00000    1.000000    
     26 Ag    c    0.250000 *  0.250000 *  0.500000 *   0.00000    1.000000    
     27 Ag    c    0.250000 *  0.750000 *  0.000000 *   0.00000    1.000000    
     28 Ag    c    0.250000 *  0.750000 *  0.500000 *   0.00000    1.000000    
     29 Ag    c    0.750000 *  0.250000 *  0.000000 *   0.00000    1.000000    
     30 Ag    c    0.750000 *  0.250000 *  0.500000 *   0.00000    1.000000    
     31 Ag    c    0.750000 *  0.750000 *  0.000000 *   0.00000    1.000000    
     32 Ag    c    0.750000 *  0.750000 *  0.500000 *   0.00000    1.000000    
--------------------------------------------------------------------------------



********************************************************************************
*  General input information                                                   *
********************************************************************************

  Species output for all configurations : 

--------------------------------------------------------------------------------
  Species    Type    Atomic    Atomic    Charge       Radii (Angs)     Library
                     Number     Mass       (e)     Cova   Ionic  VDW   Symbol
--------------------------------------------------------------------------------
    Ag       Core       47     107.87   0.000000   1.590  0.000  2.370          
--------------------------------------------------------------------------------


  Lattice summation method               =    Ewald          (3-D)
                                         =    Parry          (2-D)
                                         =    Saunders et al (1-D)
  Accuracy factor for lattice sums       =   12.000


  Time limit = Infinity

  Maximum range for interatomic potentials =    100000.000000 Angstroms

  General interatomic potentials :

--------------------------------------------------------------------------------
Atom  Types   Potential      Parameter       Value         Units   Cutoffs(Ang)
  1     2                                                            Min /  Max 
--------------------------------------------------------------------------------
Ag   c Ag   c Many-body                                             0.000  8.000
--------------------------------------------------------------------------------
Ag   c Ag   c Buckingham    Buckingham A     11454.950    eV        0.000 12.000
                            Buckingham rho  0.26432400    Ang       
                            Buckingham C     0.0000000    eV*Ang^6  
--------------------------------------------------------------------------------

  Embedded Atom Model Densities :

--------------------------------------------------------------------------------
  Atom(s)       Functional Form          A          B          C         n      
--------------------------------------------------------------------------------
  Ag   c        Exponential          1.388      2.173      2.889         0
--------------------------------------------------------------------------------


  Embedded Atom Model alloy parameters :

--------------------------------------------------------------------------------
  Atom(s)                          Scale factor 
--------------------------------------------------------------------------------
  Ag    c                            1.000000
--------------------------------------------------------------------------------

  Embedded Atom Model functional = Square Root

--------------------------------------------------------------------------------
  Atom                     A     
--------------------------------------------------------------------------------
  Ag    c               1.000000
--------------------------------------------------------------------------------


  Manybody second derivative cross term cutoffs to be scale by = 0.50000000

********************************************************************************
*  Output for configuration   1                                                *
********************************************************************************


  Components of energy : 

--------------------------------------------------------------------------------
  Interatomic potentials     =          39.71625760 eV    
  Many-body potentials       =        -134.45860512 eV    
  Monopole - monopole (real) =           0.00000000 eV    
  Monopole - monopole (recip)=           0.00000000 eV    
  Monopole - monopole (total)=           0.00000000 eV    
--------------------------------------------------------------------------------
  Total lattice energy       =         -94.74234752 eV    
--------------------------------------------------------------------------------
  Total lattice energy       =           -9141.1883 kJ/(mole unit cells)
--------------------------------------------------------------------------------

  Equations of motion will be integrated using the leapfrog Verlet algorithm.

********************************************************************************
*  Molecular Dynamics                                                          *
********************************************************************************

  Microcanonical ensemble (NVE) to be used

  No. of mobile ions        =                 32

  No. of degrees of freedom =                 93

  Time step                 =           0.008000 ps
  Equilibration time        =           5.000000 ps
  Production time           =          10.000000 ps
  Scaling time              =           5.000000 ps
  Scaling frequency         =           0.008000 ps
  Sampling frequency        =           0.024000 ps
  Write frequency           =           0.024000 ps
  TD-Force start time       =           0.000000 ps
  TD-Field start time       =           0.000000 ps



  Molecular dynamics equilibration :

  ** Time :            0.02400 ps :
     Properties:                   Instantaneous       Averaged
       Kinetic energy    (eV) =      11.197271         11.197271
       Potential energy  (eV) =     -93.192248        -93.192248
       Total energy      (eV) =     -81.994977        -81.994977
       Temperature       (K)  =    2794.382828       2794.382828
       Pressure         (GPa) =       4.393971          4.393971
  ** Time :            0.04800 ps :
     Properties:                   Instantaneous       Averaged
       Kinetic energy    (eV) =      10.203740         10.700506
       Potential energy  (eV) =     -85.296761        -89.244504
       Total energy      (eV) =     -75.093020        -78.543998
       Temperature       (K)  =    2546.438035       2670.410432
       Pressure         (GPa) =      14.042227          9.218099
  ** Time :            0.07200 ps :
     Properties:                   Instantaneous       Averaged
       Kinetic energy    (eV) =      11.909763         11.103591
       Potential energy  (eV) =     -81.797904        -86.762304
       Total energy      (eV) =     -69.888141        -75.658713
       Temperature       (K)  =    2972.191684       2771.004182
       Pressure         (GPa) =      18.953303         12.463167
  ** Time :            0.09600 ps :
     Properties:                   Instantaneous       Averaged
       Kinetic energy    (eV) =      11.451487         11.190565
       Potential energy  (eV) =     -80.838590        -85.281376
       Total energy      (eV) =     -69.387103        -74.090810
       Temperature       (K)  =    2857.824812       2792.709340
       Pressure         (GPa) =      19.835220         14.306180
  ** Time :            0.12000 ps :
     Properties:                   Instantaneous       Averaged
       Kinetic energy    (eV) =      11.606405         11.273733
       Potential energy  (eV) =     -79.346886        -84.094478
       Total energy      (eV) =     -67.740481        -72.820744
       Temperature       (K)  =    2896.486041       2813.464680
       Pressure         (GPa) =      21.849500         15.814844
  ** Time :            0.14400 ps :
     Properties:                   Instantaneous       Averaged
       Kinetic energy    (eV) =      11.253300         11.270328
       Potential energy  (eV) =     -76.727336        -82.866621
       Total energy      (eV) =     -65.474036        -71.596293
       Temperature       (K)  =    2808.365345       2812.614791
       Pressure         (GPa) =      24.699796         17.295669
  ** Time :            0.16800 ps :
     Properties:                   Instantaneous       Averaged
       Kinetic energy    (eV) =      12.341054         11.423289
       Potential energy  (eV) =     -77.168570        -82.052613
       Total energy      (eV) =     -64.827516        -70.629325
       Temperature       (K)  =    3079.824495       2850.787606
       Pressure         (GPa) =      24.404421         18.311205
  ** Time :            0.19200 ps :
     Properties:                   Instantaneous       Averaged
       Kinetic energy    (eV) =      11.921999         11.485627
       Potential energy  (eV) =     -79.719456        -81.760969
       Total energy      (eV) =     -67.797457        -70.275341
       Temperature       (K)  =    2975.245492       2866.344841
       Pressure         (GPa) =      21.630146         18.726073
  ** Time :            0.21600 ps :
     Properties:                   Instantaneous       Averaged
       Kinetic energy    (eV) =      11.749644         11.514963
       Potential energy  (eV) =     -79.183993        -81.474638
       Total energy      (eV) =     -67.434348        -69.959675
       Temperature       (K)  =    2932.232733       2873.665718
       Pressure         (GPa) =      21.929520         19.082011
  ** Time :            0.24000 ps :
     Properties:                   Instantaneous       Averaged
       Kinetic energy    (eV) =      12.036149         11.567081
       Potential energy  (eV) =     -79.593069        -81.286481
       Total energy      (eV) =     -67.556921        -69.719400
       Temperature       (K)  =    3003.732494       2886.672396
       Pressure         (GPa) =      21.449966         19.318807
  ** Time :            0.26400 ps :
     Properties:                   Instantaneous       Averaged
       Kinetic energy    (eV) =      11.862198         11.593910
       Potential energy  (eV) =     -80.540922        -81.218703
       Total energy      (eV) =     -68.678724        -69.624793
       Temperature       (K)  =    2960.321452       2893.367765
       Pressure         (GPa) =      20.448070         19.421467
  ** Time :            0.28800 ps :
     Properties:                   Instantaneous       Averaged
       Kinetic energy    (eV) =      11.900553         11.619464
       Potential energy  (eV) =     -80.319869        -81.143800
       Total energy      (eV) =     -68.419316        -69.524337
       Temperature       (K)  =    2969.893283       2899.744891
       Pressure         (GPa) =      20.570449         19.517216
  ** Time :            0.31200 ps :
     Properties:                   Instantaneous       Averaged
       Kinetic energy    (eV) =      11.311404         11.595767
       Potential energy  (eV) =     -79.302172        -81.002136
       Total energy      (eV) =     -67.990769        -69.406370
       Temperature       (K)  =    2822.865727       2893.831109
       Pressure         (GPa) =      21.995724         19.707870
  ** Time :            0.33600 ps :
     Properties:                   Instantaneous       Averaged
       Kinetic energy    (eV) =      11.990288         11.623947
       Potential energy  (eV) =     -77.501392        -80.752083
       Total energy      (eV) =     -65.511104        -69.128137
       Temperature       (K)  =    2992.287479       2900.863707
       Pressure         (GPa) =      24.098551         20.021490
  ** Time :            0.36000 ps :
     Properties:                   Instantaneous       Averaged
       Kinetic energy    (eV) =      11.438947         11.611613
       Potential energy  (eV) =     -78.210535        -80.582647
       Total energy      (eV) =     -66.771588        -68.971033
       Temperature       (K)  =    2854.695273       2897.785811
       Pressure         (GPa) =      23.138982         20.229323
  ** Time :            0.38400 ps :
     Properties:                   Instantaneous       Averaged
       Kinetic energy    (eV) =      12.058162         11.639523
       Potential energy  (eV) =     -77.108533        -80.365515
       Total energy      (eV) =     -65.050371        -68.725992
       Temperature       (K)  =    3009.226044       2904.750826
       Pressure         (GPa) =      24.246359         20.480388
  ** Time :            0.40800 ps :
     Properties:                   Instantaneous       Averaged
       Kinetic energy    (eV) =      11.605095         11.637498
       Potential energy  (eV) =     -77.582248        -80.201793
       Total energy      (eV) =     -65.977153        -68.564296
       Temperature       (K)  =    2896.159042       2904.245427
       Pressure         (GPa) =      23.997369         20.687269
  ** Time :            0.43200 ps :
     Properties:                   Instantaneous       Averaged
       Kinetic energy    (eV) =      12.077749         11.661956
       Potential energy  (eV) =     -78.569211        -80.111094
       Total energy      (eV) =     -66.491462        -68.449138
       Temperature       (K)  =    3014.114180       2910.349247
       Pressure         (GPa) =      22.697883         20.798970
  ** Time :            0.45600 ps :
     Properties:                   Instantaneous       Averaged
       Kinetic energy    (eV) =      11.819572         11.670251
       Potential energy  (eV) =     -79.760911        -80.092663
       Total energy      (eV) =     -67.941340        -68.422412
       Temperature       (K)  =    2949.683761       2912.419484
       Pressure         (GPa) =      20.903806         20.804487
  ** Time :            0.48000 ps :
     Properties:                   Instantaneous       Averaged
       Kinetic energy    (eV) =      11.796187         11.676548
       Potential energy  (eV) =     -79.345293        -80.055295
       Total energy      (eV) =     -67.549106        -68.378747
       Temperature       (K)  =    2943.847883       2913.990904
       Pressure         (GPa) =      21.536338         20.841080
  ** Time :            0.50400 ps :
     Properties:                   Instantaneous       Averaged
       Kinetic energy    (eV) =      12.097097         11.696574
       Potential energy  (eV) =     -79.198252        -80.014483
       Total energy      (eV) =     -67.101155        -68.317909
       Temperature       (K)  =    3018.942800       2918.988613
       Pressure         (GPa) =      21.630303         20.878662
  ** Time :            0.52800 ps :
     Properties:                   Instantaneous       Averaged
       Kinetic energy    (eV) =      11.912584         11.706393
       Potential energy  (eV) =     -82.005364        -80.104978
       Total energy      (eV) =     -70.092779        -68.398585
       Temperature       (K)  =    2972.895891       2921.438944
       Pressure         (GPa) =      18.551810         20.772896
  ** Time :            0.55200 ps :
     Properties:                   Instantaneous       Averaged
       Kinetic energy    (eV) =      11.986801         11.718585
       Potential energy  (eV) =     -81.331887        -80.158322
       Total energy      (eV) =     -69.345086        -68.439737
       Temperature       (K)  =    2991.417310       2924.481482
       Pressure         (GPa) =      19.209469         20.704921
  ** Time :            0.57600 ps :
     Properties:                   Instantaneous       Averaged
       Kinetic energy    (eV) =      11.721707         11.718715
       Potential energy  (eV) =     -81.618267        -80.219153
       Total energy      (eV) =     -69.896559        -68.500438
       Temperature       (K)  =    2925.260751       2924.513951
       Pressure         (GPa) =      18.919243         20.630518
  ** Time :            0.60000 ps :
     Properties:                   Instantaneous       Averaged
       Kinetic energy    (eV) =      12.146091         11.735810
       Potential energy  (eV) =     -82.472679        -80.309294
       Total energy      (eV) =     -70.326588        -68.573484
       Temperature       (K)  =    3031.169605       2928.780178
       Pressure         (GPa) =      18.102648         20.529403
  ** Time :            0.62400 ps :
     Properties:                   Instantaneous       Averaged
       Kinetic energy    (eV) =      11.165573         11.713878
       Potential energy  (eV) =     -80.796197        -80.328021
       Total energy      (eV) =     -69.630624        -68.614143
       Temperature       (K)  =    2786.472331       2923.306799
       Pressure         (GPa) =      19.982464         20.508367
  ** Time :            0.64800 ps :
     Properties:                   Instantaneous       Averaged
       Kinetic energy    (eV) =      11.306764         11.698799
       Potential energy  (eV) =     -78.412289        -80.257068
       Total energy      (eV) =     -67.105525        -68.558268
       Temperature       (K)  =    2821.707739       2919.543871
       Pressure         (GPa) =      23.246163         20.609767
  ** Time :            0.67200 ps :
     Properties:                   Instantaneous       Averaged
       Kinetic energy    (eV) =      12.373546         11.722897
       Potential energy  (eV) =     -76.951137        -80.138999
       Total energy      (eV) =     -64.577592        -68.416101
       Temperature       (K)  =    3087.933066       2925.557771
       Pressure         (GPa) =      24.461744         20.747337
  ** Time :            0.69600 ps :
     Properties:                   Instantaneous       Averaged
       Kinetic energy    (eV) =      11.959268         11.731048
       Potential energy  (eV) =     -80.399418        -80.147979
       Total energy      (eV) =     -68.440151        -68.416931
       Temperature       (K)  =    2984.546194       2927.591854
       Pressure         (GPa) =      20.467660         20.737693
  ** Time :            0.72000 ps :
     Properties:                   Instantaneous       Averaged
       Kinetic energy    (eV) =      11.907301         11.736923
       Potential energy  (eV) =     -80.887765        -80.172638
       Total energy      (eV) =     -68.980465        -68.435715
       Temperature       (K)  =    2971.577300       2929.058036
       Pressure         (GPa) =      20.046984         20.714670
  ** Time :            0.74400 ps :
     Properties:                   Instantaneous       Averaged
       Kinetic energy    (eV) =      11.452793         11.727758
       Potential energy  (eV) =     -79.529152        -80.151881
       Total energy      (eV) =     -68.076359        -68.424123
       Temperature       (K)  =    2858.150762       2926.770704
       Pressure         (GPa) =      22.040320         20.757433
  ** Time :            0.76800 ps :
     Properties:                   Instantaneous       Averaged
       Kinetic energy    (eV) =      11.475493         11.719874
       Potential energy  (eV) =     -77.607055        -80.072355
       Total energy      (eV) =     -66.131561        -68.352480
       Temperature       (K)  =    2863.815765       2924.803362
       Pressure         (GPa) =      24.602662         20.877596
  ** Time :            0.79200 ps :
     Properties:                   Instantaneous       Averaged
       Kinetic energy    (eV) =      11.752484         11.720863
       Potential energy  (eV) =     -75.650071        -79.938346
       Total energy      (eV) =     -63.897587        -68.217484
       Temperature       (K)  =    2932.941337       2925.049968
       Pressure         (GPa) =      26.327301         21.042739
  ** Time :            0.81600 ps :
     Properties:                   Instantaneous       Averaged
       Kinetic energy    (eV) =      12.488313         11.743435
       Potential energy  (eV) =     -80.579225        -79.957196
       Total energy      (eV) =     -68.090911        -68.213761
       Temperature       (K)  =    3116.574431       2930.683040
       Pressure         (GPa) =      21.524381         21.056905
  ** Time :            0.84000 ps :
     Properties:                   Instantaneous       Averaged
       Kinetic energy    (eV) =      11.705836         11.742360
       Potential energy  (eV) =     -81.540261        -80.002426
       Total energy      (eV) =     -69.834425        -68.260066
       Temperature       (K)  =    2921.300026       2930.414954
       Pressure         (GPa) =      20.213999         21.032821
  ** Time :            0.86400 ps :
     Properties:                   Instantaneous       Averaged
       Kinetic energy    (eV) =      11.707447         11.741391
       Potential energy  (eV) =     -80.010250        -80.002643
       Total energy      (eV) =     -68.302803        -68.261253
       Temperature       (K)  =    2921.701887       2930.172924
       Pressure         (GPa) =      21.666553         21.050425
  ** Time :            0.88800 ps :
     Properties:                   Instantaneous       Averaged
       Kinetic energy    (eV) =      11.357439         11.731014
       Potential energy  (eV) =     -79.101002        -79.978275
       Total energy      (eV) =     -67.743563        -68.247261
       Temperature       (K)  =    2834.354314       2927.583232
       Pressure         (GPa) =      22.745638         21.096242
  ** Time :            0.91200 ps :
     Properties:                   Instantaneous       Averaged
       Kinetic energy    (eV) =      11.870653         11.734688
       Potential energy  (eV) =     -76.511309        -79.887039
       Total energy      (eV) =     -64.640657        -68.152351
       Temperature       (K)  =    2962.431471       2928.500291
       Pressure         (GPa) =      25.672310         21.216665
  ** Time :            0.93600 ps :
     Properties:                   Instantaneous       Averaged
       Kinetic energy    (eV) =      12.065390         11.743168
       Potential energy  (eV) =     -79.513698        -79.877466
       Total energy      (eV) =     -67.448308        -68.134298
       Temperature       (K)  =    3011.029995       2930.616437
       Pressure         (GPa) =      22.550925         21.250876
  ** Time :            0.96000 ps :
     Properties:                   Instantaneous       Averaged
       Kinetic energy    (eV) =      11.846757         11.745758
       Potential energy  (eV) =     -79.781611        -79.875070
       Total energy      (eV) =     -67.934854        -68.129312
       Temperature       (K)  =    2956.468110       2931.262729
       Pressure         (GPa) =      21.482414         21.256665
  ** Time :            0.98400 ps :
     Properties:                   Instantaneous       Averaged
       Kinetic energy    (eV) =      11.834562         11.747924
       Potential energy  (eV) =     -79.335558        -79.861911
       Total energy      (eV) =     -67.500997        -68.113987
       Temperature       (K)  =    2953.424695       2931.803265
       Pressure         (GPa) =      21.805148         21.270042
  ** Time :            1.00800 ps :
     Properties:                   Instantaneous       Averaged
       Kinetic energy    (eV) =      11.941711         11.752538
       Potential energy  (eV) =     -80.889932        -79.886388
       Total energy      (eV) =     -68.948221        -68.133850
       Temperature       (K)  =    2980.164630       2932.954726
       Pressure         (GPa) =      20.333869         21.247753
  ** Time :            1.03200 ps :
     Properties:                   Instantaneous       Averaged
       Kinetic energy    (eV) =      11.278240         11.741507
       Potential energy  (eV) =     -78.315420        -79.849853
       Total energy      (eV) =     -67.037180        -68.108346
       Temperature       (K)  =    2814.589398       2930.202044
       Pressure         (GPa) =      22.723516         21.282073
  ** Time :            1.05600 ps :
     Properties:                   Instantaneous       Averaged
       Kinetic energy    (eV) =      12.090121         11.749430
       Potential energy  (eV) =     -80.044147        -79.854269
       Total energy      (eV) =     -67.954026        -68.104839
       Temperature       (K)  =    3017.201749       2932.179310
       Pressure         (GPa) =      21.364654         21.283950
  ** Time :            1.08000 ps :
     Properties:                   Instantaneous       Averaged
       Kinetic energy    (eV) =      11.673478         11.747743
       Potential energy  (eV) =     -79.172255        -79.839113
       Total energy      (eV) =     -67.498777        -68.091371
       Temperature       (K)  =    2913.224810       2931.758099
       Pressure         (GPa) =      22.119368         21.302514
  ** Time :            1.10400 ps :
     Properties:                   Instantaneous       Averaged
       Kinetic energy    (eV) =      11.705134         11.746816
       Potential energy  (eV) =     -78.189540        -79.803253
       Total energy      (eV) =     -66.484406        -68.056437
       Temperature       (K)  =    2921.124802       2931.526940
       Pressure         (GPa) =      23.158623         21.342865
  ** Time :            1.12800 ps :
     Properties:                   Instantaneous       Averaged
       Kinetic energy    (eV) =      11.774018         11.747395
       Potential energy  (eV) =     -78.627754        -79.778242
       Total energy      (eV) =     -66.853736        -68.030847
       Temperature       (K)  =    2938.315413       2931.671376
       Pressure         (GPa) =      22.900218         21.376000
  ** Time :            1.15200 ps :
     Properties:                   Instantaneous       Averaged
       Kinetic energy    (eV) =      11.553519         11.743356
       Potential energy  (eV) =     -77.075919        -79.721944
       Total energy      (eV) =     -65.522400        -67.978588
       Temperature       (K)  =    2883.287898       2930.663387
       Pressure         (GPa) =      23.634899         21.423060
  ** Time :            1.17600 ps :
     Properties:                   Instantaneous       Averaged
       Kinetic energy    (eV) =      12.130585         11.751259
       Potential energy  (eV) =     -80.049748        -79.728634
       Total energy      (eV) =     -67.919162        -67.977375
       Temperature       (K)  =    3027.300094       2932.635564
       Pressure         (GPa) =      20.757685         21.409481
  ** Time :            1.20000 ps :
     Properties:                   Instantaneous       Averaged
       Kinetic energy    (eV) =      11.562441         11.747482
       Potential energy  (eV) =     -79.362630        -79.721314
       Total energy      (eV) =     -67.800189        -67.973832
       Temperature       (K)  =    2885.514496       2931.693143
       Pressure         (GPa) =      21.626629         21.413824
  ** Time :            1.22400 ps :
     Properties:                   Instantaneous       Averaged
       Kinetic energy    (eV) =      12.047692         11.753369
       Potential energy  (eV) =     -79.341616        -79.713869
       Total energy      (eV) =     -67.293924        -67.960500
       Temperature       (K)  =    3006.613231       2933.162164
       Pressure         (GPa) =      21.658594         21.418623
  ** Time :            1.24800 ps :
     Properties:                   Instantaneous       Averaged
       Kinetic energy    (eV) =      11.904633         11.756278
       Potential energy  (eV) =     -79.926709        -79.717962
       Total energy      (eV) =     -68.022076        -67.961684
       Temperature       (K)  =    2970.911557       2933.888114
       Pressure         (GPa) =      20.896613         21.408585
  ** Time :            1.27200 ps :
     Properties:                   Instantaneous       Averaged
       Kinetic energy    (eV) =      11.697552         11.755170
       Potential energy  (eV) =     -79.449978        -79.712906
       Total energy      (eV) =     -67.752426        -67.957736
       Temperature       (K)  =    2919.232695       2933.611597
       Pressure         (GPa) =      21.449823         21.409363
  ** Time :            1.29600 ps :
     Properties:                   Instantaneous       Averaged
       Kinetic energy    (eV) =      11.724386         11.754600
       Potential energy  (eV) =     -78.456574        -79.689640
       Total energy      (eV) =     -66.732189        -67.935041
       Temperature       (K)  =    2925.929145       2933.469329
       Pressure         (GPa) =      22.878872         21.436576
  ** Time :            1.32000 ps :
     Properties:                   Instantaneous       Averaged
       Kinetic energy    (eV) =      11.827702         11.755929
       Potential energy  (eV) =     -77.970642        -79.658386
       Total energy      (eV) =     -66.142940        -67.902457
       Temperature       (K)  =    2951.712766       2933.801028
       Pressure         (GPa) =      23.235808         21.469289
  ** Time :            1.34400 ps :
     Properties:                   Instantaneous       Averaged
       Kinetic energy    (eV) =      12.162201         11.763184
       Potential energy  (eV) =     -80.108360        -79.666421
       Total energy      (eV) =     -67.946159        -67.903237
       Temperature       (K)  =    3035.190128       2935.611548
       Pressure         (GPa) =      20.888787         21.458923
  ** Time :            1.36800 ps :
     Properties:                   Instantaneous       Averaged
       Kinetic energy    (eV) =      11.393867         11.756704
       Potential energy  (eV) =     -79.396240        -79.661681
       Total energy      (eV) =     -68.002373        -67.904977
       Temperature       (K)  =    2843.445248       2933.994595
       Pressure         (GPa) =      21.882593         21.466356
  ** Time :            1.39200 ps :
     Properties:                   Instantaneous       Averaged
       Kinetic energy    (eV) =      11.971980         11.760416
       Potential energy  (eV) =     -78.257333        -79.637468
       Total energy      (eV) =     -66.285354        -67.877052
       Temperature       (K)  =    2987.718549       2934.920870
       Pressure         (GPa) =      23.454053         21.500627
  ** Time :            1.41600 ps :
     Properties:                   Instantaneous       Averaged
       Kinetic energy    (eV) =      11.913141         11.763005
       Potential energy  (eV) =     -80.109979        -79.645477
       Total energy      (eV) =     -68.196838        -67.882472
       Temperature       (K)  =    2973.034801       2935.566869
       Pressure         (GPa) =      21.676626         21.503610
  ** Time :            1.44000 ps :
     Properties:                   Instantaneous       Averaged
       Kinetic energy    (eV) =      11.326825         11.755735
       Potential energy  (eV) =     -77.574217        -79.610956
       Total energy      (eV) =     -66.247391        -67.855221
       Temperature       (K)  =    2826.714314       2933.752660
       Pressure         (GPa) =      24.399680         21.551877
  ** Time :            1.46400 ps :
     Properties:                   Instantaneous       Averaged
       Kinetic energy    (eV) =      11.185750         11.746391
       Potential energy  (eV) =     -74.194706        -79.522165
       Total energy      (eV) =     -63.008957        -67.775774
       Temperature       (K)  =    2791.507536       2931.420772
       Pressure         (GPa) =      27.881956         21.655649
  ** Time :            1.48800 ps :
     Properties:                   Instantaneous       Averaged
       Kinetic energy    (eV) =      12.195649         11.753637
       Potential energy  (eV) =     -74.848328        -79.446780
       Total energy      (eV) =     -62.652679        -67.693143
       Temperature       (K)  =    3043.537279       2933.229103
       Pressure         (GPa) =      26.564930         21.734831
  ** Time :            1.51200 ps :
     Properties:                   Instantaneous       Averaged
       Kinetic energy    (eV) =      12.103564         11.759191
       Potential energy  (eV) =     -79.200977        -79.442879
       Total energy      (eV) =     -67.097413        -67.683687
       Temperature       (K)  =    3020.556661       2934.615255
       Pressure         (GPa) =      21.729199         21.734742
  ** Time :            1.53600 ps :
     Properties:                   Instantaneous       Averaged
       Kinetic energy    (eV) =      11.857097         11.760721
       Potential energy  (eV) =     -79.471993        -79.443333
       Total energy      (eV) =     -67.614896        -67.682612
       Temperature       (K)  =    2959.048547       2934.997025
       Pressure         (GPa) =      21.626544         21.733051
  ** Time :            1.56000 ps :
     Properties:                   Instantaneous       Averaged
       Kinetic energy    (eV) =      11.805083         11.761404
       Potential energy  (eV) =     -79.405281        -79.442748
       Total energy      (eV) =     -67.600199        -67.681344
       Temperature       (K)  =    2946.067873       2935.167346
       Pressure         (GPa) =      22.318953         21.742065
  ** Time :            1.58400 ps :
     Properties:                   Instantaneous       Averaged
       Kinetic energy    (eV) =      11.381531         11.755648
       Potential energy  (eV) =     -77.592623        -79.414716
       Total energy      (eV) =     -66.211092        -67.659068
       Temperature       (K)  =    2840.366533       2933.730970
       Pressure         (GPa) =      24.443272         21.782992
  ** Time :            1.60800 ps :
     Properties:                   Instantaneous       Averaged
       Kinetic energy    (eV) =      12.234450         11.762794
       Potential energy  (eV) =     -77.700895        -79.389136
       Total energy      (eV) =     -65.466445        -67.626342
       Temperature       (K)  =    3053.220466       2935.514395
       Pressure         (GPa) =      24.661328         21.825953
  ** Time :            1.63200 ps :
     Properties:                   Instantaneous       Averaged
       Kinetic energy    (eV) =      11.671335         11.761449
       Potential energy  (eV) =     -78.852581        -79.381246
       Total energy      (eV) =     -67.181246        -67.619797
       Temperature       (K)  =    2912.689889       2935.178741
       Pressure         (GPa) =      23.467568         21.850094
  ** Time :            1.65600 ps :
     Properties:                   Instantaneous       Averaged
       Kinetic energy    (eV) =      11.735928         11.761079
       Potential energy  (eV) =     -77.575707        -79.355079
       Total energy      (eV) =     -65.839779        -67.593999
       Temperature       (K)  =    2928.809625       2935.086435
       Pressure         (GPa) =      24.411838         21.887221
  ** Time :            1.68000 ps :
     Properties:                   Instantaneous       Averaged
       Kinetic energy    (eV) =      11.483662         11.757116
       Potential energy  (eV) =     -76.252162        -79.310751
       Total energy      (eV) =     -64.768500        -67.553635
       Temperature       (K)  =    2865.854394       2934.097406
       Pressure         (GPa) =      25.044663         21.932327
  ** Time :            1.70400 ps :
     Properties:                   Instantaneous       Averaged
       Kinetic energy    (eV) =      12.596449         11.768938
       Potential energy  (eV) =     -79.478710        -79.313117
       Total energy      (eV) =     -66.882261        -67.544179
       Temperature       (K)  =    3143.560620       2937.047592
       Pressure         (GPa) =      21.871166         21.931466
  ** Time :            1.72800 ps :
     Properties:                   Instantaneous       Averaged
       Kinetic energy    (eV) =      11.430386         11.764236
       Potential energy  (eV) =     -80.333251        -79.327285
       Total energy      (eV) =     -68.902864        -67.563050
       Temperature       (K)  =    2852.558867       2935.874137
       Pressure         (GPa) =      20.794291         21.915672
  ** Time :            1.75200 ps :
     Properties:                   Instantaneous       Averaged
       Kinetic energy    (eV) =      12.073391         11.768471
       Potential energy  (eV) =     -80.162907        -79.338732
       Total energy      (eV) =     -68.089516        -67.570262
       Temperature       (K)  =    3013.026807       2936.931023
       Pressure         (GPa) =      21.187034         21.905690
  ** Time :            1.77600 ps :
     Properties:                   Instantaneous       Averaged
       Kinetic energy    (eV) =      11.905195         11.770318
       Potential energy  (eV) =     -80.332633        -79.352163
       Total energy      (eV) =     -68.427437        -67.581845
       Temperature       (K)  =    2971.051935       2937.392116
       Pressure         (GPa) =      21.002833         21.893490
  ** Time :            1.80000 ps :
     Properties:                   Instantaneous       Averaged
       Kinetic energy    (eV) =      11.758692         11.770163
       Potential energy  (eV) =     -81.573759        -79.381785
       Total energy      (eV) =     -69.815067        -67.611621
       Temperature       (K)  =    2934.490743       2937.353431
       Pressure         (GPa) =      20.049970         21.868909
  ** Time :            1.82400 ps :
     Properties:                   Instantaneous       Averaged
       Kinetic energy    (eV) =      11.217397         11.762890
       Potential energy  (eV) =     -78.260369        -79.367029
       Total energy      (eV) =     -67.042972        -67.604139
       Temperature       (K)  =    2799.405424       2935.538326
       Pressure         (GPa) =      23.603117         21.891728
  ** Time :            1.84800 ps :
     Properties:                   Instantaneous       Averaged
       Kinetic energy    (eV) =      11.909867         11.764799
       Potential energy  (eV) =     -77.728742        -79.345753
       Total energy      (eV) =     -65.818874        -67.580954
       Temperature       (K)  =    2972.217826       2936.014683
       Pressure         (GPa) =      24.534155         21.926045
  ** Time :            1.87200 ps :
     Properties:                   Instantaneous       Averaged
       Kinetic energy    (eV) =      11.690410         11.763845
       Potential energy  (eV) =     -77.544450        -79.322659
       Total energy      (eV) =     -65.854040        -67.558814
       Temperature       (K)  =    2917.450241       2935.776678
       Pressure         (GPa) =      24.608620         21.960437
  ** Time :            1.89600 ps :
     Properties:                   Instantaneous       Averaged
       Kinetic energy    (eV) =      12.093423         11.768017
       Potential energy  (eV) =     -77.821336        -79.303655
       Total energy      (eV) =     -65.727912        -67.535638
       Temperature       (K)  =    3018.025980       2936.817808
       Pressure         (GPa) =      24.520984         21.992849
  ** Time :            1.92000 ps :
     Properties:                   Instantaneous       Averaged
       Kinetic energy    (eV) =      11.600269         11.765920
       Potential energy  (eV) =     -77.396578        -79.279817
       Total energy      (eV) =     -65.796309        -67.513896
       Temperature       (K)  =    2894.954718       2936.294519
       Pressure         (GPa) =      24.818736         22.028173
  ** Time :            1.94400 ps :
     Properties:                   Instantaneous       Averaged
       Kinetic energy    (eV) =      12.026827         11.769141
       Potential energy  (eV) =     -78.005705        -79.264087
       Total energy      (eV) =     -65.978878        -67.494945
       Temperature       (K)  =    3001.406301       2937.098369
       Pressure         (GPa) =      24.078877         22.053490
  ** Time :            1.96800 ps :
     Properties:                   Instantaneous       Averaged
       Kinetic energy    (eV) =      11.902108         11.770763
       Potential energy  (eV) =     -78.214933        -79.251292
       Total energy      (eV) =     -66.312825        -67.480529
       Temperature       (K)  =    2970.281500       2937.503041
       Pressure         (GPa) =      23.487325         22.070976
  ** Time :            1.99200 ps :
     Properties:                   Instantaneous       Averaged
       Kinetic energy    (eV) =      12.292181         11.777045
       Potential energy  (eV) =     -79.697657        -79.256670
       Total energy      (eV) =     -67.405476        -67.479625
       Temperature       (K)  =    3067.627696       2939.070808
       Pressure         (GPa) =      21.795241         22.067654
  ** Time :            2.01600 ps :
     Properties:                   Instantaneous       Averaged
       Kinetic energy    (eV) =      11.988253         11.779559
       Potential energy  (eV) =     -81.514463        -79.283549
       Total energy      (eV) =     -69.526210        -67.503989
       Temperature       (K)  =    2991.779707       2939.698295
       Pressure         (GPa) =      19.663382         22.039031
  ** Time :            2.04000 ps :
     Properties:                   Instantaneous       Averaged
       Kinetic energy    (eV) =      11.804051         11.779848
       Potential energy  (eV) =     -81.455482        -79.309101
       Total energy      (eV) =     -69.651431        -67.529253
       Temperature       (K)  =    2945.810345       2939.770201
       Pressure         (GPa) =      19.598416         22.010318
  ** Time :            2.06400 ps :
     Properties:                   Instantaneous       Averaged
       Kinetic energy    (eV) =      11.927430         11.781564
       Potential energy  (eV) =     -81.433619        -79.333804
       Total energy      (eV) =     -69.506188        -67.552241
       Temperature       (K)  =    2976.600865       2940.198465
       Pressure         (GPa) =      19.566935         21.981907
  ** Time :            2.08800 ps :
     Properties:                   Instantaneous       Averaged
       Kinetic energy    (eV) =      11.802543         11.781805
       Potential energy  (eV) =     -81.611293        -79.359983
       Total energy      (eV) =     -69.808750        -67.578178
       Temperature       (K)  =    2945.434056       2940.258644
       Pressure         (GPa) =      19.329702         21.951422
  ** Time :            2.11200 ps :
     Properties:                   Instantaneous       Averaged
       Kinetic energy    (eV) =      11.637134         11.780161
       Potential energy  (eV) =     -80.297953        -79.370641
       Total energy      (eV) =     -68.660819        -67.590480
       Temperature       (K)  =    2904.154653       2939.848371
       Pressure         (GPa) =      20.862347         21.939046
  ** Time :            2.13600 ps :
     Properties:                   Instantaneous       Averaged
       Kinetic energy    (eV) =      12.257993         11.785530
       Potential energy  (eV) =     -81.343727        -79.392811
       Total energy      (eV) =     -69.085733        -67.607281
       Temperature       (K)  =    3059.095847       2941.188231
       Pressure         (GPa) =      20.034449         21.917646
  ** Time :            2.16000 ps :
     Properties:                   Instantaneous       Averaged
       Kinetic energy    (eV) =      11.561760         11.783043
       Potential energy  (eV) =     -81.390938        -79.415012
       Total energy      (eV) =     -69.829178        -67.631969
       Temperature       (K)  =    2885.344385       2940.567743
       Pressure         (GPa) =      19.681815         21.892803
  ** Time :            2.18400 ps :
     Properties:                   Instantaneous       Averaged
       Kinetic energy    (eV) =      11.519133         11.780143
       Potential energy  (eV) =     -78.884302        -79.409180
       Total energy      (eV) =     -67.365169        -67.629037
       Temperature       (K)  =    2874.706529       2939.843994
       Pressure         (GPa) =      22.265971         21.896904
  ** Time :            2.20800 ps :
     Properties:                   Instantaneous       Averaged
       Kinetic energy    (eV) =      11.518124         11.777295
       Potential energy  (eV) =     -78.127505        -79.395249
       Total energy      (eV) =     -66.609381        -67.617954
       Temperature       (K)  =    2874.454660       2939.133240
       Pressure         (GPa) =      23.503096         21.914363
  ** Time :            2.23200 ps :
     Properties:                   Instantaneous       Averaged
       Kinetic energy    (eV) =      12.042318         11.780145
       Potential energy  (eV) =     -76.897769        -79.368394
       Total energy      (eV) =     -64.855451        -67.588249
       Temperature       (K)  =    3005.272114       2939.844411
       Pressure         (GPa) =      24.543778         21.942636
  ** Time :            2.25600 ps :
     Properties:                   Instantaneous       Averaged
       Kinetic energy    (eV) =      12.247021         11.785112
       Potential energy  (eV) =     -79.519387        -79.370001
       Total energy      (eV) =     -67.272366        -67.584889
       Temperature       (K)  =    3056.357705       2941.083914
       Pressure         (GPa) =      21.582373         21.938803
  ** Time :            2.28000 ps :
     Properties:                   Instantaneous       Averaged
       Kinetic energy    (eV) =      11.539397         11.782525
       Potential energy  (eV) =     -79.953096        -79.376138
       Total energy      (eV) =     -68.413700        -67.593613
       Temperature       (K)  =    2879.763424       2940.438435
       Pressure         (GPa) =      21.183530         21.930853
  ** Time :            2.30400 ps :
     Properties:                   Instantaneous       Averaged
       Kinetic energy    (eV) =      11.635911         11.780998
       Potential energy  (eV) =     -78.123494        -79.363090
       Total energy      (eV) =     -66.487582        -67.582092
       Temperature       (K)  =    2903.849615       2940.057302
       Pressure         (GPa) =      22.954521         21.941516
  ** Time :            2.32800 ps :
     Properties:                   Instantaneous       Averaged
       Kinetic energy    (eV) =      11.774312         11.780929
       Potential energy  (eV) =     -77.907627        -79.348085
       Total energy      (eV) =     -66.133315        -67.567156
       Temperature       (K)  =    2938.388774       2940.040100
       Pressure         (GPa) =      23.011600         21.952548
  ** Time :            2.35200 ps :
     Properties:                   Instantaneous       Averaged
       Kinetic energy    (eV) =      12.162744         11.784825
       Potential energy  (eV) =     -80.307348        -79.357874
       Total energy      (eV) =     -68.144603        -67.573049
       Temperature       (K)  =    3035.325655       2941.012402
       Pressure         (GPa) =      20.742924         21.940205
  ** Time :            2.37600 ps :
     Properties:                   Instantaneous       Averaged
       Kinetic energy    (eV) =      11.895206         11.785940
       Potential energy  (eV) =     -80.359232        -79.367988
       Total energy      (eV) =     -68.464025        -67.582048
       Temperature       (K)  =    2968.559091       2941.290651
       Pressure         (GPa) =      20.680650         21.927482
  ** Time :            2.40000 ps :
     Properties:                   Instantaneous       Averaged
       Kinetic energy    (eV) =      11.854933         11.786630
       Potential energy  (eV) =     -80.770992        -79.382018
       Total energy      (eV) =     -68.916059        -67.595388
       Temperature       (K)  =    2958.508540       2941.462830
       Pressure         (GPa) =      20.257279         21.910780
  ** Time :            2.42400 ps :
     Properties:                   Instantaneous       Averaged
       Kinetic energy    (eV) =      11.817094         11.786932
       Potential energy  (eV) =     -80.775912        -79.395819
       Total energy      (eV) =     -68.958818        -67.608888
       Temperature       (K)  =    2949.065469       2941.538104
       Pressure         (GPa) =      20.080134         21.892655
  ** Time :            2.44800 ps :
     Properties:                   Instantaneous       Averaged
       Kinetic energy    (eV) =      11.450866         11.783637
       Potential energy  (eV) =     -79.626929        -79.398085
       Total energy      (eV) =     -68.176063        -67.614448
       Temperature       (K)  =    2857.669837       2940.715866
       Pressure         (GPa) =      21.769479         21.891447
  ** Time :            2.47200 ps :
     Properties:                   Instantaneous       Averaged
       Kinetic energy    (eV) =      11.502145         11.780904
       Potential energy  (eV) =     -77.114880        -79.375918
       Total energy      (eV) =     -65.612736        -67.595014
       Temperature       (K)  =    2870.466843       2940.033837
       Pressure         (GPa) =      24.963649         21.921275
  ** Time :            2.49600 ps :
     Properties:                   Instantaneous       Averaged
       Kinetic energy    (eV) =      11.661675         11.779758
       Potential energy  (eV) =     -77.057573        -79.353626
       Total energy      (eV) =     -65.395898        -67.573869
       Temperature       (K)  =    2910.279210       2939.747734
       Pressure         (GPa) =      24.708049         21.948070
  ** Time :            2.52000 ps :
     Properties:                   Instantaneous       Averaged
       Kinetic energy    (eV) =      12.460426         11.786240
       Potential energy  (eV) =     -78.374622        -79.344303
       Total energy      (eV) =     -65.914196        -67.558062
       Temperature       (K)  =    3109.614945       2941.365517
       Pressure         (GPa) =      22.495981         21.953289
  ** Time :            2.54400 ps :
     Properties:                   Instantaneous       Averaged
       Kinetic energy    (eV) =      12.071036         11.788927
       Potential energy  (eV) =     -82.049967        -79.369828
       Total energy      (eV) =     -69.978931        -67.580901
       Temperature       (K)  =    3012.438976       2942.036022
       Pressure         (GPa) =      18.637379         21.922006
  ** Time :            2.56800 ps :
     Properties:                   Instantaneous       Averaged
       Kinetic energy    (eV) =      11.710074         11.788190
       Potential energy  (eV) =     -81.596951        -79.390642
       Total energy      (eV) =     -69.886877        -67.602452
       Temperature       (K)  =    2922.357571       2941.852111
       Pressure         (GPa) =      19.672708         21.900985
  ** Time :            2.59200 ps :
     Properties:                   Instantaneous       Averaged
       Kinetic energy    (eV) =      11.395359         11.784553
       Potential energy  (eV) =     -79.151074        -79.388424
       Total energy      (eV) =     -67.755715        -67.603871
       Temperature       (K)  =    2843.817483       2940.944383
       Pressure         (GPa) =      22.775007         21.909078
  ** Time :            2.61600 ps :
     Properties:                   Instantaneous       Averaged
       Kinetic energy    (eV) =      11.896411         11.785579
       Potential energy  (eV) =     -79.077597        -79.385572
       Total energy      (eV) =     -67.181185        -67.599993
       Temperature       (K)  =    2968.859727       2941.200487
       Pressure         (GPa) =      22.741104         21.916711
  ** Time :            2.64000 ps :
     Properties:                   Instantaneous       Averaged
       Kinetic energy    (eV) =      12.001901         11.787545
       Potential energy  (eV) =     -79.505588        -79.386663
       Total energy      (eV) =     -67.503688        -67.599118
       Temperature       (K)  =    2995.185650       2941.691261
       Pressure         (GPa) =      21.951776         21.917030
  ** Time :            2.66400 ps :
     Properties:                   Instantaneous       Averaged
       Kinetic energy    (eV) =      11.658906         11.786386
       Potential energy  (eV) =     -78.963056        -79.382847
       Total energy      (eV) =     -67.304150        -67.596460
       Temperature       (K)  =    2909.588002       2941.402043
       Pressure         (GPa) =      22.414873         21.921515
  ** Time :            2.68800 ps :
     Properties:                   Instantaneous       Averaged
       Kinetic energy    (eV) =      11.957115         11.787911
       Potential energy  (eV) =     -79.770179        -79.386305
       Total energy      (eV) =     -67.813064        -67.598394
       Temperature       (K)  =    2984.009015       2941.782462
       Pressure         (GPa) =      21.642625         21.919025
  ** Time :            2.71200 ps :
     Properties:                   Instantaneous       Averaged
       Kinetic energy    (eV) =      12.018809         11.789954
       Potential energy  (eV) =     -79.477904        -79.387116
       Total energy      (eV) =     -67.459094        -67.597162
       Temperature       (K)  =    2999.405286       2942.292398
       Pressure         (GPa) =      21.489891         21.915227
  ** Time :            2.73600 ps :
     Properties:                   Instantaneous       Averaged
       Kinetic energy    (eV) =      11.969024         11.791525
       Potential energy  (eV) =     -81.073150        -79.401906
       Total energy      (eV) =     -69.104126        -67.610381
       Temperature       (K)  =    2986.980872       2942.684403
       Pressure         (GPa) =      20.157756         21.899811
  ** Time :            2.76000 ps :
     Properties:                   Instantaneous       Averaged
       Kinetic energy    (eV) =      11.431127         11.788391
       Potential energy  (eV) =     -79.169518        -79.399885
       Total energy      (eV) =     -67.738391        -67.611494
       Temperature       (K)  =    2852.743699       2941.902310
       Pressure         (GPa) =      22.529454         21.905286
  ** Time :            2.78400 ps :
     Properties:                   Instantaneous       Averaged
       Kinetic energy    (eV) =      11.980747         11.790049
       Potential energy  (eV) =     -80.387858        -79.408402
       Total energy      (eV) =     -68.407111        -67.618352
       Temperature       (K)  =    2989.906605       2942.316140
       Pressure         (GPa) =      21.677929         21.903326
  ** Time :            2.80800 ps :
     Properties:                   Instantaneous       Averaged
       Kinetic energy    (eV) =      12.025056         11.792058
       Potential energy  (eV) =     -80.935845        -79.421457
       Total energy      (eV) =     -68.910789        -67.629399
       Temperature       (K)  =    3000.964315       2942.817406
       Pressure         (GPa) =      20.899010         21.894742
  ** Time :            2.83200 ps :
     Properties:                   Instantaneous       Averaged
       Kinetic energy    (eV) =      11.724829         11.791488
       Potential energy  (eV) =     -81.036967        -79.435148
       Total energy      (eV) =     -69.312138        -67.643659
       Temperature       (K)  =    2926.039746       2942.675223
       Pressure         (GPa) =      20.461854         21.882599
  ** Time :            2.85600 ps :
     Properties:                   Instantaneous       Averaged
       Kinetic energy    (eV) =      11.791224         11.791486
       Potential energy  (eV) =     -80.375190        -79.443047
       Total energy      (eV) =     -68.583966        -67.651561
       Temperature       (K)  =    2942.609196       2942.674668
       Pressure         (GPa) =      20.858916         21.873997
  ** Time :            2.88000 ps :
     Properties:                   Instantaneous       Averaged
       Kinetic energy    (eV) =      11.598710         11.789879
       Potential energy  (eV) =     -79.555304        -79.443983
       Total energy      (eV) =     -67.956594        -67.654103
       Temperature       (K)  =    2894.565606       2942.273759
       Pressure         (GPa) =      22.050372         21.875466
  ** Time :            2.90400 ps :
     Properties:                   Instantaneous       Averaged
       Kinetic energy    (eV) =      12.124325         11.792643
       Potential energy  (eV) =     -78.696607        -79.437806
       Total energy      (eV) =     -66.572282        -67.645162
       Temperature       (K)  =    3025.737639       2942.963543
       Pressure         (GPa) =      23.235863         21.886709
  ** Time :            2.92800 ps :
     Properties:                   Instantaneous       Averaged
       Kinetic energy    (eV) =      12.322554         11.796987
       Potential energy  (eV) =     -82.391632        -79.462018
       Total energy      (eV) =     -70.069077        -67.665031
       Temperature       (K)  =    3075.207730       2944.047512
       Pressure         (GPa) =      19.227390         21.864912
  ** Time :            2.95200 ps :
     Properties:                   Instantaneous       Averaged
       Kinetic energy    (eV) =      11.743623         11.796553
       Potential energy  (eV) =     -83.034566        -79.491063
       Total energy      (eV) =     -71.290942        -67.694510
       Temperature       (K)  =    2930.730129       2943.939240
       Pressure         (GPa) =      18.201220         21.835126
  ** Time :            2.97600 ps :
     Properties:                   Instantaneous       Averaged
       Kinetic energy    (eV) =      11.723343         11.795963
       Potential energy  (eV) =     -81.723596        -79.509067
       Total energy      (eV) =     -70.000253        -67.713104
       Temperature       (K)  =    2925.668925       2943.791899
       Pressure         (GPa) =      19.656961         21.817560
  ** Time :            3.00000 ps :
     Properties:                   Instantaneous       Averaged
       Kinetic energy    (eV) =      11.702019         11.795211
       Potential energy  (eV) =     -80.787719        -79.519296
       Total energy      (eV) =     -69.085700        -67.724085
       Temperature       (K)  =    2920.347328       2943.604343
       Pressure         (GPa) =      20.712767         21.808721
  ** Time :            3.02400 ps :
     Properties:                   Instantaneous       Averaged
       Kinetic energy    (eV) =      11.849651         11.795643
       Potential energy  (eV) =     -80.280306        -79.525336
       Total energy      (eV) =     -68.430655        -67.729693
       Temperature       (K)  =    2957.190383       2943.712168
       Pressure         (GPa) =      20.954726         21.801944
  ** Time :            3.04800 ps :
     Properties:                   Instantaneous       Averaged
       Kinetic energy    (eV) =      11.537380         11.793610
       Potential energy  (eV) =     -79.590937        -79.525853
       Total energy      (eV) =     -68.053557        -67.732243
       Temperature       (K)  =    2879.260083       2943.204672
       Pressure         (GPa) =      21.400562         21.798783
  ** Time :            3.07200 ps :
     Properties:                   Instantaneous       Averaged
       Kinetic energy    (eV) =      11.849160         11.794044
       Potential energy  (eV) =     -77.740395        -79.511904
       Total energy      (eV) =     -65.891235        -67.717860
       Temperature       (K)  =    2957.067727       2943.312977
       Pressure         (GPa) =      23.334068         21.810778
  ** Time :            3.09600 ps :
     Properties:                   Instantaneous       Averaged
       Kinetic energy    (eV) =      11.993244         11.795588
       Potential energy  (eV) =     -79.131071        -79.508951
       Total energy      (eV) =     -67.137827        -67.713364
       Temperature       (K)  =    2993.025269       2943.698343
       Pressure         (GPa) =      22.266143         21.814308
  ** Time :            3.12000 ps :
     Properties:                   Instantaneous       Averaged
       Kinetic energy    (eV) =      11.490212         11.793239
       Potential energy  (eV) =     -77.719745        -79.495188
       Total energy      (eV) =     -66.229533        -67.701950
       Temperature       (K)  =    2867.489040       2943.112118
       Pressure         (GPa) =      23.387357         21.826408
  ** Time :            3.14400 ps :
     Properties:                   Instantaneous       Averaged
       Kinetic energy    (eV) =      12.294490         11.797065
       Potential energy  (eV) =     -77.681874        -79.481346
       Total energy      (eV) =     -65.387384        -67.684281
       Temperature       (K)  =    3068.203997       2944.067018
       Pressure         (GPa) =      23.327541         21.837867
  ** Time :            3.16800 ps :
     Properties:                   Instantaneous       Averaged
       Kinetic energy    (eV) =      12.127223         11.799566
       Potential energy  (eV) =     -81.419404        -79.496028
       Total energy      (eV) =     -69.292182        -67.696462
       Temperature       (K)  =    3026.460919       2944.691214
       Pressure         (GPa) =      19.802078         21.822444
  ** Time :            3.19200 ps :
     Properties:                   Instantaneous       Averaged
       Kinetic energy    (eV) =      11.672164         11.798608
       Potential energy  (eV) =     -80.774504        -79.505641
       Total energy      (eV) =     -69.102340        -67.707033
       Temperature       (K)  =    2912.896757       2944.452158
       Pressure         (GPa) =      20.126000         21.809689
  ** Time :            3.21600 ps :
     Properties:                   Instantaneous       Averaged
       Kinetic energy    (eV) =      11.250493         11.794518
       Potential energy  (eV) =     -78.420706        -79.497545
       Total energy      (eV) =     -67.170213        -67.703027
       Temperature       (K)  =    2807.664813       2943.431357
       Pressure         (GPa) =      22.708744         21.816398
  ** Time :            3.24000 ps :
     Properties:                   Instantaneous       Averaged
       Kinetic energy    (eV) =      12.003209         11.796064
       Potential energy  (eV) =     -76.907354        -79.478358
       Total energy      (eV) =     -64.904145        -67.682294
       Temperature       (K)  =    2995.512036       2943.817140
       Pressure         (GPa) =      24.870182         21.839019
  ** Time :            3.26400 ps :
     Properties:                   Instantaneous       Averaged
       Kinetic energy    (eV) =      11.554968         11.794291
       Potential energy  (eV) =     -77.409089        -79.463143
       Total energy      (eV) =     -65.854121        -67.668852
       Temperature       (K)  =    2883.649409       2943.374730
       Pressure         (GPa) =      24.711986         21.860144
  ** Time :            3.28800 ps :
     Properties:                   Instantaneous       Averaged
       Kinetic energy    (eV) =      11.846685         11.794674
       Potential energy  (eV) =     -77.891856        -79.451673
       Total energy      (eV) =     -66.045171        -67.657000
       Temperature       (K)  =    2956.449988       2943.470170
       Pressure         (GPa) =      24.696599         21.880848
  ** Time :            3.31200 ps :
     Properties:                   Instantaneous       Averaged
       Kinetic energy    (eV) =      11.907737         11.795493
       Potential energy  (eV) =     -77.654400        -79.438650
       Total energy      (eV) =     -65.746663        -67.643157
       Temperature       (K)  =    2971.686179       2943.674633
       Pressure         (GPa) =      24.837873         21.902276
  ** Time :            3.33600 ps :
     Properties:                   Instantaneous       Averaged
       Kinetic energy    (eV) =      11.999820         11.796963
       Potential energy  (eV) =     -77.620938        -79.425573
       Total energy      (eV) =     -65.621118        -67.628610
       Temperature       (K)  =    2994.666263       2944.041480
       Pressure         (GPa) =      24.438376         21.920521
  ** Time :            3.36000 ps :
     Properties:                   Instantaneous       Averaged
       Kinetic energy    (eV) =      12.010483         11.798488
       Potential energy  (eV) =     -79.456299        -79.425792
       Total energy      (eV) =     -67.445816        -67.627304
       Temperature       (K)  =    2997.327460       2944.422094
       Pressure         (GPa) =      22.225127         21.922697
  ** Time :            3.38400 ps :
     Properties:                   Instantaneous       Averaged
       Kinetic energy    (eV) =      12.173930         11.801151
       Potential energy  (eV) =     -80.170604        -79.431075
       Total energy      (eV) =     -67.996675        -67.629924
       Temperature       (K)  =    3038.117012       2945.086597
       Pressure         (GPa) =      21.452283         21.919360
  ** Time :            3.40800 ps :
     Properties:                   Instantaneous       Averaged
       Kinetic energy    (eV) =      11.560399         11.799455
       Potential energy  (eV) =     -80.184153        -79.436378
       Total energy      (eV) =     -68.623754        -67.636923
       Temperature       (K)  =    2885.004768       2944.663485
       Pressure         (GPa) =      21.312418         21.915086
  ** Time :            3.43200 ps :
     Properties:                   Instantaneous       Averaged
       Kinetic energy    (eV) =      12.074648         11.801380
       Potential energy  (eV) =     -81.294889        -79.449374
       Total energy      (eV) =     -69.220240        -67.647995
       Temperature       (K)  =    3013.340486       2945.143744
       Pressure         (GPa) =      20.033401         21.901928
  ** Time :            3.45600 ps :
     Properties:                   Instantaneous       Averaged
       Kinetic energy    (eV) =      11.622364         11.800137
       Potential energy  (eV) =     -80.550383        -79.457020
       Total energy      (eV) =     -68.928020        -67.656884
       Temperature       (K)  =    2900.468603       2944.833500
       Pressure         (GPa) =      20.702586         21.893599
  ** Time :            3.48000 ps :
     Properties:                   Instantaneous       Averaged
       Kinetic energy    (eV) =      11.928386         11.801021
       Potential energy  (eV) =     -81.636742        -79.472053
       Total energy      (eV) =     -69.708355        -67.671032
       Temperature       (K)  =    2976.839452       2945.054231
       Pressure         (GPa) =      19.739521         21.878743
  ** Time :            3.50400 ps :
     Properties:                   Instantaneous       Averaged
       Kinetic energy    (eV) =      11.807416         11.801065
       Potential energy  (eV) =     -81.176190        -79.483725
       Total energy      (eV) =     -69.368775        -67.682660
       Temperature       (K)  =    2946.650045       2945.065161
       Pressure         (GPa) =      19.747496         21.864145
  ** Time :            3.52800 ps :
     Properties:                   Instantaneous       Averaged
       Kinetic energy    (eV) =      11.382396         11.798217
       Potential energy  (eV) =     -80.582653        -79.491201
       Total energy      (eV) =     -69.200257        -67.692984
       Temperature       (K)  =    2840.582556       2944.354395
       Pressure         (GPa) =      20.798685         21.856897
  ** Time :            3.55200 ps :
     Properties:                   Instantaneous       Averaged
       Kinetic energy    (eV) =      11.671240         11.797359
       Potential energy  (eV) =     -77.689557        -79.479028
       Total energy      (eV) =     -66.018317        -67.681669
       Temperature       (K)  =    2912.666055       2944.140285
       Pressure         (GPa) =      24.355943         21.873783
  ** Time :            3.57600 ps :
     Properties:                   Instantaneous       Averaged
       Kinetic energy    (eV) =      11.810040         11.797444
       Potential energy  (eV) =     -77.602256        -79.466432
       Total energy      (eV) =     -65.792216        -67.668988
       Temperature       (K)  =    2947.305064       2944.161525
       Pressure         (GPa) =      24.347769         21.890387
  ** Time :            3.60000 ps :
     Properties:                   Instantaneous       Averaged
       Kinetic energy    (eV) =      12.220437         11.800264
       Potential energy  (eV) =     -80.003060        -79.470009
       Total energy      (eV) =     -67.782623        -67.669745
       Temperature       (K)  =    3049.723325       2944.865270
       Pressure         (GPa) =      21.460253         21.887519
  ** Time :            3.62400 ps :
     Properties:                   Instantaneous       Averaged
       Kinetic energy    (eV) =      11.714189         11.799694
       Potential energy  (eV) =     -80.034764        -79.473749
       Total energy      (eV) =     -68.320575        -67.674056
       Temperature       (K)  =    2923.384608       2944.723014
       Pressure         (GPa) =      21.054902         21.882005
  ** Time :            3.64800 ps :
     Properties:                   Instantaneous       Averaged
       Kinetic energy    (eV) =      11.813637         11.799786
       Potential energy  (eV) =     -80.181931        -79.478408
       Total energy      (eV) =     -68.368294        -67.678623
       Temperature       (K)  =    2948.202621       2944.745906
       Pressure         (GPa) =      21.128921         21.877051
  ** Time :            3.67200 ps :
     Properties:                   Instantaneous       Averaged
       Kinetic energy    (eV) =      11.431714         11.797380
       Potential energy  (eV) =     -77.560741        -79.465875
       Total energy      (eV) =     -66.129027        -67.668495
       Temperature       (K)  =    2852.890276       2944.145543
       Pressure         (GPa) =      23.904906         21.890305
  ** Time :            3.69600 ps :
     Properties:                   Instantaneous       Averaged
       Kinetic energy    (eV) =      11.916186         11.798151
       Potential energy  (eV) =     -79.501996        -79.466109
       Total energy      (eV) =     -67.585810        -67.667958
       Temperature       (K)  =    2973.794792       2944.338070
       Pressure         (GPa) =      22.470511         21.894072
  ** Time :            3.72000 ps :
     Properties:                   Instantaneous       Averaged
       Kinetic energy    (eV) =      11.758475         11.797895
       Potential energy  (eV) =     -78.421707        -79.459371
       Total energy      (eV) =     -66.663232        -67.661476
       Temperature       (K)  =    2934.436359       2944.274188
       Pressure         (GPa) =      23.400217         21.903789
  ** Time :            3.74400 ps :
     Properties:                   Instantaneous       Averaged
       Kinetic energy    (eV) =      11.778227         11.797769
       Potential energy  (eV) =     -78.004578        -79.450046
       Total energy      (eV) =     -66.226351        -67.652276
       Temperature       (K)  =    2939.365795       2944.242724
       Pressure         (GPa) =      23.564646         21.914436
  ** Time :            3.76800 ps :
     Properties:                   Instantaneous       Averaged
       Kinetic energy    (eV) =      11.772570         11.797609
       Potential energy  (eV) =     -78.997388        -79.447162
       Total energy      (eV) =     -67.224817        -67.649554
       Temperature       (K)  =    2937.954073       2944.202669
       Pressure         (GPa) =      22.503213         21.918186
  ** Time :            3.79200 ps :
     Properties:                   Instantaneous       Averaged
       Kinetic energy    (eV) =      11.824073         11.797776
       Potential energy  (eV) =     -78.147618        -79.438937
       Total energy      (eV) =     -66.323545        -67.641161
       Temperature       (K)  =    2950.807166       2944.244470
       Pressure         (GPa) =      23.275242         21.926775
  ** Time :            3.81600 ps :
     Properties:                   Instantaneous       Averaged
       Kinetic energy    (eV) =      11.952351         11.798748
       Potential energy  (eV) =     -77.648379        -79.427676
       Total energy      (eV) =     -65.696028        -67.628928
       Temperature       (K)  =    2982.820031       2944.487083
       Pressure         (GPa) =      23.864948         21.938965
  ** Time :            3.84000 ps :
     Properties:                   Instantaneous       Averaged
       Kinetic energy    (eV) =      12.156839         11.800986
       Potential energy  (eV) =     -80.532775        -79.434583
       Total energy      (eV) =     -68.375936        -67.633596
       Temperature       (K)  =    3033.852030       2945.045614
       Pressure         (GPa) =      20.824682         21.932000
  ** Time :            3.86400 ps :
     Properties:                   Instantaneous       Averaged
       Kinetic energy    (eV) =      11.794651         11.800947
       Potential energy  (eV) =     -80.686302        -79.442358
       Total energy      (eV) =     -68.891651        -67.641410
       Temperature       (K)  =    2943.464461       2945.035793
       Pressure         (GPa) =      20.226281         21.921406
  ** Time :            3.88800 ps :
     Properties:                   Instantaneous       Averaged
       Kinetic energy    (eV) =      11.391356         11.798419
       Potential energy  (eV) =     -79.749301        -79.444252
       Total energy      (eV) =     -68.357945        -67.645834
       Temperature       (K)  =    2842.818449       2944.404822
       Pressure         (GPa) =      21.349639         21.917877
  ** Time :            3.91200 ps :
     Properties:                   Instantaneous       Averaged
       Kinetic energy    (eV) =      12.053125         11.799981
       Potential energy  (eV) =     -79.402027        -79.443993
       Total energy      (eV) =     -67.348903        -67.644012
       Temperature       (K)  =    3007.969022       2944.794786
       Pressure         (GPa) =      22.008292         21.918431
  ** Time :            3.93600 ps :
     Properties:                   Instantaneous       Averaged
       Kinetic energy    (eV) =      12.081478         11.801698
[...]
       Potential energy  (eV) =     -79.285234        -79.215633
       Total energy      (eV) =     -67.651926        -67.636516
       Temperature       (K)  =    2903.199789       2889.676209
       Pressure         (GPa) =      22.463014         22.306325
  ** Time :            8.95200 ps :
     Properties:                   Instantaneous       Averaged
       Kinetic energy    (eV) =      11.988722         11.580216
       Potential energy  (eV) =     -79.637358        -79.216764
       Total energy      (eV) =     -67.648636        -67.636548
       Temperature       (K)  =    2991.896722       2889.950259
       Pressure         (GPa) =      21.802226         22.304973
  ** Time :            8.97600 ps :
     Properties:                   Instantaneous       Averaged
       Kinetic energy    (eV) =      13.224039         11.584611
       Potential energy  (eV) =     -80.861697        -79.221162
       Total energy      (eV) =     -67.637657        -67.636551
       Temperature       (K)  =    3300.181676       2891.047134
       Pressure         (GPa) =      20.374312         22.299811
  ** Time :            9.00000 ps :
     Properties:                   Instantaneous       Averaged
       Kinetic energy    (eV) =      12.528474         11.587128
       Potential energy  (eV) =     -80.136826        -79.223604
       Total energy      (eV) =     -67.608352        -67.636476
       Temperature       (K)  =    3126.596892       2891.675267
       Pressure         (GPa) =      21.023227         22.296407
  ** Time :            9.02400 ps :
     Properties:                   Instantaneous       Averaged
       Kinetic energy    (eV) =      11.084541         11.585791
       Potential energy  (eV) =     -78.778106        -79.222419
       Total energy      (eV) =     -67.693565        -67.636628
       Temperature       (K)  =    2766.250051       2891.341689
       Pressure         (GPa) =      22.789841         22.297719
  ** Time :            9.04800 ps :
     Properties:                   Instantaneous       Averaged
       Kinetic energy    (eV) =       8.413657         11.577377
       Potential energy  (eV) =     -75.990233        -79.213846
       Total energy      (eV) =     -67.576576        -67.636468
       Temperature       (K)  =    2099.706190       2889.241861
       Pressure         (GPa) =      25.251543         22.305554
  ** Time :            9.07200 ps :
     Properties:                   Instantaneous       Averaged
       Kinetic energy    (eV) =      10.942318         11.575697
       Potential energy  (eV) =     -78.547287        -79.212082
       Total energy      (eV) =     -67.604969        -67.636385
       Temperature       (K)  =    2730.756893       2888.822588
       Pressure         (GPa) =      23.013982         22.307429
  ** Time :            9.09600 ps :
     Properties:                   Instantaneous       Averaged
       Kinetic energy    (eV) =      12.489832         11.578109
       Potential energy  (eV) =     -80.147807        -79.214551
       Total energy      (eV) =     -67.657975        -67.636442
       Temperature       (K)  =    3116.953330       2889.424516
       Pressure         (GPa) =      21.976793         22.306556
  ** Time :            9.12000 ps :
     Properties:                   Instantaneous       Averaged
       Kinetic energy    (eV) =      12.379200         11.580217
       Potential energy  (eV) =     -80.004194        -79.216629
       Total energy      (eV) =     -67.624994        -67.636412
       Temperature       (K)  =    3089.344173       2889.950621
       Pressure         (GPa) =      21.652977         22.304836
  ** Time :            9.14400 ps :
     Properties:                   Instantaneous       Averaged
       Kinetic energy    (eV) =      13.510260         11.585283
       Potential energy  (eV) =     -81.154388        -79.221715
       Total energy      (eV) =     -67.644128        -67.636432
       Temperature       (K)  =    3371.610660       2891.214820
       Pressure         (GPa) =      20.194124         22.299296
  ** Time :            9.16800 ps :
     Properties:                   Instantaneous       Averaged
       Kinetic energy    (eV) =      12.242432         11.587003
       Potential energy  (eV) =     -79.860731        -79.223388
       Total energy      (eV) =     -67.618299        -67.636385
       Temperature       (K)  =    3055.212494       2891.644133
       Pressure         (GPa) =      21.105993         22.296172
  ** Time :            9.19200 ps :
     Properties:                   Instantaneous       Averaged
       Kinetic energy    (eV) =      11.803017         11.587567
       Potential energy  (eV) =     -79.434529        -79.223939
       Total energy      (eV) =     -67.631512        -67.636372
       Temperature       (K)  =    2945.552387       2891.784886
       Pressure         (GPa) =      21.563782         22.294260
  ** Time :            9.21600 ps :
     Properties:                   Instantaneous       Averaged
       Kinetic energy    (eV) =      12.911657         11.591015
       Potential energy  (eV) =     -80.565915        -79.227434
       Total energy      (eV) =     -67.654259        -67.636418
       Temperature       (K)  =    3222.223667       2892.645404
       Pressure         (GPa) =      20.611468         22.289878
  ** Time :            9.24000 ps :
     Properties:                   Instantaneous       Averaged
       Kinetic energy    (eV) =      12.823959         11.594218
       Potential energy  (eV) =     -80.450103        -79.230610
       Total energy      (eV) =     -67.626145        -67.636392
       Temperature       (K)  =    3200.337802       2893.444605
       Pressure         (GPa) =      21.047005         22.286650
  ** Time :            9.26400 ps :
     Properties:                   Instantaneous       Averaged
       Kinetic energy    (eV) =      13.169839         11.598300
       Potential energy  (eV) =     -80.808779        -79.234698
       Total energy      (eV) =     -67.638940        -67.636398
       Temperature       (K)  =    3286.655342       2894.463285
       Pressure         (GPa) =      21.286543         22.284059
  ** Time :            9.28800 ps :
     Properties:                   Instantaneous       Averaged
       Kinetic energy    (eV) =      12.088794         11.599567
       Potential energy  (eV) =     -79.721997        -79.235957
       Total energy      (eV) =     -67.633203        -67.636390
       Temperature       (K)  =    3016.870585       2894.779583
       Pressure         (GPa) =      22.185122         22.283803
  ** Time :            9.31200 ps :
     Properties:                   Instantaneous       Averaged
       Kinetic energy    (eV) =      12.542660         11.601998
       Potential energy  (eV) =     -80.206366        -79.238458
       Total energy      (eV) =     -67.663706        -67.636461
       Temperature       (K)  =    3130.137225       2895.386175
       Pressure         (GPa) =      21.591218         22.282018
  ** Time :            9.33600 ps :
     Properties:                   Instantaneous       Averaged
       Kinetic energy    (eV) =      13.072692         11.605779
       Potential energy  (eV) =     -80.726336        -79.242283
       Total energy      (eV) =     -67.653643        -67.636505
       Temperature       (K)  =    3262.411571       2896.329685
       Pressure         (GPa) =      21.347799         22.279617
  ** Time :            9.36000 ps :
     Properties:                   Instantaneous       Averaged
       Kinetic energy    (eV) =      11.946608         11.606653
       Potential energy  (eV) =     -79.572099        -79.243129
       Total energy      (eV) =     -67.625491        -67.636476
       Temperature       (K)  =    2981.386797       2896.547780
       Pressure         (GPa) =      22.500200         22.280182
  ** Time :            9.38400 ps :
     Properties:                   Instantaneous       Averaged
       Kinetic energy    (eV) =      11.650049         11.606764
       Potential energy  (eV) =     -79.332306        -79.243357
       Total energy      (eV) =     -67.682257        -67.636594
       Temperature       (K)  =    2907.377734       2896.575478
       Pressure         (GPa) =      22.470761         22.280670
  ** Time :            9.40800 ps :
     Properties:                   Instantaneous       Averaged
       Kinetic energy    (eV) =      10.082942         11.602876
       Potential energy  (eV) =     -77.701449        -79.239424
       Total energy      (eV) =     -67.618506        -67.636547
       Temperature       (K)  =    2516.291747       2895.605367
       Pressure         (GPa) =      23.639743         22.284137
  ** Time :            9.43200 ps :
     Properties:                   Instantaneous       Averaged
       Kinetic energy    (eV) =      11.448032         11.602482
       Potential energy  (eV) =     -79.063317        -79.238976
       Total energy      (eV) =     -67.615285        -67.636493
       Temperature       (K)  =    2856.962528       2895.507039
       Pressure         (GPa) =      22.535552         22.284776
  ** Time :            9.45600 ps :
     Properties:                   Instantaneous       Averaged
       Kinetic energy    (eV) =      12.445005         11.604621
       Potential energy  (eV) =     -80.135447        -79.241251
       Total energy      (eV) =     -67.690441        -67.636630
       Temperature       (K)  =    3105.766533       2896.040693
       Pressure         (GPa) =      22.169047         22.284483
  ** Time :            9.48000 ps :
     Properties:                   Instantaneous       Averaged
       Kinetic energy    (eV) =       7.926369         11.595309
       Potential energy  (eV) =     -75.448102        -79.231648
       Total energy      (eV) =     -67.521733        -67.636339
       Temperature       (K)  =    1978.098948       2893.716789
       Pressure         (GPa) =      26.335030         22.294737
  ** Time :            9.50400 ps :
     Properties:                   Instantaneous       Averaged
       Kinetic energy    (eV) =      11.401624         11.594819
       Potential energy  (eV) =     -79.094969        -79.231303
       Total energy      (eV) =     -67.693345        -67.636483
       Temperature       (K)  =    2845.381113       2893.594730
       Pressure         (GPa) =      22.976697         22.296459
  ** Time :            9.52800 ps :
     Properties:                   Instantaneous       Averaged
       Kinetic energy    (eV) =      13.967926         11.600797
       Potential energy  (eV) =     -81.635529        -79.237359
       Total energy      (eV) =     -67.667603        -67.636562
       Temperature       (K)  =    3485.825354       2895.086494
       Pressure         (GPa) =      20.263662         22.291339
  ** Time :            9.55200 ps :
     Properties:                   Instantaneous       Averaged
       Kinetic energy    (eV) =      12.838858         11.603908
       Potential energy  (eV) =     -80.454934        -79.240418
       Total energy      (eV) =     -67.616077        -67.636510
       Temperature       (K)  =    3204.055998       2895.862800
       Pressure         (GPa) =      21.330698         22.288925
  ** Time :            9.57600 ps :
     Properties:                   Instantaneous       Averaged
       Kinetic energy    (eV) =      12.763184         11.606813
       Potential energy  (eV) =     -80.416497        -79.243366
       Total energy      (eV) =     -67.653313        -67.636552
       Temperature       (K)  =    3185.170836       2896.587883
       Pressure         (GPa) =      21.417950         22.286742
  ** Time :            9.60000 ps :
     Properties:                   Instantaneous       Averaged
       Kinetic energy    (eV) =      11.181850         11.605751
       Potential energy  (eV) =     -78.808241        -79.242278
       Total energy      (eV) =     -67.626391        -67.636527
       Temperature       (K)  =    2790.534377       2896.322749
       Pressure         (GPa) =      22.796033         22.288016
  ** Time :            9.62400 ps :
     Properties:                   Instantaneous       Averaged
       Kinetic energy    (eV) =      10.323989         11.602554
       Potential energy  (eV) =     -77.946851        -79.239047
       Total energy      (eV) =     -67.622862        -67.636493
       Temperature       (K)  =    2576.447198       2895.525054
       Pressure         (GPa) =      23.873146         22.291968
  ** Time :            9.64800 ps :
     Properties:                   Instantaneous       Averaged
       Kinetic energy    (eV) =      10.808426         11.600579
       Potential energy  (eV) =     -78.428652        -79.237031
       Total energy      (eV) =     -67.620226        -67.636452
       Temperature       (K)  =    2697.342882       2895.032064
       Pressure         (GPa) =      23.657504         22.295365
  ** Time :            9.67200 ps :
     Properties:                   Instantaneous       Averaged
       Kinetic energy    (eV) =      11.572052         11.600508
       Potential energy  (eV) =     -79.220767        -79.236991
       Total energy      (eV) =     -67.648715        -67.636483
       Temperature       (K)  =    2887.912974       2895.014398
       Pressure         (GPa) =      23.180084         22.297561
  ** Time :            9.69600 ps :
     Properties:                   Instantaneous       Averaged
       Kinetic energy    (eV) =      11.474347         11.600196
       Potential energy  (eV) =     -79.125032        -79.236714
       Total energy      (eV) =     -67.650685        -67.636518
       Temperature       (K)  =    2863.529696       2894.936466
       Pressure         (GPa) =      23.079178         22.299495
  ** Time :            9.72000 ps :
     Properties:                   Instantaneous       Averaged
       Kinetic energy    (eV) =      10.493349         11.597463
       Potential energy  (eV) =     -78.116342        -79.233948
       Total energy      (eV) =     -67.622993        -67.636485
       Temperature       (K)  =    2618.712597       2894.254432
       Pressure         (GPa) =      23.519033         22.302507
  ** Time :            9.74400 ps :
     Properties:                   Instantaneous       Averaged
       Kinetic energy    (eV) =      11.123651         11.596296
       Potential energy  (eV) =     -78.747250        -79.232749
       Total energy      (eV) =     -67.623598        -67.636453
       Temperature       (K)  =    2776.010378       2893.963190
       Pressure         (GPa) =      22.654039         22.303372
  ** Time :            9.76800 ps :
     Properties:                   Instantaneous       Averaged
       Kinetic energy    (eV) =      12.456390         11.598409
       Potential energy  (eV) =     -80.093699        -79.234864
       Total energy      (eV) =     -67.637309        -67.636455
       Temperature       (K)  =    3108.607705       2894.490572
       Pressure         (GPa) =      21.382517         22.301110
  ** Time :            9.79200 ps :
     Properties:                   Instantaneous       Averaged
       Kinetic energy    (eV) =      12.641251         11.600965
       Potential energy  (eV) =     -80.265642        -79.237391
       Total energy      (eV) =     -67.624390        -67.636425
       Temperature       (K)  =    3154.741528       2895.128442
       Pressure         (GPa) =      21.309475         22.298679
  ** Time :            9.81600 ps :
     Properties:                   Instantaneous       Averaged
       Kinetic energy    (eV) =      12.290776         11.602652
       Potential energy  (eV) =     -79.942601        -79.239115
       Total energy      (eV) =     -67.651825        -67.636463
       Temperature       (K)  =    3067.277114       2895.549344
       Pressure         (GPa) =      21.594337         22.296957
  ** Time :            9.84000 ps :
     Properties:                   Instantaneous       Averaged
       Kinetic energy    (eV) =       9.915271         11.598536
       Potential energy  (eV) =     -77.506380        -79.234889
       Total energy      (eV) =     -67.591109        -67.636352
       Temperature       (K)  =    2474.447910       2894.522267
       Pressure         (GPa) =      24.059879         22.301257
  ** Time :            9.86400 ps :
     Properties:                   Instantaneous       Averaged
       Kinetic energy    (eV) =      10.574234         11.596044
       Potential energy  (eV) =     -78.226022        -79.232434
       Total energy      (eV) =     -67.651788        -67.636390
       Temperature       (K)  =    2638.898255       2893.900311
       Pressure         (GPa) =      23.654011         22.304548
  ** Time :            9.88800 ps :
     Properties:                   Instantaneous       Averaged
       Kinetic energy    (eV) =      11.051354         11.594722
       Potential energy  (eV) =     -78.674027        -79.231079
       Total energy      (eV) =     -67.622673        -67.636357
       Temperature       (K)  =    2757.967855       2893.570378
       Pressure         (GPa) =      22.887537         22.305963
  ** Time :            9.91200 ps :
     Properties:                   Instantaneous       Averaged
       Kinetic energy    (eV) =      11.139359         11.593619
       Potential energy  (eV) =     -78.789929        -79.230010
       Total energy      (eV) =     -67.650569        -67.636391
       Temperature       (K)  =    2779.930462       2893.295221
       Pressure         (GPa) =      22.653817         22.306806
  ** Time :            9.93600 ps :
     Properties:                   Instantaneous       Averaged
       Kinetic energy    (eV) =      11.227154         11.592734
       Potential energy  (eV) =     -78.831077        -79.229047
       Total energy      (eV) =     -67.603923        -67.636313
       Temperature       (K)  =    2801.840429       2893.074315
       Pressure         (GPa) =      22.480859         22.307226
  ** Time :            9.96000 ps :
     Properties:                   Instantaneous       Averaged
       Kinetic energy    (eV) =      13.112587         11.596396
       Potential energy  (eV) =     -80.774254        -79.232770
       Total energy      (eV) =     -67.661667        -67.636374
       Temperature       (K)  =    3272.367746       2893.988275
       Pressure         (GPa) =      20.652046         22.303238
  ** Time :            9.98400 ps :
     Properties:                   Instantaneous       Averaged
       Kinetic energy    (eV) =      11.462090         11.596074
       Potential energy  (eV) =     -79.083807        -79.232412
       Total energy      (eV) =     -67.621717        -67.636339
       Temperature       (K)  =    2860.470955       2893.907705
       Pressure         (GPa) =      22.318677         22.303275

  Peak dynamic memory used =       0.57 MB 


  Timing analysis for GULP :

--------------------------------------------------------------------------------
  Task / Subroutine                                          Time (Seconds)
--------------------------------------------------------------------------------
  Calculation of real space energy and derivatives                2.6640
  Calculation of many-body energy and derivatives                 1.4200
  Molecular dynamics - update of geometry                         0.0040
--------------------------------------------------------------------------------
  Total CPU time                                                  4.2720
--------------------------------------------------------------------------------


  Dump file written as Recovery_2_3000_0.008.res                               
  GULP ASCII trajectory file written as Trajectories_2_3000_0.008.trg           


  Job Finished at 17:42.32 17th May        2018                               

