********************************************************************************
*                       GENERAL UTILITY LATTICE PROGRAM                        *
*                                 Julian Gale                                  *
*                       Curtin Institute for Computation                       *
*                           Department of Chemistry                            *
*                    Curtin University, Western Australia                      *
********************************************************************************
* Version = 5.0.0 * Last modified =  18th April 2018                           *
********************************************************************************
*  single       - perform a single point run                                   *
*  md           - perform molecular dynamics run                               *
*  conv         - constant volume calculation                                  *
********************************************************************************
* molecular dynamics of silver                                                 *
********************************************************************************


  Job Started  at 18:21.28 17th May        2018                               

  Number of CPUs =     1


  Total number of configurations input =   1

********************************************************************************
*  Input for Configuration =   1                                               *
********************************************************************************

  Formula = Ag32                                                        

  Number of irreducible atoms/shells =      32


  Total number atoms/shells =      32

  Dimensionality = 3               :  Bulk   



  Supercell dimensions :  x =   2  y =   2  z =   2

  Cartesian lattice vectors (Angstroms) :

        8.170000    0.000000    0.000000
        0.000000    8.170000    0.000000
        0.000000    0.000000    8.170000

  Cell parameters (Angstroms/Degrees):

  a =       8.1700    alpha =  90.0000
  b =       8.1700    beta  =  90.0000
  c =       8.1700    gamma =  90.0000

  Initial cell volume =         545.338513 Angs**3

  Temperature of configuration =  3000.     K 

  Pressure of configuration =         0.000 GPa 

  Fractional coordinates of asymmetric unit :

--------------------------------------------------------------------------------
   No.  Atomic       x           y          z         Charge      Occupancy
        Label      (Frac)      (Frac)     (Frac)        (e)         (Frac)  
--------------------------------------------------------------------------------
      1 Ag    c    0.000000 *  0.000000 *  0.000000 *   0.00000    1.000000    
      2 Ag    c    0.000000 *  0.000000 *  0.500000 *   0.00000    1.000000    
      3 Ag    c    0.000000 *  0.500000 *  0.000000 *   0.00000    1.000000    
      4 Ag    c    0.000000 *  0.500000 *  0.500000 *   0.00000    1.000000    
      5 Ag    c    0.500000 *  0.000000 *  0.000000 *   0.00000    1.000000    
      6 Ag    c    0.500000 *  0.000000 *  0.500000 *   0.00000    1.000000    
      7 Ag    c    0.500000 *  0.500000 *  0.000000 *   0.00000    1.000000    
      8 Ag    c    0.500000 *  0.500000 *  0.500000 *   0.00000    1.000000    
      9 Ag    c    0.000000 *  0.250000 *  0.250000 *   0.00000    1.000000    
     10 Ag    c    0.000000 *  0.250000 *  0.750000 *   0.00000    1.000000    
     11 Ag    c    0.000000 *  0.750000 *  0.250000 *   0.00000    1.000000    
     12 Ag    c    0.000000 *  0.750000 *  0.750000 *   0.00000    1.000000    
     13 Ag    c    0.500000 *  0.250000 *  0.250000 *   0.00000    1.000000    
     14 Ag    c    0.500000 *  0.250000 *  0.750000 *   0.00000    1.000000    
     15 Ag    c    0.500000 *  0.750000 *  0.250000 *   0.00000    1.000000    
     16 Ag    c    0.500000 *  0.750000 *  0.750000 *   0.00000    1.000000    
     17 Ag    c    0.250000 *  0.000000 *  0.250000 *   0.00000    1.000000    
     18 Ag    c    0.250000 *  0.000000 *  0.750000 *   0.00000    1.000000    
     19 Ag    c    0.250000 *  0.500000 *  0.250000 *   0.00000    1.000000    
     20 Ag    c    0.250000 *  0.500000 *  0.750000 *   0.00000    1.000000    
     21 Ag    c    0.750000 *  0.000000 *  0.250000 *   0.00000    1.000000    
     22 Ag    c    0.750000 *  0.000000 *  0.750000 *   0.00000    1.000000    
     23 Ag    c    0.750000 *  0.500000 *  0.250000 *   0.00000    1.000000    
     24 Ag    c    0.750000 *  0.500000 *  0.750000 *   0.00000    1.000000    
     25 Ag    c    0.250000 *  0.250000 *  0.000000 *   0.00000    1.000000    
     26 Ag    c    0.250000 *  0.250000 *  0.500000 *   0.00000    1.000000    
     27 Ag    c    0.250000 *  0.750000 *  0.000000 *   0.00000    1.000000    
     28 Ag    c    0.250000 *  0.750000 *  0.500000 *   0.00000    1.000000    
     29 Ag    c    0.750000 *  0.250000 *  0.000000 *   0.00000    1.000000    
     30 Ag    c    0.750000 *  0.250000 *  0.500000 *   0.00000    1.000000    
     31 Ag    c    0.750000 *  0.750000 *  0.000000 *   0.00000    1.000000    
     32 Ag    c    0.750000 *  0.750000 *  0.500000 *   0.00000    1.000000    
--------------------------------------------------------------------------------



********************************************************************************
*  General input information                                                   *
********************************************************************************

  Species output for all configurations : 

--------------------------------------------------------------------------------
  Species    Type    Atomic    Atomic    Charge       Radii (Angs)     Library
                     Number     Mass       (e)     Cova   Ionic  VDW   Symbol
--------------------------------------------------------------------------------
    Ag       Core       47     107.87   0.000000   1.590  0.000  2.370          
--------------------------------------------------------------------------------


  Lattice summation method               =    Ewald          (3-D)
                                         =    Parry          (2-D)
                                         =    Saunders et al (1-D)
  Accuracy factor for lattice sums       =   12.000


  Time limit = Infinity

  Maximum range for interatomic potentials =    100000.000000 Angstroms

  General interatomic potentials :

--------------------------------------------------------------------------------
Atom  Types   Potential      Parameter       Value         Units   Cutoffs(Ang)
  1     2                                                            Min /  Max 
--------------------------------------------------------------------------------
Ag   c Ag   c Many-body                                             0.000  8.000
--------------------------------------------------------------------------------
Ag   c Ag   c Buckingham    Buckingham A     11454.950    eV        0.000 12.000
                            Buckingham rho  0.26432400    Ang       
                            Buckingham C     0.0000000    eV*Ang^6  
--------------------------------------------------------------------------------

  Embedded Atom Model Densities :

--------------------------------------------------------------------------------
  Atom(s)       Functional Form          A          B          C         n      
--------------------------------------------------------------------------------
  Ag   c        Exponential          1.388      2.173      2.889         0
--------------------------------------------------------------------------------


  Embedded Atom Model alloy parameters :

--------------------------------------------------------------------------------
  Atom(s)                          Scale factor 
--------------------------------------------------------------------------------
  Ag    c                            1.000000
--------------------------------------------------------------------------------

  Embedded Atom Model functional = Square Root

--------------------------------------------------------------------------------
  Atom                     A     
--------------------------------------------------------------------------------
  Ag    c               1.000000
--------------------------------------------------------------------------------


  Manybody second derivative cross term cutoffs to be scale by = 0.50000000

********************************************************************************
*  Output for configuration   1                                                *
********************************************************************************


  Components of energy : 

--------------------------------------------------------------------------------
  Interatomic potentials     =          39.71625760 eV    
  Many-body potentials       =        -134.45860512 eV    
  Monopole - monopole (real) =           0.00000000 eV    
  Monopole - monopole (recip)=           0.00000000 eV    
  Monopole - monopole (total)=           0.00000000 eV    
--------------------------------------------------------------------------------
  Total lattice energy       =         -94.74234752 eV    
--------------------------------------------------------------------------------
  Total lattice energy       =           -9141.1883 kJ/(mole unit cells)
--------------------------------------------------------------------------------

  Equations of motion will be integrated using the leapfrog Verlet algorithm.

********************************************************************************
*  Molecular Dynamics                                                          *
********************************************************************************

  Microcanonical ensemble (NVE) to be used

  No. of mobile ions        =                 32

  No. of degrees of freedom =                 93

  Time step                 =           0.017000 ps
  Equilibration time        =           5.000000 ps
  Production time           =          10.000000 ps
  Scaling time              =           4.998000 ps
  Scaling frequency         =           0.017000 ps
  Sampling frequency        =           0.017000 ps
  Write frequency           =           0.017000 ps
  TD-Force start time       =           0.000000 ps
  TD-Field start time       =           0.000000 ps



  Molecular dynamics equilibration :

  ** Time :            0.01700 ps :
     Properties:                   Instantaneous       Averaged
       Kinetic energy    (eV) =      12.021192         12.021192
       Potential energy  (eV) =     -94.742348        -94.742348
       Total energy      (eV) =     -82.721155        -82.721155
       Temperature       (K)  =    3000.000000       3000.000000
       Pressure         (GPa) =       2.339048          2.339048
  ** Time :            0.03400 ps :
     Properties:                   Instantaneous       Averaged
       Kinetic energy    (eV) =      10.120598         11.070895
       Potential energy  (eV) =     -92.892814        -93.817581
       Total energy      (eV) =     -82.772216        -82.746685
       Temperature       (K)  =    2525.689212       2762.844606
       Pressure         (GPa) =       4.596190          3.467619
  ** Time :            0.05100 ps :
     Properties:                   Instantaneous       Averaged
       Kinetic energy    (eV) =       8.353521         10.165104
       Potential energy  (eV) =     -87.876854        -91.837338
       Total energy      (eV) =     -79.523333        -81.672234
       Temperature       (K)  =    2084.698629       2536.795947
       Pressure         (GPa) =      10.615379          5.850206
  ** Time :            0.06800 ps :
     Properties:                   Instantaneous       Averaged
       Kinetic energy    (eV) =       9.817168         10.078120
       Potential energy  (eV) =     -83.988888        -89.875226
       Total energy      (eV) =     -74.171720        -79.797106
       Temperature       (K)  =    2449.965313       2515.088289
       Pressure         (GPa) =      15.656381          8.301749
  ** Time :            0.08500 ps :
     Properties:                   Instantaneous       Averaged
       Kinetic energy    (eV) =      11.219235         10.306343
       Potential energy  (eV) =     -83.608851        -88.621951
       Total energy      (eV) =     -72.389616        -78.315608
       Temperature       (K)  =    2799.864096       2572.043450
       Pressure         (GPa) =      16.687281          9.978856
  ** Time :            0.10200 ps :
     Properties:                   Instantaneous       Averaged
       Kinetic energy    (eV) =      10.232640         10.294059
       Potential energy  (eV) =     -82.222593        -87.555391
       Total energy      (eV) =     -71.989954        -77.261332
       Temperature       (K)  =    2553.650120       2568.977895
       Pressure         (GPa) =      17.913023         11.301217
  ** Time :            0.11900 ps :
     Properties:                   Instantaneous       Averaged
       Kinetic energy    (eV) =      10.659326         10.346240
       Potential energy  (eV) =     -80.818179        -86.592932
       Total energy      (eV) =     -70.158854        -76.246692
       Temperature       (K)  =    2660.133540       2582.000130
       Pressure         (GPa) =      19.683221         12.498646
  ** Time :            0.13600 ps :
     Properties:                   Instantaneous       Averaged
       Kinetic energy    (eV) =      10.429567         10.356656
       Potential energy  (eV) =     -79.789749        -85.742535
       Total energy      (eV) =     -69.360183        -75.385879
       Temperature       (K)  =    2602.795083       2584.599499
       Pressure         (GPa) =      21.197141         13.585958
  ** Time :            0.15300 ps :
     Properties:                   Instantaneous       Averaged
       Kinetic energy    (eV) =       9.871828         10.302786
       Potential energy  (eV) =     -77.491852        -84.825792
       Total energy      (eV) =     -67.620024        -74.523006
       Temperature       (K)  =    2463.606171       2571.155796
       Pressure         (GPa) =      23.554145         14.693534
  ** Time :            0.17000 ps :
     Properties:                   Instantaneous       Averaged
       Kinetic energy    (eV) =      11.485103         10.421018
       Potential energy  (eV) =     -77.204794        -84.063692
       Total energy      (eV) =     -65.719691        -73.642675
       Temperature       (K)  =    2866.213842       2600.661601
       Pressure         (GPa) =      24.126256         15.636807
  ** Time :            0.18700 ps :
     Properties:                   Instantaneous       Averaged
       Kinetic energy    (eV) =      12.034890         10.567733
       Potential energy  (eV) =     -79.333935        -83.633714
       Total energy      (eV) =     -67.299045        -73.065981
       Temperature       (K)  =    3003.418369       2637.275852
       Pressure         (GPa) =      22.067266         16.221394
  ** Time :            0.20400 ps :
     Properties:                   Instantaneous       Averaged
       Kinetic energy    (eV) =      11.144819         10.615824
       Potential energy  (eV) =     -79.894336        -83.322099
       Total energy      (eV) =     -68.749517        -72.706276
       Temperature       (K)  =    2781.292886       2649.277272
       Pressure         (GPa) =      21.184320         16.634971
  ** Time :            0.22100 ps :
     Properties:                   Instantaneous       Averaged
       Kinetic energy    (eV) =      11.011061         10.646227
       Potential energy  (eV) =     -79.500102        -83.028100
       Total energy      (eV) =     -68.489040        -72.381873
       Temperature       (K)  =    2747.912503       2656.864597
       Pressure         (GPa) =      21.451837         17.005499
  ** Time :            0.23800 ps :
     Properties:                   Instantaneous       Averaged
       Kinetic energy    (eV) =      11.471281         10.705159
       Potential energy  (eV) =     -79.529379        -82.778191
       Total energy      (eV) =     -68.058098        -72.073032
       Temperature       (K)  =    2862.764594       2671.571740
       Pressure         (GPa) =      21.352128         17.315972
  ** Time :            0.25500 ps :
     Properties:                   Instantaneous       Averaged
       Kinetic energy    (eV) =      11.767171         10.775960
       Potential energy  (eV) =     -80.398335        -82.619534
       Total energy      (eV) =     -68.631163        -71.843574
       Temperature       (K)  =    2936.606748       2689.240740
       Pressure         (GPa) =      20.402160         17.521718
  ** Time :            0.27200 ps :
     Properties:                   Instantaneous       Averaged
       Kinetic energy    (eV) =      11.456640         10.818502
       Potential energy  (eV) =     -81.144699        -82.527357
       Total energy      (eV) =     -69.688059        -71.708854
       Temperature       (K)  =    2859.110781       2699.857618
       Pressure         (GPa) =      19.535037         17.647551
  ** Time :            0.28900 ps :
     Properties:                   Instantaneous       Averaged
       Kinetic energy    (eV) =      10.705191         10.811837
       Potential energy  (eV) =     -80.533778        -82.410087
       Total energy      (eV) =     -69.828587        -71.598250
       Temperature       (K)  =    2671.579675       2698.194209
       Pressure         (GPa) =      19.951451         17.783074
  ** Time :            0.30600 ps :
     Properties:                   Instantaneous       Averaged
       Kinetic energy    (eV) =      10.801012         10.811236
       Potential energy  (eV) =     -79.996352        -82.275991
       Total energy      (eV) =     -69.195340        -71.464755
       Temperature       (K)  =    2695.492689       2698.044125
       Pressure         (GPa) =      20.815798         17.951559
  ** Time :            0.32300 ps :
     Properties:                   Instantaneous       Averaged
       Kinetic energy    (eV) =      10.219305         10.780081
       Potential energy  (eV) =     -78.822069        -82.094205
       Total energy      (eV) =     -68.602763        -71.314124
       Temperature       (K)  =    2550.322455       2690.269300
       Pressure         (GPa) =      22.213971         18.175896
  ** Time :            0.34000 ps :
     Properties:                   Instantaneous       Averaged
       Kinetic energy    (eV) =      11.276491         10.804902
       Potential energy  (eV) =     -78.274225        -81.903206
       Total energy      (eV) =     -66.997734        -71.098305
       Temperature       (K)  =    2814.153003       2696.463485
       Pressure         (GPa) =      23.016076         18.417905
  ** Time :            0.35700 ps :
     Properties:                   Instantaneous       Averaged
       Kinetic energy    (eV) =      11.390015         10.832764
       Potential energy  (eV) =     -79.368107        -81.782487
       Total energy      (eV) =     -67.978092        -70.949723
       Temperature       (K)  =    2842.483803       2703.416834
       Pressure         (GPa) =      21.944071         18.585818
  ** Time :            0.37400 ps :
     Properties:                   Instantaneous       Averaged
       Kinetic energy    (eV) =      10.196543         10.803845
       Potential energy  (eV) =     -77.962976        -81.608873
       Total energy      (eV) =     -67.766433        -70.805028
       Temperature       (K)  =    2544.641942       2696.199793
       Pressure         (GPa) =      23.075736         18.789905
  ** Time :            0.39100 ps :
     Properties:                   Instantaneous       Averaged
       Kinetic energy    (eV) =      11.066457         10.815263
       Potential energy  (eV) =     -77.685405        -81.438288
       Total energy      (eV) =     -66.618949        -70.623025
       Temperature       (K)  =    2761.736857       2699.049231
       Pressure         (GPa) =      23.539783         18.996422
  ** Time :            0.40800 ps :
     Properties:                   Instantaneous       Averaged
       Kinetic energy    (eV) =      10.845184         10.816510
       Potential energy  (eV) =     -77.516349        -81.274874
       Total energy      (eV) =     -66.671165        -70.458364
       Temperature       (K)  =    2706.516306       2699.360359
       Pressure         (GPa) =      23.519647         19.184889
  ** Time :            0.42500 ps :
     Properties:                   Instantaneous       Averaged
       Kinetic energy    (eV) =      10.732714         10.813158
       Potential energy  (eV) =     -78.271727        -81.154748
       Total energy      (eV) =     -67.539012        -70.341590
       Temperature       (K)  =    2678.448409       2698.523881
       Pressure         (GPa) =      22.638570         19.323037
  ** Time :            0.44200 ps :
     Properties:                   Instantaneous       Averaged
       Kinetic energy    (eV) =      11.016504         10.820979
       Potential energy  (eV) =     -77.829893        -81.026869
       Total energy      (eV) =     -66.813389        -70.205890
       Temperature       (K)  =    2749.270777       2700.475685
       Pressure         (GPa) =      22.916965         19.461265
  ** Time :            0.45900 ps :
     Properties:                   Instantaneous       Averaged
       Kinetic energy    (eV) =      11.153674         10.833301
       Potential energy  (eV) =     -78.297571        -80.925784
       Total energy      (eV) =     -67.143898        -70.092483
       Temperature       (K)  =    2783.502660       2703.550758
       Pressure         (GPa) =      22.609616         19.577870
  ** Time :            0.47600 ps :
     Properties:                   Instantaneous       Averaged
       Kinetic energy    (eV) =      10.502940         10.821502
       Potential energy  (eV) =     -77.612633        -80.807457
       Total energy      (eV) =     -67.109693        -69.985954
       Temperature       (K)  =    2621.105995       2700.606302
       Pressure         (GPa) =      23.391474         19.714070
  ** Time :            0.49300 ps :
     Properties:                   Instantaneous       Averaged
       Kinetic energy    (eV) =      10.696227         10.817183
       Potential energy  (eV) =     -76.205070        -80.648754
       Total energy      (eV) =     -65.508842        -69.831571
       Temperature       (K)  =    2669.342715       2699.528247
       Pressure         (GPa) =      24.602396         19.882633
  ** Time :            0.51000 ps :
     Properties:                   Instantaneous       Averaged
       Kinetic energy    (eV) =      13.146903         10.894840
       Potential energy  (eV) =     -79.213854        -80.600924
       Total energy      (eV) =     -66.066951        -69.706084
       Temperature       (K)  =    3280.931569       2718.908358
       Pressure         (GPa) =      21.736362         19.944424
  ** Time :            0.52700 ps :
     Properties:                   Instantaneous       Averaged
       Kinetic energy    (eV) =      11.233096         10.905751
       Potential energy  (eV) =     -81.430814        -80.627694
       Total energy      (eV) =     -70.197719        -69.721943
       Temperature       (K)  =    2803.323168       2721.631416
       Pressure         (GPa) =      19.100082         19.917187
  ** Time :            0.54400 ps :
     Properties:                   Instantaneous       Averaged
       Kinetic energy    (eV) =      10.715800         10.899815
       Potential energy  (eV) =     -80.116627        -80.611724
       Total energy      (eV) =     -69.400827        -69.711908
       Temperature       (K)  =    2674.227388       2720.150041
       Pressure         (GPa) =      20.620224         19.939157
  ** Time :            0.56100 ps :
     Properties:                   Instantaneous       Averaged
       Kinetic energy    (eV) =      11.684485         10.923593
       Potential energy  (eV) =     -80.753813        -80.616029
       Total energy      (eV) =     -69.069328        -69.692436
       Temperature       (K)  =    2915.971675       2726.084029
       Pressure         (GPa) =      20.561326         19.958011
  ** Time :            0.57800 ps :
     Properties:                   Instantaneous       Averaged
       Kinetic energy    (eV) =      11.451370         10.939116
       Potential energy  (eV) =     -81.143640        -80.631547
       Total energy      (eV) =     -69.692270        -69.692431
       Temperature       (K)  =    2857.795517       2729.957897
       Pressure         (GPa) =      19.945566         19.957645
  ** Time :            0.59500 ps :
     Properties:                   Instantaneous       Averaged
       Kinetic energy    (eV) =      11.984737         10.968991
       Potential energy  (eV) =     -82.722214        -80.691281
       Total energy      (eV) =     -70.737477        -69.722290
       Temperature       (K)  =    2990.902356       2737.413453
       Pressure         (GPa) =      18.248955         19.908825
  ** Time :            0.61200 ps :
     Properties:                   Instantaneous       Averaged
       Kinetic energy    (eV) =      11.212521         10.975756
       Potential energy  (eV) =     -83.070622        -80.757373
       Total energy      (eV) =     -71.858101        -69.781618
       Temperature       (K)  =    2798.188518       2739.101649
       Pressure         (GPa) =      17.557680         19.843516
  ** Time :            0.62900 ps :
     Properties:                   Instantaneous       Averaged
       Kinetic energy    (eV) =      10.787016         10.970655
       Potential energy  (eV) =     -82.170215        -80.795558
       Total energy      (eV) =     -71.383200        -69.824904
       Temperature       (K)  =    2691.999763       2737.828625
       Pressure         (GPa) =      18.332960         19.802690
  ** Time :            0.64600 ps :
     Properties:                   Instantaneous       Averaged
       Kinetic energy    (eV) =      10.639348         10.961936
       Potential energy  (eV) =     -81.018097        -80.801415
       Total energy      (eV) =     -70.378750        -69.839479
       Temperature       (K)  =    2655.147912       2735.652817
       Pressure         (GPa) =      19.460865         19.793694
  ** Time :            0.66300 ps :
     Properties:                   Instantaneous       Averaged
       Kinetic energy    (eV) =      10.707129         10.955403
       Potential energy  (eV) =     -80.155069        -80.784842
       Total energy      (eV) =     -69.447940        -69.829439
       Temperature       (K)  =    2672.063300       2734.022316
       Pressure         (GPa) =      20.390030         19.808985
  ** Time :            0.68000 ps :
     Properties:                   Instantaneous       Averaged
       Kinetic energy    (eV) =      10.962314         10.955575
       Potential energy  (eV) =     -79.941530        -80.763759
       Total energy      (eV) =     -68.979216        -69.808184
       Temperature       (K)  =    2735.747197       2734.065438
       Pressure         (GPa) =      20.501391         19.826295
  ** Time :            0.69700 ps :
     Properties:                   Instantaneous       Averaged
       Kinetic energy    (eV) =      11.114849         10.959460
       Potential energy  (eV) =     -79.549588        -80.734145
       Total energy      (eV) =     -68.434739        -69.774685
       Temperature       (K)  =    2773.813695       2735.034908
       Pressure         (GPa) =      20.817380         19.850468
  ** Time :            0.71400 ps :
     Properties:                   Instantaneous       Averaged
       Kinetic energy    (eV) =      10.439978         10.947091
       Potential energy  (eV) =     -79.242421        -80.698628
       Total energy      (eV) =     -68.802443        -69.751536
       Temperature       (K)  =    2605.393254       2731.948202
       Pressure         (GPa) =      21.520365         19.890227
  ** Time :            0.73100 ps :
     Properties:                   Instantaneous       Averaged
       Kinetic energy    (eV) =      11.787056         10.966626
       Potential energy  (eV) =     -79.279301        -80.665620
       Total energy      (eV) =     -67.492245        -69.698995
       Temperature       (K)  =    2941.569145       2736.823108
       Pressure         (GPa) =      21.973432         19.938674
  ** Time :            0.74800 ps :
     Properties:                   Instantaneous       Averaged
       Kinetic energy    (eV) =      11.682573         10.982897
       Potential energy  (eV) =     -81.336858        -80.680876
       Total energy      (eV) =     -69.654284        -69.697978
       Temperature       (K)  =    2915.494468       2740.883820
       Pressure         (GPa) =      19.962289         19.939211
  ** Time :            0.76500 ps :
     Properties:                   Instantaneous       Averaged
       Kinetic energy    (eV) =      11.276325         10.989418
       Potential energy  (eV) =     -81.623214        -80.701816
       Total energy      (eV) =     -70.346890        -69.712399
       Temperature       (K)  =    2814.111387       2742.511100
       Pressure         (GPa) =      19.538879         19.930314
  ** Time :            0.78200 ps :
     Properties:                   Instantaneous       Averaged
       Kinetic energy    (eV) =      11.105080         10.991932
       Potential energy  (eV) =     -81.105071        -80.710583
       Total energy      (eV) =     -69.999990        -69.718651
       Temperature       (K)  =    2771.375725       2743.138592
       Pressure         (GPa) =      19.989555         19.931602
  ** Time :            0.79900 ps :
     Properties:                   Instantaneous       Averaged
       Kinetic energy    (eV) =      11.454526         11.001775
       Potential energy  (eV) =     -81.327135        -80.723701
       Total energy      (eV) =     -69.872609        -69.721926
       Temperature       (K)  =    2858.583286       2745.594862
       Pressure         (GPa) =      19.802503         19.928855
  ** Time :            0.81600 ps :
     Properties:                   Instantaneous       Averaged
       Kinetic energy    (eV) =      10.248976         10.986091
       Potential energy  (eV) =     -80.204718        -80.712889
       Total energy      (eV) =     -69.955742        -69.726798
       Temperature       (K)  =    2557.726943       2741.680947
       Pressure         (GPa) =      20.629979         19.943462
  ** Time :            0.83300 ps :
     Properties:                   Instantaneous       Averaged
       Kinetic energy    (eV) =      11.273430         10.991955
       Potential energy  (eV) =     -78.859876        -80.675072
       Total energy      (eV) =     -67.586446        -69.683117
       Temperature       (K)  =    2813.389005       2743.144376
       Pressure         (GPa) =      21.841418         19.982196
  ** Time :            0.85000 ps :
     Properties:                   Instantaneous       Averaged
       Kinetic energy    (eV) =      11.687188         11.005860
       Potential energy  (eV) =     -80.865125        -80.678873
       Total energy      (eV) =     -69.177937        -69.673013
       Temperature       (K)  =    2916.646191       2746.614413
       Pressure         (GPa) =      19.769617         19.977944
  ** Time :            0.86700 ps :
     Properties:                   Instantaneous       Averaged
       Kinetic energy    (eV) =      11.779262         11.021025
       Potential energy  (eV) =     -81.423956        -80.693483
       Total energy      (eV) =     -69.644694        -69.672458
       Temperature       (K)  =    2939.624112       2750.398917
       Pressure         (GPa) =      18.843348         19.955697
  ** Time :            0.88400 ps :
     Properties:                   Instantaneous       Averaged
       Kinetic energy    (eV) =      11.673411         11.033571
       Potential energy  (eV) =     -82.931980        -80.736531
       Total energy      (eV) =     -71.258568        -69.702960
       Temperature       (K)  =    2913.208095       2753.529862
       Pressure         (GPa) =      17.198893         19.902682
  ** Time :            0.90100 ps :
     Properties:                   Instantaneous       Averaged
       Kinetic energy    (eV) =      11.308528         11.038758
       Potential energy  (eV) =     -82.987052        -80.778993
       Total energy      (eV) =     -71.678524        -69.740235
       Temperature       (K)  =    2822.148085       2754.824546
       Pressure         (GPa) =      16.964001         19.847235
  ** Time :            0.91800 ps :
     Properties:                   Instantaneous       Averaged
       Kinetic energy    (eV) =      11.604519         11.049236
       Potential energy  (eV) =     -83.135025        -80.822624
       Total energy      (eV) =     -71.530506        -69.773388
       Temperature       (K)  =    2896.015381       2757.439191
       Pressure         (GPa) =      16.883928         19.792359
  ** Time :            0.93500 ps :
     Properties:                   Instantaneous       Averaged
       Kinetic energy    (eV) =      12.280723         11.071626
       Potential energy  (eV) =     -85.017946        -80.898902
       Total energy      (eV) =     -72.737224        -69.827276
       Temperature       (K)  =    3064.768209       2763.026991
       Pressure         (GPa) =      15.111239         19.707248
  ** Time :            0.95200 ps :
     Properties:                   Instantaneous       Averaged
       Kinetic energy    (eV) =      11.782807         11.084326
       Potential energy  (eV) =     -86.164999        -80.992940
       Total energy      (eV) =     -74.382193        -69.908614
       Temperature       (K)  =    2940.508750       2766.196308
       Pressure         (GPa) =      13.687260         19.599748
  ** Time :            0.96900 ps :
     Properties:                   Instantaneous       Averaged
       Kinetic energy    (eV) =      11.666902         11.094546
       Potential energy  (eV) =     -86.860867        -81.095886
       Total energy      (eV) =     -75.193966        -70.001339
       Temperature       (K)  =    2911.583486       2768.746961
       Pressure         (GPa) =      12.873339         19.481741
  ** Time :            0.98600 ps :
     Properties:                   Instantaneous       Averaged
       Kinetic energy    (eV) =      10.900857         11.091207
       Potential energy  (eV) =     -86.214679        -81.184141
       Total energy      (eV) =     -75.313822        -70.092934
       Temperature       (K)  =    2720.410048       2767.913566
       Pressure         (GPa) =      13.426468         19.377340
  ** Time :            1.00300 ps :
     Properties:                   Instantaneous       Averaged
       Kinetic energy    (eV) =      10.381581         11.079179
       Potential energy  (eV) =     -84.500156        -81.240345
       Total energy      (eV) =     -74.118575        -70.161165
       Temperature       (K)  =    2590.819818       2764.911977
       Pressure         (GPa) =      15.444058         19.310674
  ** Time :            1.02000 ps :
     Properties:                   Instantaneous       Averaged
       Kinetic energy    (eV) =      11.025681         11.078288
       Potential energy  (eV) =     -83.161638        -81.272366
       Total energy      (eV) =     -72.135957        -70.194078
       Temperature       (K)  =    2751.560941       2764.689459
       Pressure         (GPa) =      17.226797         19.275943
  ** Time :            1.03700 ps :
     Properties:                   Instantaneous       Averaged
       Kinetic energy    (eV) =      11.439513         11.084210
       Potential energy  (eV) =     -83.412841        -81.307456
       Total energy      (eV) =     -71.973328        -70.223246
       Temperature       (K)  =    2854.836559       2766.167281
       Pressure         (GPa) =      17.072855         19.239826
  ** Time :            1.05400 ps :
     Properties:                   Instantaneous       Averaged
       Kinetic energy    (eV) =      11.143999         11.085174
       Potential energy  (eV) =     -83.080025        -81.336046
       Total energy      (eV) =     -71.936025        -70.250872
       Temperature       (K)  =    2781.088393       2766.407944
       Pressure         (GPa) =      17.119185         19.205622
  ** Time :            1.07100 ps :
     Properties:                   Instantaneous       Averaged
       Kinetic energy    (eV) =      11.955116         11.098982
       Potential energy  (eV) =     -83.797456        -81.375116
       Total energy      (eV) =     -71.842340        -70.276133
       Temperature       (K)  =    2983.510177       2769.854011
       Pressure         (GPa) =      16.259560         19.158860
  ** Time :            1.08800 ps :
     Properties:                   Instantaneous       Averaged
       Kinetic energy    (eV) =      11.084730         11.098760
       Potential energy  (eV) =     -84.194900        -81.419175
       Total energy      (eV) =     -73.110169        -70.320415
       Temperature       (K)  =    2766.297251       2769.798437
       Pressure         (GPa) =      15.530022         19.102159
  ** Time :            1.10500 ps :
     Properties:                   Instantaneous       Averaged
       Kinetic energy    (eV) =      10.467469         11.089048
       Potential energy  (eV) =     -82.638467        -81.437933
       Total energy      (eV) =     -72.170998        -70.348885
       Temperature       (K)  =    2612.253856       2767.374674
       Pressure         (GPa) =      16.953595         19.069104
  ** Time :            1.12200 ps :
     Properties:                   Instantaneous       Averaged
       Kinetic energy    (eV) =      11.441958         11.094395
       Potential energy  (eV) =     -82.560610        -81.454943
       Total energy      (eV) =     -71.118652        -70.360549
       Temperature       (K)  =    2855.446695       2768.709098
       Pressure         (GPa) =      17.501485         19.045352
  ** Time :            1.13900 ps :
     Properties:                   Instantaneous       Averaged
       Kinetic energy    (eV) =      10.890955         11.091358
       Potential energy  (eV) =     -82.515012        -81.470765
       Total energy      (eV) =     -71.624057        -70.379407
       Temperature       (K)  =    2717.938796       2767.951333
       Pressure         (GPa) =      17.742796         19.025911
  ** Time :            1.15600 ps :
     Properties:                   Instantaneous       Averaged
       Kinetic energy    (eV) =      11.327636         11.094833
       Potential energy  (eV) =     -82.269845        -81.482516
       Total energy      (eV) =     -70.942208        -70.387683
       Temperature       (K)  =    2826.916675       2768.818470
       Pressure         (GPa) =      18.189289         19.013608
  ** Time :            1.17300 ps :
     Properties:                   Instantaneous       Averaged
       Kinetic energy    (eV) =      11.519201         11.100983
       Potential energy  (eV) =     -82.892328        -81.502949
       Total energy      (eV) =     -71.373127        -70.401965
       Temperature       (K)  =    2874.723469       2770.353325
       Pressure         (GPa) =      17.660286         18.993995
  ** Time :            1.19000 ps :
     Properties:                   Instantaneous       Averaged
       Kinetic energy    (eV) =      11.106400         11.101061
       Potential energy  (eV) =     -83.169938        -81.526763
       Total energy      (eV) =     -72.063538        -70.425702
       Temperature       (K)  =    2771.705075       2770.372636
       Pressure         (GPa) =      17.421539         18.971531
  ** Time :            1.20700 ps :
     Properties:                   Instantaneous       Averaged
       Kinetic energy    (eV) =      10.959347         11.099065
       Potential energy  (eV) =     -82.461483        -81.539928
       Total energy      (eV) =     -71.502136        -70.440863
       Temperature       (K)  =    2735.006620       2769.874523
       Pressure         (GPa) =      18.178403         18.960360
  ** Time :            1.22400 ps :
     Properties:                   Instantaneous       Averaged
       Kinetic energy    (eV) =      11.217774         11.100713
       Potential energy  (eV) =     -82.111300        -81.547863
       Total energy      (eV) =     -70.893526        -70.447150
       Temperature       (K)  =    2799.499510       2770.285981
       Pressure         (GPa) =      18.305665         18.951267
  ** Time :            1.24100 ps :
     Properties:                   Instantaneous       Averaged
       Kinetic energy    (eV) =      11.586629         11.107370
       Potential energy  (eV) =     -82.899959        -81.566385
       Total energy      (eV) =     -71.313330        -70.459015
       Temperature       (K)  =    2891.550814       2771.947143
       Pressure         (GPa) =      17.345586         18.929271
  ** Time :            1.25800 ps :
     Properties:                   Instantaneous       Averaged
       Kinetic energy    (eV) =      11.894660         11.118009
       Potential energy  (eV) =     -83.615160        -81.594071
       Total energy      (eV) =     -71.720500        -70.476063
       Temperature       (K)  =    2968.422824       2774.602220
       Pressure         (GPa) =      16.609706         18.897926
  ** Time :            1.27500 ps :
     Properties:                   Instantaneous       Averaged
       Kinetic energy    (eV) =      11.738876         11.126287
       Potential energy  (eV) =     -84.976296        -81.639168
       Total energy      (eV) =     -73.237420        -70.512881
       Temperature       (K)  =    2929.545301       2776.668128
       Pressure         (GPa) =      15.415449         18.851493
  ** Time :            1.29200 ps :
     Properties:                   Instantaneous       Averaged
       Kinetic energy    (eV) =      10.222010         11.114389
       Potential energy  (eV) =     -83.767409        -81.667171
       Total energy      (eV) =     -73.545399        -70.552782
       Temperature       (K)  =    2550.997315       2773.698775
       Pressure         (GPa) =      16.708037         18.823290
  ** Time :            1.30900 ps :
     Properties:                   Instantaneous       Averaged
       Kinetic energy    (eV) =      10.760111         11.109788
       Potential energy  (eV) =     -82.091720        -81.672685
       Total energy      (eV) =     -71.331609        -70.562897
       Temperature       (K)  =    2685.285435       2772.550550
       Pressure         (GPa) =      18.559887         18.819869
  ** Time :            1.32600 ps :
     Properties:                   Instantaneous       Averaged
       Kinetic energy    (eV) =      11.839737         11.119146
       Potential energy  (eV) =     -83.181712        -81.692031
       Total energy      (eV) =     -71.341975        -70.572885
       Temperature       (K)  =    2954.716126       2774.886006
       Pressure         (GPa) =      17.416294         18.801874
  ** Time :            1.34300 ps :
     Properties:                   Instantaneous       Averaged
       Kinetic energy    (eV) =      12.255123         11.133525
       Potential energy  (eV) =     -85.170302        -81.736060
       Total energy      (eV) =     -72.915180        -70.602534
       Temperature       (K)  =    3058.379506       2778.474531
       Pressure         (GPa) =      14.916716         18.752695
  ** Time :            1.36000 ps :
     Properties:                   Instantaneous       Averaged
       Kinetic energy    (eV) =      11.927016         11.143444
       Potential energy  (eV) =     -86.849188        -81.799974
       Total energy      (eV) =     -74.922172        -70.656530
       Temperature       (K)  =    2976.497380       2780.949817
       Pressure         (GPa) =      12.800496         18.678293
  ** Time :            1.37700 ps :
     Properties:                   Instantaneous       Averaged
       Kinetic energy    (eV) =      11.227097         11.144477
       Potential energy  (eV) =     -86.802697        -81.861736
       Total energy      (eV) =     -75.575600        -70.717259
       Temperature       (K)  =    2801.826196       2781.207550
       Pressure         (GPa) =      12.849640         18.606334
  ** Time :            1.39400 ps :
     Properties:                   Instantaneous       Averaged
       Kinetic energy    (eV) =      10.647014         11.138410
       Potential energy  (eV) =     -85.698123        -81.908521
       Total energy      (eV) =     -75.051109        -70.770111
       Temperature       (K)  =    2657.061191       2779.693570
       Pressure         (GPa) =      14.199579         18.552593
  ** Time :            1.41100 ps :
     Properties:                   Instantaneous       Averaged
       Kinetic energy    (eV) =      11.002516         11.136773
       Potential energy  (eV) =     -84.472116        -81.939408
       Total energy      (eV) =     -73.469600        -70.802635
       Temperature       (K)  =    2745.780007       2779.284973
       Pressure         (GPa) =      15.626779         18.517342
  ** Time :            1.42800 ps :
     Properties:                   Instantaneous       Averaged
       Kinetic energy    (eV) =      10.869667         11.133593
       Potential energy  (eV) =     -84.060581        -81.964660
       Total energy      (eV) =     -73.190914        -70.831067
       Temperature       (K)  =    2712.626301       2778.491417
       Pressure         (GPa) =      16.140168         18.489042
  ** Time :            1.44500 ps :
     Properties:                   Instantaneous       Averaged
       Kinetic energy    (eV) =      10.514748         11.126313
       Potential energy  (eV) =     -82.245351        -81.967962
       Total energy      (eV) =     -71.730603        -70.841650
       Temperature       (K)  =    2624.052956       2776.674494
       Pressure         (GPa) =      18.112045         18.484607
  ** Time :            1.46200 ps :
     Properties:                   Instantaneous       Averaged
       Kinetic energy    (eV) =      11.035289         11.125254
       Potential energy  (eV) =     -81.597508        -81.963655
       Total energy      (eV) =     -70.562219        -70.838400
       Temperature       (K)  =    2753.958631       2776.410356
       Pressure         (GPa) =      19.429585         18.495595
  ** Time :            1.47900 ps :
     Properties:                   Instantaneous       Averaged
       Kinetic energy    (eV) =      10.533012         11.118447
       Potential energy  (eV) =     -80.406412        -81.945755
       Total energy      (eV) =     -69.873400        -70.827308
       Temperature       (K)  =    2628.610940       2774.711512
       Pressure         (GPa) =      20.919196         18.523453
  ** Time :            1.49600 ps :
     Properties:                   Instantaneous       Averaged
       Kinetic energy    (eV) =      10.830787         11.115178
       Potential energy  (eV) =     -79.536333        -81.918375
       Total energy      (eV) =     -68.705545        -70.803197
       Temperature       (K)  =    2702.923402       2773.895738
       Pressure         (GPa) =      21.846828         18.561218
  ** Time :            1.51300 ps :
     Properties:                   Instantaneous       Averaged
       Kinetic energy    (eV) =      12.584346         11.131685
       Potential energy  (eV) =     -81.440423        -81.913005
       Total energy      (eV) =     -68.856077        -70.781320
       Temperature       (K)  =    3140.540282       2778.015340
       Pressure         (GPa) =      20.111542         18.578638
  ** Time :            1.53000 ps :
     Properties:                   Instantaneous       Averaged
       Kinetic energy    (eV) =      11.475460         11.135505
       Potential energy  (eV) =     -83.404093        -81.929573
       Total energy      (eV) =     -71.928634        -70.794068
       Temperature       (K)  =    2863.807344       2778.968584
       Pressure         (GPa) =      17.743214         18.569355
  ** Time :            1.54700 ps :
     Properties:                   Instantaneous       Averaged
       Kinetic energy    (eV) =      10.755213         11.131326
       Potential energy  (eV) =     -82.318156        -81.933843
       Total energy      (eV) =     -71.562943        -70.802517
       Temperature       (K)  =    2684.063265       2777.925669
       Pressure         (GPa) =      18.473153         18.568298
  ** Time :            1.56400 ps :
     Properties:                   Instantaneous       Averaged
       Kinetic energy    (eV) =      10.803988         11.127768
       Potential energy  (eV) =     -81.510539        -81.929242
       Total energy      (eV) =     -70.706552        -70.801474
       Temperature       (K)  =    2696.235336       2777.037730
       Pressure         (GPa) =      19.374328         18.577059
  ** Time :            1.58100 ps :
     Properties:                   Instantaneous       Averaged
       Kinetic energy    (eV) =      10.615053         11.122255
       Potential energy  (eV) =     -80.274517        -81.911449
       Total energy      (eV) =     -69.659464        -70.789194
       Temperature       (K)  =    2649.084888       2775.661893
       Pressure         (GPa) =      20.811673         18.601087
  ** Time :            1.59800 ps :
     Properties:                   Instantaneous       Averaged
       Kinetic energy    (eV) =      10.923061         11.120136
       Potential energy  (eV) =     -79.436495        -81.885120
       Total energy      (eV) =     -68.513434        -70.764984
       Temperature       (K)  =    2725.951119       2775.133055
       Pressure         (GPa) =      21.762060         18.634715
  ** Time :            1.61500 ps :
     Properties:                   Instantaneous       Averaged
       Kinetic energy    (eV) =      12.179114         11.131283
       Potential energy  (eV) =     -80.970557        -81.875493
       Total energy      (eV) =     -68.791442        -70.744210
       Temperature       (K)  =    3039.410956       2777.914928
       Pressure         (GPa) =      20.031874         18.649422
  ** Time :            1.63200 ps :
     Properties:                   Instantaneous       Averaged
       Kinetic energy    (eV) =      11.805233         11.138303
       Potential energy  (eV) =     -82.586800        -81.882902
       Total energy      (eV) =     -70.781567        -70.744599
       Temperature       (K)  =    2946.105483       2779.666913
       Pressure         (GPa) =      17.696397         18.639494
  ** Time :            1.64900 ps :
     Properties:                   Instantaneous       Averaged
       Kinetic energy    (eV) =      11.648273         11.143561
       Potential energy  (eV) =     -83.336523        -81.897888
       Total energy      (eV) =     -71.688249        -70.754327
       Temperature       (K)  =    2906.934642       2780.978951
       Pressure         (GPa) =      16.548338         18.617936
  ** Time :            1.66600 ps :
     Properties:                   Instantaneous       Averaged
       Kinetic energy    (eV) =      11.414752         11.146328
       Potential energy  (eV) =     -83.719639        -81.916477
       Total energy      (eV) =     -72.304887        -70.770149
       Temperature       (K)  =    2848.657269       2781.669546
       Pressure         (GPa) =      16.204754         18.593312
  ** Time :            1.68300 ps :
     Properties:                   Instantaneous       Averaged
       Kinetic energy    (eV) =      10.741514         11.142239
       Potential energy  (eV) =     -83.012983        -81.927553
       Total energy      (eV) =     -72.271468        -70.785314
       Temperature       (K)  =    2680.644537       2780.649092
       Pressure         (GPa) =      17.123445         18.578465
  ** Time :            1.70000 ps :
     Properties:                   Instantaneous       Averaged
       Kinetic energy    (eV) =      10.619266         11.137009
       Potential energy  (eV) =     -81.945346        -81.927731
       Total energy      (eV) =     -71.326079        -70.790722
       Temperature       (K)  =    2650.136421       2779.343965
       Pressure         (GPa) =      18.320113         18.575881
  ** Time :            1.71700 ps :
     Properties:                   Instantaneous       Averaged
       Kinetic energy    (eV) =      11.548251         11.141081
       Potential energy  (eV) =     -82.049336        -81.928935
       Total energy      (eV) =     -70.501085        -70.787854
       Temperature       (K)  =    2881.973093       2780.360095
       Pressure         (GPa) =      18.224070         18.572398
  ** Time :            1.73400 ps :
     Properties:                   Instantaneous       Averaged
       Kinetic energy    (eV) =      10.900019         11.138718
       Potential energy  (eV) =     -82.389097        -81.933446
       Total energy      (eV) =     -71.489078        -70.794729
       Temperature       (K)  =    2720.200858       2779.770299
       Pressure         (GPa) =      17.892468         18.565732
  ** Time :            1.75100 ps :
     Properties:                   Instantaneous       Averaged
       Kinetic energy    (eV) =      11.418995         11.141439
       Potential energy  (eV) =     -82.176128        -81.935803
       Total energy      (eV) =     -70.757132        -70.794364
       Temperature       (K)  =    2849.716216       2780.449385
       Pressure         (GPa) =      18.418277         18.564300
  ** Time :            1.76800 ps :
     Properties:                   Instantaneous       Averaged
       Kinetic energy    (eV) =      11.607249         11.145918
       Potential energy  (eV) =     -83.622717        -81.952023
       Total energy      (eV) =     -72.015469        -70.806105
       Temperature       (K)  =    2896.696549       2781.567146
       Pressure         (GPa) =      17.064736         18.549881
  ** Time :            1.78500 ps :
     Properties:                   Instantaneous       Averaged
       Kinetic energy    (eV) =      10.891933         11.143499
       Potential energy  (eV) =     -83.038343        -81.962369
       Total energy      (eV) =     -72.146410        -70.818870
       Temperature       (K)  =    2718.182773       2780.963486
       Pressure         (GPa) =      16.916662         18.534327
  ** Time :            1.80200 ps :
     Properties:                   Instantaneous       Averaged
       Kinetic energy    (eV) =      11.635355         11.148139
       Potential energy  (eV) =     -84.490245        -81.986217
       Total energy      (eV) =     -72.854890        -70.838078
       Temperature       (K)  =    2903.710690       2782.121478
       Pressure         (GPa) =      15.411366         18.504865
  ** Time :            1.81900 ps :
     Properties:                   Instantaneous       Averaged
       Kinetic energy    (eV) =      11.151944         11.148175
       Potential energy  (eV) =     -84.297919        -82.007821
       Total energy      (eV) =     -73.145974        -70.859647
       Temperature       (K)  =    2783.071135       2782.130353
       Pressure         (GPa) =      15.548177         18.477232
  ** Time :            1.83600 ps :
     Properties:                   Instantaneous       Averaged
       Kinetic energy    (eV) =      11.453464         11.151001
       Potential energy  (eV) =     -84.955194        -82.035112
       Total energy      (eV) =     -73.501729        -70.884111
       Temperature       (K)  =    2858.318238       2782.835797
       Pressure         (GPa) =      15.032119         18.445333
  ** Time :            1.85300 ps :
     Properties:                   Instantaneous       Averaged
       Kinetic energy    (eV) =      11.450855         11.153752
       Potential energy  (eV) =     -85.339898        -82.065431
       Total energy      (eV) =     -73.889043        -70.911679
       Temperature       (K)  =    2857.667046       2783.522322
       Pressure         (GPa) =      14.368847         18.407934
  ** Time :            1.87000 ps :
     Properties:                   Instantaneous       Averaged
       Kinetic energy    (eV) =      11.660715         11.158361
       Potential energy  (eV) =     -86.083929        -82.101963
       Total energy      (eV) =     -74.423214        -70.943602
       Temperature       (K)  =    2910.039475       2784.672478
       Pressure         (GPa) =      13.552629         18.363795
  ** Time :            1.88700 ps :
     Properties:                   Instantaneous       Averaged
       Kinetic energy    (eV) =      11.068299         11.157550
       Potential energy  (eV) =     -85.955901        -82.136683
       Total energy      (eV) =     -74.887601        -70.979133
       Temperature       (K)  =    2762.196684       2784.469993
       Pressure         (GPa) =      13.662389         18.321440
  ** Time :            1.90400 ps :
     Properties:                   Instantaneous       Averaged
       Kinetic energy    (eV) =      11.148112         11.157465
       Potential energy  (eV) =     -85.252438        -82.164502
       Total energy      (eV) =     -74.104326        -71.007037
       Temperature       (K)  =    2782.114669       2784.448964
       Pressure         (GPa) =      14.569208         18.287938
  ** Time :            1.92100 ps :
     Properties:                   Instantaneous       Averaged
       Kinetic energy    (eV) =      10.992717         11.156007
       Potential energy  (eV) =     -85.005925        -82.189648
       Total energy      (eV) =     -74.013208        -71.033640
       Temperature       (K)  =    2743.334418       2784.085118
       Pressure         (GPa) =      15.166809         18.260317
  ** Time :            1.93800 ps :
     Properties:                   Instantaneous       Averaged
       Kinetic energy    (eV) =      10.383094         11.149228
       Potential energy  (eV) =     -83.285965        -82.199264
       Total energy      (eV) =     -72.902871        -71.050037
       Temperature       (K)  =    2591.197353       2782.393120
       Pressure         (GPa) =      16.966607         18.248969
  ** Time :            1.95500 ps :
     Properties:                   Instantaneous       Averaged
       Kinetic energy    (eV) =      11.229487         11.149925
       Potential energy  (eV) =     -82.616384        -82.202892
       Total energy      (eV) =     -71.386897        -71.052966
       Temperature       (K)  =    2802.422600       2782.567290
       Pressure         (GPa) =      17.835488         18.245374
  ** Time :            1.97200 ps :
     Properties:                   Instantaneous       Averaged
       Kinetic energy    (eV) =      11.285397         11.151093
       Potential energy  (eV) =     -82.726950        -82.207409
       Total energy      (eV) =     -71.441553        -71.056316
       Temperature       (K)  =    2816.375600       2782.858741
       Pressure         (GPa) =      17.680341         18.240503
  ** Time :            1.98900 ps :
     Properties:                   Instantaneous       Averaged
       Kinetic energy    (eV) =      11.660708         11.155449
       Potential energy  (eV) =     -83.258993        -82.216397
       Total energy      (eV) =     -71.598285        -71.060948
       Temperature       (K)  =    2910.037805       2783.945741
       Pressure         (GPa) =      17.114522         18.230879
  ** Time :            2.00600 ps :
     Properties:                   Instantaneous       Averaged
       Kinetic energy    (eV) =      11.536931         11.158682
       Potential energy  (eV) =     -84.028319        -82.231752
       Total energy      (eV) =     -72.491388        -71.073071
       Temperature       (K)  =    2879.148113       2784.752541
       Pressure         (GPa) =      16.337579         18.214834
  ** Time :            2.02300 ps :
     Properties:                   Instantaneous       Averaged
       Kinetic energy    (eV) =      10.839285         11.155998
       Potential energy  (eV) =     -83.710123        -82.244176
       Total energy      (eV) =     -72.870838        -71.088178
       Temperature       (K)  =    2705.044080       2784.082722
       Pressure         (GPa) =      16.748193         18.202509
  ** Time :            2.04000 ps :
     Properties:                   Instantaneous       Averaged
       Kinetic energy    (eV) =      10.760853         11.152705
       Potential energy  (eV) =     -82.501100        -82.246317
       Total energy      (eV) =     -71.740248        -71.093612
       Temperature       (K)  =    2685.470553       2783.260954
       Pressure         (GPa) =      18.097766         18.201636
  ** Time :            2.05700 ps :
     Properties:                   Instantaneous       Averaged
       Kinetic energy    (eV) =      11.054394         11.151892
       Potential energy  (eV) =     -81.829431        -82.242871
       Total energy      (eV) =     -70.775036        -71.090979
       Temperature       (K)  =    2758.726638       2783.058191
       Pressure         (GPa) =      18.896090         18.207376
  ** Time :            2.07400 ps :
     Properties:                   Instantaneous       Averaged
       Kinetic energy    (eV) =      11.236038         11.152582
       Potential energy  (eV) =     -81.983706        -82.240747
       Total energy      (eV) =     -70.747669        -71.088165
       Temperature       (K)  =    2804.057366       2783.230315
       Pressure         (GPa) =      18.828174         18.212464
  ** Time :            2.09100 ps :
     Properties:                   Instantaneous       Averaged
       Kinetic energy    (eV) =      10.837239         11.150018
       Potential energy  (eV) =     -81.380925        -82.233757
       Total energy      (eV) =     -70.543686        -71.083738
       Temperature       (K)  =    2704.533389       2782.590503
       Pressure         (GPa) =      19.255246         18.220942
  ** Time :            2.10800 ps :
     Properties:                   Instantaneous       Averaged
       Kinetic energy    (eV) =      11.120991         11.149784
       Potential energy  (eV) =     -81.686528        -82.229344
       Total energy      (eV) =     -70.565537        -71.079559
       Temperature       (K)  =    2775.346420       2782.532083
       Pressure         (GPa) =      19.108391         18.228099
  ** Time :            2.12500 ps :
     Properties:                   Instantaneous       Averaged
       Kinetic energy    (eV) =      11.068000         11.149130
       Potential energy  (eV) =     -81.670678        -82.224874
       Total energy      (eV) =     -70.602679        -71.075744
       Temperature       (K)  =    2762.121957       2782.368802
       Pressure         (GPa) =      19.348788         18.237064
  ** Time :            2.14200 ps :
     Properties:                   Instantaneous       Averaged
       Kinetic energy    (eV) =      11.485285         11.151798
       Potential energy  (eV) =     -82.220614        -82.224840
       Total energy      (eV) =     -70.735329        -71.073042
       Temperature       (K)  =    2866.259322       2783.034600
       Pressure         (GPa) =      19.027305         18.243336
  ** Time :            2.15900 ps :
     Properties:                   Instantaneous       Averaged
       Kinetic energy    (eV) =      11.598964         11.155319
       Potential energy  (eV) =     -82.711056        -82.228669
       Total energy      (eV) =     -71.112092        -71.073350
       Temperature       (K)  =    2894.628984       2783.913295
       Pressure         (GPa) =      18.275171         18.243587
  ** Time :            2.17600 ps :
     Properties:                   Instantaneous       Averaged
       Kinetic energy    (eV) =      11.897099         11.161114
       Potential energy  (eV) =     -83.927292        -82.241939
       Total energy      (eV) =     -72.030193        -71.080825
       Temperature       (K)  =    2969.031376       2785.359530
       Pressure         (GPa) =      16.622664         18.230923
  ** Time :            2.19300 ps :
     Properties:                   Instantaneous       Averaged
       Kinetic energy    (eV) =      10.524509         11.156179
       Potential energy  (eV) =     -83.583068        -82.252336
       Total energy      (eV) =     -73.058558        -71.096157
       Temperature       (K)  =    2626.488947       2784.127976
       Pressure         (GPa) =      16.198237         18.215166
  ** Time :            2.21000 ps :
     Properties:                   Instantaneous       Averaged
       Kinetic energy    (eV) =      10.917820         11.154346
       Potential energy  (eV) =     -82.589750        -82.254931
       Total energy      (eV) =     -71.671930        -71.100586
       Temperature       (K)  =    2724.643172       2783.670400
       Pressure         (GPa) =      17.102136         18.206604
  ** Time :            2.22700 ps :
     Properties:                   Instantaneous       Averaged
       Kinetic energy    (eV) =      11.075310         11.153742
       Potential energy  (eV) =     -82.414556        -82.256150
       Total energy      (eV) =     -71.339245        -71.102407
       Temperature       (K)  =    2763.946411       2783.519835
       Pressure         (GPa) =      17.575941         18.201790
  ** Time :            2.24400 ps :
     Properties:                   Instantaneous       Averaged
       Kinetic energy    (eV) =      11.584028         11.157002
       Potential energy  (eV) =     -82.743632        -82.259843
       Total energy      (eV) =     -71.159604        -71.102841
       Temperature       (K)  =    2890.901652       2784.333334
       Pressure         (GPa) =      17.489264         18.196392
  ** Time :            2.26100 ps :
     Properties:                   Instantaneous       Averaged
       Kinetic energy    (eV) =      11.433986         11.159085
       Potential energy  (eV) =     -83.673973        -82.270475
       Total energy      (eV) =     -72.239986        -71.111391
       Temperature       (K)  =    2853.457311       2784.853063
       Pressure         (GPa) =      16.530186         18.183864
  ** Time :            2.27800 ps :
     Properties:                   Instantaneous       Averaged
       Kinetic energy    (eV) =      11.488283         11.161541
       Potential energy  (eV) =     -83.802224        -82.281906
       Total energy      (eV) =     -72.313941        -71.120365
       Temperature       (K)  =    2867.007545       2785.466156
       Pressure         (GPa) =      16.494636         18.171258
  ** Time :            2.29500 ps :
     Properties:                   Instantaneous       Averaged
       Kinetic energy    (eV) =      11.104378         11.161118
       Potential energy  (eV) =     -83.717236        -82.292538
       Total energy      (eV) =     -72.612858        -71.131420
       Temperature       (K)  =    2771.200603       2785.360486
       Pressure         (GPa) =      16.843387         18.161422
  ** Time :            2.31200 ps :
     Properties:                   Instantaneous       Averaged
       Kinetic energy    (eV) =      10.966756         11.159689
       Potential energy  (eV) =     -82.835078        -82.296528
       Total energy      (eV) =     -71.868321        -71.136839
       Temperature       (K)  =    2736.855725       2785.003833
       Pressure         (GPa) =      17.871617         18.159291
  ** Time :            2.32900 ps :
     Properties:                   Instantaneous       Averaged
       Kinetic energy    (eV) =      11.399626         11.161440
       Potential energy  (eV) =     -82.700414        -82.299476
       Total energy      (eV) =     -71.300788        -71.138036
       Temperature       (K)  =    2844.882364       2785.440902
       Pressure         (GPa) =      18.248815         18.159945
  ** Time :            2.34600 ps :
     Properties:                   Instantaneous       Averaged
       Kinetic energy    (eV) =      11.398399         11.163157
       Potential energy  (eV) =     -82.811281        -82.303184
       Total energy      (eV) =     -71.412882        -71.140027
       Temperature       (K)  =    2844.576100       2785.869418
       Pressure         (GPa) =      18.055716         18.159189
  ** Time :            2.36300 ps :
     Properties:                   Instantaneous       Averaged
       Kinetic energy    (eV) =      11.986509         11.169081
       Potential energy  (eV) =     -83.727039        -82.313428
       Total energy      (eV) =     -71.740530        -71.144347
       Temperature       (K)  =    2991.344486       2787.347656
       Pressure         (GPa) =      16.729912         18.148907
  ** Time :            2.38000 ps :
     Properties:                   Instantaneous       Averaged
       Kinetic energy    (eV) =      11.681072         11.172738
       Potential energy  (eV) =     -84.958802        -82.332324
       Total energy      (eV) =     -73.277730        -71.159586
       Temperature       (K)  =    2915.119839       2788.260315
       Pressure         (GPa) =      14.984868         18.126307
  ** Time :            2.39700 ps :
     Properties:                   Instantaneous       Averaged
       Kinetic energy    (eV) =      11.221403         11.173083
       Potential energy  (eV) =     -84.830764        -82.350043
       Total energy      (eV) =     -73.609361        -71.176960
       Temperature       (K)  =    2800.405164       2788.346448
       Pressure         (GPa) =      15.034063         18.104376
  ** Time :            2.41400 ps :
     Properties:                   Instantaneous       Averaged
       Kinetic energy    (eV) =      11.227483         11.173466
       Potential energy  (eV) =     -84.526175        -82.365368
       Total energy      (eV) =     -73.298693        -71.191902
       Temperature       (K)  =    2801.922420       2788.442054
       Pressure         (GPa) =      15.484864         18.085928
  ** Time :            2.43100 ps :
     Properties:                   Instantaneous       Averaged
       Kinetic energy    (eV) =      11.701364         11.177158
       Potential energy  (eV) =     -85.021996        -82.383946
       Total energy      (eV) =     -73.320632        -71.206788
       Temperature       (K)  =    2920.183903       2789.363325
       Pressure         (GPa) =      15.137178         18.065308
  ** Time :            2.44800 ps :
     Properties:                   Instantaneous       Averaged
       Kinetic energy    (eV) =      10.717413         11.173965
       Potential energy  (eV) =     -84.750605        -82.400381
       Total energy      (eV) =     -74.033192        -71.226416
       Temperature       (K)  =    2674.629748       2788.566565
       Pressure         (GPa) =      15.450201         18.047147
  ** Time :            2.46500 ps :
     Properties:                   Instantaneous       Averaged
       Kinetic energy    (eV) =      10.211330         11.167326
       Potential energy  (eV) =     -82.777671        -82.402983
       Total energy      (eV) =     -72.566341        -71.235657
       Temperature       (K)  =    2548.332012       2786.909775
       Pressure         (GPa) =      17.684347         18.044645
  ** Time :            2.48200 ps :
     Properties:                   Instantaneous       Averaged
       Kinetic energy    (eV) =      10.846556         11.165129
       Potential energy  (eV) =     -81.474588        -82.396624
       Total energy      (eV) =     -70.628032        -71.231495
       Temperature       (K)  =    2706.858655       2786.361479
       Pressure         (GPa) =      19.316993         18.053360
  ** Time :            2.49900 ps :
     Properties:                   Instantaneous       Averaged
       Kinetic energy    (eV) =      11.005940         11.164046
       Potential energy  (eV) =     -81.446632        -82.390161
       Total energy      (eV) =     -70.440692        -71.226115
       Temperature       (K)  =    2746.634295       2786.091226
       Pressure         (GPa) =      19.393017         18.062473
  ** Time :            2.51600 ps :
     Properties:                   Instantaneous       Averaged
       Kinetic energy    (eV) =      10.748120         11.161236
       Potential energy  (eV) =     -81.106522        -82.381488
       Total energy      (eV) =     -70.358403        -71.220252
       Temperature       (K)  =    2682.292930       2785.389886
       Pressure         (GPa) =      19.737333         18.073790
  ** Time :            2.53300 ps :
     Properties:                   Instantaneous       Averaged
       Kinetic energy    (eV) =      10.865755         11.159253
       Potential energy  (eV) =     -80.679108        -82.370063
       Total energy      (eV) =     -69.813353        -71.210810
       Temperature       (K)  =    2711.649969       2784.894988
       Pressure         (GPa) =      20.183653         18.087950
  ** Time :            2.55000 ps :
     Properties:                   Instantaneous       Averaged
       Kinetic energy    (eV) =      12.138545         11.165781
       Potential energy  (eV) =     -82.304775        -82.369628
       Total energy      (eV) =     -70.166230        -71.203846
       Temperature       (K)  =    3029.286488       2786.524264
       Pressure         (GPa) =      18.497781         18.090682
  ** Time :            2.56700 ps :
     Properties:                   Instantaneous       Averaged
       Kinetic energy    (eV) =      11.664967         11.169087
       Potential energy  (eV) =     -84.110138        -82.381154
       Total energy      (eV) =     -72.445170        -71.212067
       Temperature       (K)  =    2911.100750       2787.349274
       Pressure         (GPa) =      16.278644         18.078682
  ** Time :            2.58400 ps :
     Properties:                   Instantaneous       Averaged
       Kinetic energy    (eV) =      11.448216         11.170924
       Potential energy  (eV) =     -84.444448        -82.394728
       Total energy      (eV) =     -72.996232        -71.223805
       Temperature       (K)  =    2857.008429       2787.807558
       Pressure         (GPa) =      15.724643         18.063195
  ** Time :            2.60100 ps :
     Properties:                   Instantaneous       Averaged
       Kinetic energy    (eV) =      11.742951         11.174662
       Potential energy  (eV) =     -84.894971        -82.411070
       Total energy      (eV) =     -73.152020        -71.236408
       Temperature       (K)  =    2930.562397       2788.740596
       Pressure         (GPa) =      15.236955         18.044723
  ** Time :            2.61800 ps :
     Properties:                   Instantaneous       Averaged
       Kinetic energy    (eV) =      11.851991         11.179060
       Potential energy  (eV) =     -85.931624        -82.433931
       Total energy      (eV) =     -74.079632        -71.254870
       Temperature       (K)  =    2957.774382       2789.838218
       Pressure         (GPa) =      14.226338         18.019928
  ** Time :            2.63500 ps :
     Properties:                   Instantaneous       Averaged
       Kinetic energy    (eV) =      11.062218         11.178307
       Potential energy  (eV) =     -85.938144        -82.456538
       Total energy      (eV) =     -74.875925        -71.278232
       Temperature       (K)  =    2760.679214       2789.650096
       Pressure         (GPa) =      14.223272         17.995434
  ** Time :            2.65200 ps :
     Properties:                   Instantaneous       Averaged
       Kinetic energy    (eV) =      10.717944         11.175356
       Potential energy  (eV) =     -84.467522        -82.469429
       Total energy      (eV) =     -73.749578        -71.294074
       Temperature       (K)  =    2674.762291       2788.913635
       Pressure         (GPa) =      15.742128         17.980989
  ** Time :            2.66900 ps :
     Properties:                   Instantaneous       Averaged
       Kinetic energy    (eV) =      11.301020         11.176156
       Potential energy  (eV) =     -83.884914        -82.478445
       Total energy      (eV) =     -72.583894        -71.302289
       Temperature       (K)  =    2820.274406       2789.113385
       Pressure         (GPa) =      16.399988         17.970919
  ** Time :            2.68600 ps :
     Properties:                   Instantaneous       Averaged
       Kinetic energy    (eV) =      11.682366         11.179360
       Potential energy  (eV) =     -84.069901        -82.488518
       Total energy      (eV) =     -72.387534        -71.309158
       Temperature       (K)  =    2915.442791       2789.912939
       Pressure         (GPa) =      16.052129         17.958775
  ** Time :            2.70300 ps :
     Properties:                   Instantaneous       Averaged
       Kinetic energy    (eV) =      11.654281         11.182347
       Potential energy  (eV) =     -84.761350        -82.502812
       Total energy      (eV) =     -73.107069        -71.320465
       Temperature       (K)  =    2908.433816       2790.658353
       Pressure         (GPa) =      15.227059         17.941594
  ** Time :            2.72000 ps :
     Properties:                   Instantaneous       Averaged
       Kinetic energy    (eV) =      10.992103         11.181158
       Potential energy  (eV) =     -84.430353        -82.514859
       Total energy      (eV) =     -73.438250        -71.333702
       Temperature       (K)  =    2743.181274       2790.361621
       Pressure         (GPa) =      15.516434         17.926437
  ** Time :            2.73700 ps :
     Properties:                   Instantaneous       Averaged
       Kinetic energy    (eV) =      11.182373         11.181165
       Potential energy  (eV) =     -83.516737        -82.521082
       Total energy      (eV) =     -72.334363        -71.339917
       Temperature       (K)  =    2790.664954       2790.363505
       Pressure         (GPa) =      16.590485         17.918139
  ** Time :            2.75400 ps :
     Properties:                   Instantaneous       Averaged
       Kinetic energy    (eV) =      11.738015         11.184603
       Potential energy  (eV) =     -84.503883        -82.533322
       Total energy      (eV) =     -72.765868        -71.348719
       Temperature       (K)  =    2929.330478       2791.221326
       Pressure         (GPa) =      16.101814         17.906927
  ** Time :            2.77100 ps :
     Properties:                   Instantaneous       Averaged
       Kinetic energy    (eV) =      10.454092         11.180121
       Potential energy  (eV) =     -83.402066        -82.538651
       Total energy      (eV) =     -72.947974        -71.358530
       Temperature       (K)  =    2608.915652       2790.102886
       Pressure         (GPa) =      17.088547         17.901907
  ** Time :            2.78800 ps :
     Properties:                   Instantaneous       Averaged
       Kinetic energy    (eV) =      11.616852         11.182784
[...]
       Kinetic energy    (eV) =       8.703117         10.435925
       Potential energy  (eV) =     -82.255396        -84.096457
       Total energy      (eV) =     -73.552279        -73.660533
       Temperature       (K)  =    2171.943515       2604.381815
       Pressure         (GPa) =      18.210353         15.926182
  ** Time :            9.26500 ps :
     Properties:                   Instantaneous       Averaged
       Kinetic energy    (eV) =       8.250507         10.431915
       Potential energy  (eV) =     -81.751654        -84.092155
       Total energy      (eV) =     -73.501147        -73.660240
       Temperature       (K)  =    2058.990544       2603.381097
       Pressure         (GPa) =      18.607015         15.931101
  ** Time :            9.28200 ps :
     Properties:                   Instantaneous       Averaged
       Kinetic energy    (eV) =      10.187290         10.431467
       Potential energy  (eV) =     -83.992179        -84.091972
       Total energy      (eV) =     -73.804889        -73.660505
       Temperature       (K)  =    2542.332674       2603.269287
       Pressure         (GPa) =      16.256871         15.931698
  ** Time :            9.29900 ps :
     Properties:                   Instantaneous       Averaged
       Kinetic energy    (eV) =      11.431811         10.433296
       Potential energy  (eV) =     -85.093965        -84.093804
       Total energy      (eV) =     -73.662155        -73.660508
       Temperature       (K)  =    2852.914399       2603.725677
       Pressure         (GPa) =      14.823737         15.929673
  ** Time :            9.31600 ps :
     Properties:                   Instantaneous       Averaged
       Kinetic energy    (eV) =      12.008336         10.436170
       Potential energy  (eV) =     -85.739875        -84.096807
       Total energy      (eV) =     -73.731539        -73.660638
       Temperature       (K)  =    2996.791529       2604.442950
       Pressure         (GPa) =      14.296114         15.926692
  ** Time :            9.33300 ps :
     Properties:                   Instantaneous       Averaged
       Kinetic energy    (eV) =      11.872874         10.438787
       Potential energy  (eV) =     -85.590000        -84.099527
       Total energy      (eV) =     -73.717126        -73.660741
       Temperature       (K)  =    2962.985926       2605.096034
       Pressure         (GPa) =      14.777835         15.924599
  ** Time :            9.35000 ps :
     Properties:                   Instantaneous       Averaged
       Kinetic energy    (eV) =      11.077173         10.439947
       Potential energy  (eV) =     -84.735794        -84.100684
       Total energy      (eV) =     -73.658620        -73.660737
       Temperature       (K)  =    2764.411290       2605.385698
       Pressure         (GPa) =      15.841132         15.924447
  ** Time :            9.36700 ps :
     Properties:                   Instantaneous       Averaged
       Kinetic energy    (eV) =      10.033301         10.439209
       Potential energy  (eV) =     -83.739434        -84.100029
       Total energy      (eV) =     -73.706133        -73.660819
       Temperature       (K)  =    2503.903312       2605.201519
       Pressure         (GPa) =      16.722328         15.925895
  ** Time :            9.38400 ps :
     Properties:                   Instantaneous       Averaged
       Kinetic energy    (eV) =       9.711402         10.437891
       Potential energy  (eV) =     -83.282435        -84.098547
       Total energy      (eV) =     -73.571033        -73.660656
       Temperature       (K)  =    2423.570528       2604.872478
       Pressure         (GPa) =      16.728672         15.927350
  ** Time :            9.40100 ps :
     Properties:                   Instantaneous       Averaged
       Kinetic energy    (eV) =      11.266322         10.439389
       Potential energy  (eV) =     -84.982684        -84.100146
       Total energy      (eV) =     -73.716362        -73.660757
       Temperature       (K)  =    2811.615115       2605.246334
       Pressure         (GPa) =      14.839392         15.925382
  ** Time :            9.41800 ps :
     Properties:                   Instantaneous       Averaged
       Kinetic energy    (eV) =      12.363587         10.442862
       Potential energy  (eV) =     -85.919165        -84.103430
       Total energy      (eV) =     -73.555578        -73.660567
       Temperature       (K)  =    3085.447771       2606.113124
       Pressure         (GPa) =      13.782867         15.921515
  ** Time :            9.43500 ps :
     Properties:                   Instantaneous       Averaged
       Kinetic energy    (eV) =      12.698011         10.446926
       Potential energy  (eV) =     -86.442183        -84.107644
       Total energy      (eV) =     -73.744171        -73.660718
       Temperature       (K)  =    3168.906483       2607.127166
       Pressure         (GPa) =      13.410646         15.916991
  ** Time :            9.45200 ps :
     Properties:                   Instantaneous       Averaged
       Kinetic energy    (eV) =      10.963878         10.447855
       Potential energy  (eV) =     -84.713568        -84.108733
       Total energy      (eV) =     -73.749691        -73.660878
       Temperature       (K)  =    2736.137322       2607.359198
       Pressure         (GPa) =      15.218711         15.915735
  ** Time :            9.46900 ps :
     Properties:                   Instantaneous       Averaged
       Kinetic energy    (eV) =       8.891855         10.445062
       Potential energy  (eV) =     -82.147994        -84.105213
       Total energy      (eV) =     -73.256139        -73.660151
       Temperature       (K)  =    2219.044902       2606.662045
       Pressure         (GPa) =      17.456653         15.918501
  ** Time :            9.48600 ps :
     Properties:                   Instantaneous       Averaged
       Kinetic energy    (eV) =      10.159316         10.444550
       Potential energy  (eV) =     -83.908015        -84.104860
       Total energy      (eV) =     -73.748699        -73.660310
       Temperature       (K)  =    2535.351503       2606.534249
       Pressure         (GPa) =      15.918020         15.918500
  ** Time :            9.50300 ps :
     Properties:                   Instantaneous       Averaged
       Kinetic energy    (eV) =      10.829562         10.445238
       Potential energy  (eV) =     -84.543751        -84.105645
       Total energy      (eV) =     -73.714189        -73.660406
       Temperature       (K)  =    2702.617528       2606.706133
       Pressure         (GPa) =      15.649334         15.918019
  ** Time :            9.52000 ps :
     Properties:                   Instantaneous       Averaged
       Kinetic energy    (eV) =      10.122356         10.444662
       Potential energy  (eV) =     -83.604286        -84.104750
       Total energy      (eV) =     -73.481930        -73.660088
       Temperature       (K)  =    2526.127910       2606.562243
       Pressure         (GPa) =      16.832355         15.919652
  ** Time :            9.53700 ps :
     Properties:                   Instantaneous       Averaged
       Kinetic energy    (eV) =      10.647350         10.445023
       Potential energy  (eV) =     -84.260642        -84.105028
       Total energy      (eV) =     -73.613292        -73.660004
       Temperature       (K)  =    2657.144925       2606.652408
       Pressure         (GPa) =      16.242217         15.920227
  ** Time :            9.55400 ps :
     Properties:                   Instantaneous       Averaged
       Kinetic energy    (eV) =      11.451090         10.446813
       Potential energy  (eV) =     -85.119581        -84.106833
       Total energy      (eV) =     -73.668491        -73.660019
       Temperature       (K)  =    2857.725779       2607.099158
       Pressure         (GPa) =      15.123153         15.918808
  ** Time :            9.57100 ps :
     Properties:                   Instantaneous       Averaged
       Kinetic energy    (eV) =      10.772716         10.447392
       Potential energy  (eV) =     -84.437899        -84.107421
       Total energy      (eV) =     -73.665182        -73.660029
       Temperature       (K)  =    2688.431230       2607.243620
       Pressure         (GPa) =      15.423812         15.917929
  ** Time :            9.58800 ps :
     Properties:                   Instantaneous       Averaged
       Kinetic energy    (eV) =      10.330927         10.447186
       Potential energy  (eV) =     -83.785986        -84.106851
       Total energy      (eV) =     -73.455059        -73.659665
       Temperature       (K)  =    2578.178674       2607.192087
       Pressure         (GPa) =      15.907387         15.917910
  ** Time :            9.60500 ps :
     Properties:                   Instantaneous       Averaged
       Kinetic energy    (eV) =      11.172616         10.448470
       Potential energy  (eV) =     -84.905741        -84.108265
       Total energy      (eV) =     -73.733125        -73.659795
       Temperature       (K)  =    2788.229959       2607.512508
       Pressure         (GPa) =      15.159280         15.916568
  ** Time :            9.62200 ps :
     Properties:                   Instantaneous       Averaged
       Kinetic energy    (eV) =      10.609432         10.448754
       Potential energy  (eV) =     -84.150355        -84.108339
       Total energy      (eV) =     -73.540924        -73.659585
       Temperature       (K)  =    2647.682105       2607.583479
       Pressure         (GPa) =      15.970716         15.916663
  ** Time :            9.63900 ps :
     Properties:                   Instantaneous       Averaged
       Kinetic energy    (eV) =      10.079892         10.448104
       Potential energy  (eV) =     -83.618275        -84.107475
       Total energy      (eV) =     -73.538383        -73.659371
       Temperature       (K)  =    2515.530416       2607.421127
       Pressure         (GPa) =      16.658615         15.917972
  ** Time :            9.65600 ps :
     Properties:                   Instantaneous       Averaged
       Kinetic energy    (eV) =      10.211378         10.447687
       Potential energy  (eV) =     -83.799058        -84.106932
       Total energy      (eV) =     -73.587680        -73.659245
       Temperature       (K)  =    2548.344002       2607.317118
       Pressure         (GPa) =      16.715515         15.919376
  ** Time :            9.67300 ps :
     Properties:                   Instantaneous       Averaged
       Kinetic energy    (eV) =      10.205548         10.447261
       Potential energy  (eV) =     -83.686337        -84.106193
       Total energy      (eV) =     -73.480788        -73.658932
       Temperature       (K)  =    2546.889186       2607.210918
       Pressure         (GPa) =      16.870480         15.921048
  ** Time :            9.69000 ps :
     Properties:                   Instantaneous       Averaged
       Kinetic energy    (eV) =      10.746742         10.447787
       Potential energy  (eV) =     -84.272871        -84.106485
       Total energy      (eV) =     -73.526128        -73.658699
       Temperature       (K)  =    2681.949181       2607.342038
       Pressure         (GPa) =      16.165977         15.921477
  ** Time :            9.70700 ps :
     Properties:                   Instantaneous       Averaged
       Kinetic energy    (eV) =      11.759176         10.450083
       Potential energy  (eV) =     -85.304146        -84.108583
       Total energy      (eV) =     -73.544970        -73.658499
       Temperature       (K)  =    2934.611469       2607.915189
       Pressure         (GPa) =      14.883253         15.919659
  ** Time :            9.72400 ps :
     Properties:                   Instantaneous       Averaged
       Kinetic energy    (eV) =      12.236764         10.453207
       Potential energy  (eV) =     -85.951225        -84.111804
       Total energy      (eV) =     -73.714461        -73.658597
       Temperature       (K)  =    3053.797891       2608.694705
       Pressure         (GPa) =      13.928253         15.916178
  ** Time :            9.74100 ps :
     Properties:                   Instantaneous       Averaged
       Kinetic energy    (eV) =      11.084726         10.454309
       Potential energy  (eV) =     -84.616260        -84.112684
       Total energy      (eV) =     -73.531534        -73.658375
       Temperature       (K)  =    2766.296107       2608.969751
       Pressure         (GPa) =      14.934299         15.914464
  ** Time :            9.75800 ps :
     Properties:                   Instantaneous       Averaged
       Kinetic energy    (eV) =      10.124430         10.453734
       Potential energy  (eV) =     -83.636904        -84.111856
       Total energy      (eV) =     -73.512473        -73.658121
       Temperature       (K)  =    2526.645523       2608.826329
       Pressure         (GPa) =      15.850050         15.914352
  ** Time :            9.77500 ps :
     Properties:                   Instantaneous       Averaged
       Kinetic energy    (eV) =       9.908134         10.452785
       Potential energy  (eV) =     -83.575578        -84.110923
       Total energy      (eV) =     -73.667443        -73.658138
       Temperature       (K)  =    2472.666831       2608.589529
       Pressure         (GPa) =      15.942071         15.914400
  ** Time :            9.79200 ps :
     Properties:                   Instantaneous       Averaged
       Kinetic energy    (eV) =       9.774999         10.451609
       Potential energy  (eV) =     -83.347522        -84.109598
       Total energy      (eV) =     -73.572523        -73.657989
       Temperature       (K)  =    2439.441637       2608.295870
       Pressure         (GPa) =      16.283610         15.915041
  ** Time :            9.80900 ps :
     Properties:                   Instantaneous       Averaged
       Kinetic energy    (eV) =       9.357603         10.449713
       Potential energy  (eV) =     -82.807177        -84.107340
       Total energy      (eV) =     -73.449574        -73.657628
       Temperature       (K)  =    2335.276562       2607.822700
       Pressure         (GPa) =      17.030789         15.916975
  ** Time :            9.82600 ps :
     Properties:                   Instantaneous       Averaged
       Kinetic energy    (eV) =       9.194498         10.447541
       Potential energy  (eV) =     -82.618015        -84.104764
       Total energy      (eV) =     -73.423517        -73.657223
       Temperature       (K)  =    2294.572173       2607.280744
       Pressure         (GPa) =      17.472001         15.919665
  ** Time :            9.84300 ps :
     Properties:                   Instantaneous       Averaged
       Kinetic energy    (eV) =      10.016199         10.446796
       Potential energy  (eV) =     -83.484585        -84.103693
       Total energy      (eV) =     -73.468387        -73.656897
       Temperature       (K)  =    2499.635263       2607.094827
       Pressure         (GPa) =      16.935452         15.921419
  ** Time :            9.86000 ps :
     Properties:                   Instantaneous       Averaged
       Kinetic energy    (eV) =      10.701686         10.447235
       Potential energy  (eV) =     -84.190219        -84.103842
       Total energy      (eV) =     -73.488533        -73.656606
       Temperature       (K)  =    2670.705012       2607.204500
       Pressure         (GPa) =      16.320207         15.922107
  ** Time :            9.87700 ps :
     Properties:                   Instantaneous       Averaged
       Kinetic energy    (eV) =      10.783546         10.447814
       Potential energy  (eV) =     -84.281125        -84.104147
       Total energy      (eV) =     -73.497579        -73.656333
       Temperature       (K)  =    2691.133928       2607.348957
       Pressure         (GPa) =      16.161201         15.922519
  ** Time :            9.89400 ps :
     Properties:                   Instantaneous       Averaged
       Kinetic energy    (eV) =      10.258659         10.447489
       Potential energy  (eV) =     -83.720687        -84.103488
       Total energy      (eV) =     -73.462028        -73.655999
       Temperature       (K)  =    2560.143529       2607.267848
       Pressure         (GPa) =      16.547852         15.923593
  ** Time :            9.91100 ps :
     Properties:                   Instantaneous       Averaged
       Kinetic energy    (eV) =       9.995661         10.446714
       Potential energy  (eV) =     -83.405876        -84.102291
       Total energy      (eV) =     -73.410215        -73.655577
       Temperature       (K)  =    2494.509844       2607.074438
       Pressure         (GPa) =      16.632931         15.924810
  ** Time :            9.92800 ps :
     Properties:                   Instantaneous       Averaged
       Kinetic energy    (eV) =      10.638148         10.447042
       Potential energy  (eV) =     -84.167041        -84.102402
       Total energy      (eV) =     -73.528893        -73.655360
       Temperature       (K)  =    2654.848572       2607.156243
       Pressure         (GPa) =      15.896542         15.924761
  ** Time :            9.94500 ps :
     Properties:                   Instantaneous       Averaged
       Kinetic energy    (eV) =      10.463798         10.447071
       Potential energy  (eV) =     -84.135638        -84.102459
       Total energy      (eV) =     -73.671840        -73.655388
       Temperature       (K)  =    2611.337739       2607.163391
       Pressure         (GPa) =      16.026458         15.924935
  ** Time :            9.96200 ps :
     Properties:                   Instantaneous       Averaged
       Kinetic energy    (eV) =       9.039462         10.444669
       Potential energy  (eV) =     -82.141711        -84.099113
       Total energy      (eV) =     -73.102250        -73.654444
       Temperature       (K)  =    2255.881474       2606.563934
       Pressure         (GPa) =      17.633006         15.927850
  ** Time :            9.97900 ps :
     Properties:                   Instantaneous       Averaged
       Kinetic energy    (eV) =      10.249460         10.444336
       Potential energy  (eV) =     -83.874495        -84.098730
       Total energy      (eV) =     -73.625035        -73.654394
       Temperature       (K)  =    2557.847683       2606.480942
       Pressure         (GPa) =      16.047207         15.928053
  ** Time :            9.99600 ps :
     Properties:                   Instantaneous       Averaged
       Kinetic energy    (eV) =      10.670565         10.444721
       Potential energy  (eV) =     -84.255646        -84.098997
       Total energy      (eV) =     -73.585081        -73.654276
       Temperature       (K)  =    2662.938437       2606.576958
       Pressure         (GPa) =      15.647586         15.927576

  Peak dynamic memory used =       0.57 MB 


  Timing analysis for GULP :

--------------------------------------------------------------------------------
  Task / Subroutine                                          Time (Seconds)
--------------------------------------------------------------------------------
  Calculation of real space energy and derivatives                1.2360
  Calculation of many-body energy and derivatives                 0.6680
--------------------------------------------------------------------------------
  Total CPU time                                                  2.1920
--------------------------------------------------------------------------------


  Dump file written as Recovery_2_3000_0.017.res                               
  GULP ASCII trajectory file written as Trajectories_2_3000_0.017.trg           


  Job Finished at 18:21.30 17th May        2018                               

