********************************************************************************
*                       GENERAL UTILITY LATTICE PROGRAM                        *
*                                 Julian Gale                                  *
*                       Curtin Institute for Computation                       *
*                           Department of Chemistry                            *
*                    Curtin University, Western Australia                      *
********************************************************************************
* Version = 5.0.0 * Last modified =  18th April 2018                           *
********************************************************************************
*  single       - perform a single point run                                   *
*  md           - perform molecular dynamics run                               *
*  conv         - constant volume calculation                                  *
********************************************************************************
* molecular dynamics of silver                                                 *
********************************************************************************


  Job Started  at 18:24.35 17th May        2018                               

  Number of CPUs =     1


  Total number of configurations input =   1

********************************************************************************
*  Input for Configuration =   1                                               *
********************************************************************************

  Formula = Ag32                                                        

  Number of irreducible atoms/shells =      32


  Total number atoms/shells =      32

  Dimensionality = 3               :  Bulk   



  Supercell dimensions :  x =   2  y =   2  z =   2

  Cartesian lattice vectors (Angstroms) :

        8.170000    0.000000    0.000000
        0.000000    8.170000    0.000000
        0.000000    0.000000    8.170000

  Cell parameters (Angstroms/Degrees):

  a =       8.1700    alpha =  90.0000
  b =       8.1700    beta  =  90.0000
  c =       8.1700    gamma =  90.0000

  Initial cell volume =         545.338513 Angs**3

  Temperature of configuration =  3000.     K 

  Pressure of configuration =         0.000 GPa 

  Fractional coordinates of asymmetric unit :

--------------------------------------------------------------------------------
   No.  Atomic       x           y          z         Charge      Occupancy
        Label      (Frac)      (Frac)     (Frac)        (e)         (Frac)  
--------------------------------------------------------------------------------
      1 Ag    c    0.000000 *  0.000000 *  0.000000 *   0.00000    1.000000    
      2 Ag    c    0.000000 *  0.000000 *  0.500000 *   0.00000    1.000000    
      3 Ag    c    0.000000 *  0.500000 *  0.000000 *   0.00000    1.000000    
      4 Ag    c    0.000000 *  0.500000 *  0.500000 *   0.00000    1.000000    
      5 Ag    c    0.500000 *  0.000000 *  0.000000 *   0.00000    1.000000    
      6 Ag    c    0.500000 *  0.000000 *  0.500000 *   0.00000    1.000000    
      7 Ag    c    0.500000 *  0.500000 *  0.000000 *   0.00000    1.000000    
      8 Ag    c    0.500000 *  0.500000 *  0.500000 *   0.00000    1.000000    
      9 Ag    c    0.000000 *  0.250000 *  0.250000 *   0.00000    1.000000    
     10 Ag    c    0.000000 *  0.250000 *  0.750000 *   0.00000    1.000000    
     11 Ag    c    0.000000 *  0.750000 *  0.250000 *   0.00000    1.000000    
     12 Ag    c    0.000000 *  0.750000 *  0.750000 *   0.00000    1.000000    
     13 Ag    c    0.500000 *  0.250000 *  0.250000 *   0.00000    1.000000    
     14 Ag    c    0.500000 *  0.250000 *  0.750000 *   0.00000    1.000000    
     15 Ag    c    0.500000 *  0.750000 *  0.250000 *   0.00000    1.000000    
     16 Ag    c    0.500000 *  0.750000 *  0.750000 *   0.00000    1.000000    
     17 Ag    c    0.250000 *  0.000000 *  0.250000 *   0.00000    1.000000    
     18 Ag    c    0.250000 *  0.000000 *  0.750000 *   0.00000    1.000000    
     19 Ag    c    0.250000 *  0.500000 *  0.250000 *   0.00000    1.000000    
     20 Ag    c    0.250000 *  0.500000 *  0.750000 *   0.00000    1.000000    
     21 Ag    c    0.750000 *  0.000000 *  0.250000 *   0.00000    1.000000    
     22 Ag    c    0.750000 *  0.000000 *  0.750000 *   0.00000    1.000000    
     23 Ag    c    0.750000 *  0.500000 *  0.250000 *   0.00000    1.000000    
     24 Ag    c    0.750000 *  0.500000 *  0.750000 *   0.00000    1.000000    
     25 Ag    c    0.250000 *  0.250000 *  0.000000 *   0.00000    1.000000    
     26 Ag    c    0.250000 *  0.250000 *  0.500000 *   0.00000    1.000000    
     27 Ag    c    0.250000 *  0.750000 *  0.000000 *   0.00000    1.000000    
     28 Ag    c    0.250000 *  0.750000 *  0.500000 *   0.00000    1.000000    
     29 Ag    c    0.750000 *  0.250000 *  0.000000 *   0.00000    1.000000    
     30 Ag    c    0.750000 *  0.250000 *  0.500000 *   0.00000    1.000000    
     31 Ag    c    0.750000 *  0.750000 *  0.000000 *   0.00000    1.000000    
     32 Ag    c    0.750000 *  0.750000 *  0.500000 *   0.00000    1.000000    
--------------------------------------------------------------------------------



********************************************************************************
*  General input information                                                   *
********************************************************************************

  Species output for all configurations : 

--------------------------------------------------------------------------------
  Species    Type    Atomic    Atomic    Charge       Radii (Angs)     Library
                     Number     Mass       (e)     Cova   Ionic  VDW   Symbol
--------------------------------------------------------------------------------
    Ag       Core       47     107.87   0.000000   1.590  0.000  2.370          
--------------------------------------------------------------------------------


  Lattice summation method               =    Ewald          (3-D)
                                         =    Parry          (2-D)
                                         =    Saunders et al (1-D)
  Accuracy factor for lattice sums       =   12.000


  Time limit = Infinity

  Maximum range for interatomic potentials =    100000.000000 Angstroms

  General interatomic potentials :

--------------------------------------------------------------------------------
Atom  Types   Potential      Parameter       Value         Units   Cutoffs(Ang)
  1     2                                                            Min /  Max 
--------------------------------------------------------------------------------
Ag   c Ag   c Many-body                                             0.000  8.000
--------------------------------------------------------------------------------
Ag   c Ag   c Buckingham    Buckingham A     11454.950    eV        0.000 12.000
                            Buckingham rho  0.26432400    Ang       
                            Buckingham C     0.0000000    eV*Ang^6  
--------------------------------------------------------------------------------

  Embedded Atom Model Densities :

--------------------------------------------------------------------------------
  Atom(s)       Functional Form          A          B          C         n      
--------------------------------------------------------------------------------
  Ag   c        Exponential          1.388      2.173      2.889         0
--------------------------------------------------------------------------------


  Embedded Atom Model alloy parameters :

--------------------------------------------------------------------------------
  Atom(s)                          Scale factor 
--------------------------------------------------------------------------------
  Ag    c                            1.000000
--------------------------------------------------------------------------------

  Embedded Atom Model functional = Square Root

--------------------------------------------------------------------------------
  Atom                     A     
--------------------------------------------------------------------------------
  Ag    c               1.000000
--------------------------------------------------------------------------------


  Manybody second derivative cross term cutoffs to be scale by = 0.50000000

********************************************************************************
*  Output for configuration   1                                                *
********************************************************************************


  Components of energy : 

--------------------------------------------------------------------------------
  Interatomic potentials     =          39.71625760 eV    
  Many-body potentials       =        -134.45860512 eV    
  Monopole - monopole (real) =           0.00000000 eV    
  Monopole - monopole (recip)=           0.00000000 eV    
  Monopole - monopole (total)=           0.00000000 eV    
--------------------------------------------------------------------------------
  Total lattice energy       =         -94.74234752 eV    
--------------------------------------------------------------------------------
  Total lattice energy       =           -9141.1883 kJ/(mole unit cells)
--------------------------------------------------------------------------------

  Equations of motion will be integrated using the leapfrog Verlet algorithm.

********************************************************************************
*  Molecular Dynamics                                                          *
********************************************************************************

  Microcanonical ensemble (NVE) to be used

  No. of mobile ions        =                 32

  No. of degrees of freedom =                 93

  Time step                 =           0.016000 ps
  Equilibration time        =           5.000000 ps
  Production time           =          10.000000 ps
  Scaling time              =           4.992000 ps
  Scaling frequency         =           0.016000 ps
  Sampling frequency        =           0.016000 ps
  Write frequency           =           0.016000 ps
  TD-Force start time       =           0.000000 ps
  TD-Field start time       =           0.000000 ps



  Molecular dynamics equilibration :

  ** Time :            0.01600 ps :
     Properties:                   Instantaneous       Averaged
       Kinetic energy    (eV) =      12.021192         12.021192
       Potential energy  (eV) =     -94.742348        -94.742348
       Total energy      (eV) =     -82.721155        -82.721155
       Temperature       (K)  =    3000.000000       3000.000000
       Pressure         (GPa) =       2.339048          2.339048
  ** Time :            0.03200 ps :
     Properties:                   Instantaneous       Averaged
       Kinetic energy    (eV) =      10.354614         11.187903
       Potential energy  (eV) =     -93.120598        -93.931473
       Total energy      (eV) =     -82.765984        -82.743570
       Temperature       (K)  =    2584.089984       2792.044992
       Pressure         (GPa) =       4.329508          3.334278
  ** Time :            0.04800 ps :
     Properties:                   Instantaneous       Averaged
       Kinetic energy    (eV) =       8.668572         10.348126
       Potential energy  (eV) =     -88.559523        -92.140823
       Total energy      (eV) =     -79.890951        -81.792697
       Temperature       (K)  =    2163.322519       2582.470834
       Pressure         (GPa) =       9.852153          5.506903
  ** Time :            0.06400 ps :
     Properties:                   Instantaneous       Averaged
       Kinetic energy    (eV) =       9.434507         10.119721
       Potential energy  (eV) =     -84.212141        -90.158652
       Total energy      (eV) =     -74.777634        -80.038931
       Temperature       (K)  =    2354.468720       2525.470306
       Pressure         (GPa) =      15.255776          7.944121
  ** Time :            0.08000 ps :
     Properties:                   Instantaneous       Averaged
       Kinetic energy    (eV) =      11.351185         10.366014
       Potential energy  (eV) =     -83.427249        -88.812371
       Total energy      (eV) =     -72.076064        -78.446357
       Temperature       (K)  =    2832.793433       2586.934931
       Pressure         (GPa) =      16.897146          9.734726
  ** Time :            0.09600 ps :
     Properties:                   Instantaneous       Averaged
       Kinetic energy    (eV) =      10.617391         10.407910
       Potential energy  (eV) =     -82.720544        -87.797067
       Total energy      (eV) =     -72.103154        -77.389157
       Temperature       (K)  =    2649.668292       2597.390491
       Pressure         (GPa) =      17.524523         11.033026
  ** Time :            0.11200 ps :
     Properties:                   Instantaneous       Averaged
       Kinetic energy    (eV) =      10.557392         10.429265
       Potential energy  (eV) =     -81.017588        -86.828570
       Total energy      (eV) =     -70.460196        -76.399305
       Temperature       (K)  =    2634.695004       2602.719707
       Pressure         (GPa) =      19.336328         12.219212
  ** Time :            0.12800 ps :
     Properties:                   Instantaneous       Averaged
       Kinetic energy    (eV) =      10.832739         10.479699
       Potential energy  (eV) =     -80.224795        -86.003098
       Total energy      (eV) =     -69.392055        -75.523399
       Temperature       (K)  =    2703.410598       2615.306069
       Pressure         (GPa) =      20.654393         13.273609
  ** Time :            0.14400 ps :
     Properties:                   Instantaneous       Averaged
       Kinetic energy    (eV) =      10.158836         10.444048
       Potential energy  (eV) =     -78.559653        -85.176049
       Total energy      (eV) =     -68.400817        -74.732001
       Temperature       (K)  =    2535.231746       2606.408922
       Pressure         (GPa) =      22.549113         14.304221
  ** Time :            0.16000 ps :
     Properties:                   Instantaneous       Averaged
       Kinetic energy    (eV) =      10.552826         10.454925
       Potential energy  (eV) =     -76.689438        -84.327388
       Total energy      (eV) =     -66.136612        -73.872462
       Temperature       (K)  =    2633.555594       2609.123589
       Pressure         (GPa) =      24.466159         15.320415
  ** Time :            0.17600 ps :
     Properties:                   Instantaneous       Averaged
       Kinetic energy    (eV) =      12.035400         10.598605
       Potential energy  (eV) =     -77.866654        -83.740048
       Total energy      (eV) =     -65.831254        -73.141443
       Temperature       (K)  =    3003.545636       2644.980139
       Pressure         (GPa) =      23.581061         16.071382
  ** Time :            0.19200 ps :
     Properties:                   Instantaneous       Averaged
       Kinetic energy    (eV) =      11.840863         10.702126
       Potential energy  (eV) =     -79.797938        -83.411539
       Total energy      (eV) =     -67.957075        -72.709413
       Temperature       (K)  =    2954.997144       2670.814889
       Pressure         (GPa) =      21.550807         16.528001
  ** Time :            0.20800 ps :
     Properties:                   Instantaneous       Averaged
       Kinetic energy    (eV) =      11.148381         10.736454
       Potential energy  (eV) =     -79.753735        -83.130169
       Total energy      (eV) =     -68.605354        -72.393716
       Temperature       (K)  =    2782.181842       2679.381578
       Pressure         (GPa) =      21.300679         16.895130
  ** Time :            0.22400 ps :
     Properties:                   Instantaneous       Averaged
       Kinetic energy    (eV) =      11.131948         10.764703
       Potential energy  (eV) =     -79.344766        -82.859783
       Total energy      (eV) =     -68.212818        -72.095080
       Temperature       (K)  =    2778.080924       2686.431531
       Pressure         (GPa) =      21.606602         17.231664
  ** Time :            0.24000 ps :
     Properties:                   Instantaneous       Averaged
       Kinetic energy    (eV) =      11.630010         10.822390
       Potential energy  (eV) =     -79.588891        -82.641724
       Total energy      (eV) =     -67.958881        -71.819334
       Temperature       (K)  =    2902.376964       2700.827893
       Pressure         (GPa) =      21.326397         17.504646
  ** Time :            0.25600 ps :
     Properties:                   Instantaneous       Averaged
       Kinetic energy    (eV) =      11.837170         10.885814
       Potential energy  (eV) =     -80.406581        -82.502028
       Total energy      (eV) =     -68.569411        -71.616213
       Temperature       (K)  =    2954.075568       2716.655873
       Pressure         (GPa) =      20.429570         17.687454
  ** Time :            0.27200 ps :
     Properties:                   Instantaneous       Averaged
       Kinetic energy    (eV) =      11.492735         10.921515
       Potential energy  (eV) =     -81.069781        -82.417778
       Total energy      (eV) =     -69.577046        -71.496262
       Temperature       (K)  =    2868.118723       2725.565452
       Pressure         (GPa) =      19.654312         17.803152
  ** Time :            0.28800 ps :
     Properties:                   Instantaneous       Averaged
       Kinetic energy    (eV) =      10.867692         10.918525
       Potential energy  (eV) =     -80.503505        -82.311429
       Total energy      (eV) =     -69.635813        -71.392904
       Temperature       (K)  =    2712.133343       2724.819224
       Pressure         (GPa) =      20.026788         17.926687
  ** Time :            0.30400 ps :
     Properties:                   Instantaneous       Averaged
       Kinetic energy    (eV) =      10.982533         10.921894
       Potential energy  (eV) =     -80.082783        -82.194132
       Total energy      (eV) =     -69.100250        -71.272238
       Temperature       (K)  =    2740.793082       2725.659953
       Pressure         (GPa) =      20.733496         18.074414
  ** Time :            0.32000 ps :
     Properties:                   Instantaneous       Averaged
       Kinetic energy    (eV) =      10.420242         10.896811
       Potential energy  (eV) =     -79.097907        -82.039321
       Total energy      (eV) =     -68.677665        -71.142509
       Temperature       (K)  =    2600.467994       2719.400355
       Pressure         (GPa) =      21.960900         18.268738
  ** Time :            0.33600 ps :
     Properties:                   Instantaneous       Averaged
       Kinetic energy    (eV) =      11.077783         10.905429
       Potential energy  (eV) =     -78.125984        -81.852972
       Total energy      (eV) =     -67.048201        -70.947542
       Temperature       (K)  =    2764.563476       2721.550980
       Pressure         (GPa) =      23.143378         18.500864
  ** Time :            0.35200 ps :
     Properties:                   Instantaneous       Averaged
       Kinetic energy    (eV) =      11.740845         10.943403
       Potential energy  (eV) =     -79.176949        -81.731334
       Total energy      (eV) =     -67.436104        -70.787932
       Temperature       (K)  =    2930.036708       2731.027604
       Pressure         (GPa) =      22.226253         18.670200
  ** Time :            0.36800 ps :
     Properties:                   Instantaneous       Averaged
       Kinetic energy    (eV) =      10.457829         10.922291
       Potential energy  (eV) =     -78.564662        -81.593653
       Total energy      (eV) =     -68.106833        -70.671362
       Temperature       (K)  =    2609.848127       2725.758931
       Pressure         (GPa) =      22.562184         18.839416
  ** Time :            0.38400 ps :
     Properties:                   Instantaneous       Averaged
       Kinetic energy    (eV) =      10.901907         10.921441
       Potential energy  (eV) =     -77.404196        -81.419092
       Total energy      (eV) =     -66.502289        -70.497651
       Temperature       (K)  =    2720.671957       2725.546974
       Pressure         (GPa) =      23.765775         19.044681
  ** Time :            0.40000 ps :
     Properties:                   Instantaneous       Averaged
       Kinetic energy    (eV) =      10.922615         10.921488
       Potential energy  (eV) =     -77.527950        -81.263446
       Total energy      (eV) =     -66.605335        -70.341958
       Temperature       (K)  =    2725.839865       2725.558690
       Pressure         (GPa) =      23.633653         19.228240
  ** Time :            0.41600 ps :
     Properties:                   Instantaneous       Averaged
       Kinetic energy    (eV) =      11.338559         10.937529
       Potential energy  (eV) =     -78.107071        -81.142047
       Total energy      (eV) =     -66.768512        -70.204518
       Temperature       (K)  =    2829.642477       2729.561912
       Pressure         (GPa) =      23.078204         19.376316
  ** Time :            0.43200 ps :
     Properties:                   Instantaneous       Averaged
       Kinetic energy    (eV) =      10.773309         10.931447
       Potential energy  (eV) =     -77.966796        -81.024445
       Total energy      (eV) =     -67.193487        -70.092998
       Temperature       (K)  =    2688.579087       2728.044030
       Pressure         (GPa) =      22.818432         19.503801
  ** Time :            0.44800 ps :
     Properties:                   Instantaneous       Averaged
       Kinetic energy    (eV) =      11.494416         10.951553
       Potential energy  (eV) =     -78.426454        -80.931660
       Total energy      (eV) =     -66.932038        -69.980107
       Temperature       (K)  =    2868.538040       2733.061673
       Pressure         (GPa) =      22.443478         19.608790
  ** Time :            0.46400 ps :
     Properties:                   Instantaneous       Averaged
       Kinetic energy    (eV) =      10.952454         10.951584
       Potential energy  (eV) =     -78.465938        -80.846635
       Total energy      (eV) =     -67.513484        -69.895051
       Temperature       (K)  =    2733.286485       2733.069425
       Pressure         (GPa) =      22.430256         19.706082
  ** Time :            0.48000 ps :
     Properties:                   Instantaneous       Averaged
       Kinetic energy    (eV) =      10.539027         10.937832
       Potential energy  (eV) =     -77.412626        -80.732168
       Total energy      (eV) =     -66.873600        -69.794336
       Temperature       (K)  =    2630.111863       2729.637506
       Pressure         (GPa) =      23.577205         19.835119
  ** Time :            0.49600 ps :
     Properties:                   Instantaneous       Averaged
       Kinetic energy    (eV) =      11.363910         10.951577
       Potential energy  (eV) =     -76.657854        -80.600739
       Total energy      (eV) =     -65.293943        -69.649162
       Temperature       (K)  =    2835.969176       2733.067560
       Pressure         (GPa) =      24.196189         19.975799
  ** Time :            0.51200 ps :
     Properties:                   Instantaneous       Averaged
       Kinetic energy    (eV) =      12.970451         11.014667
       Potential energy  (eV) =     -79.991583        -80.581702
       Total energy      (eV) =     -67.021132        -69.567036
       Temperature       (K)  =    3236.896393       2748.812211
       Pressure         (GPa) =      20.941901         20.005990
  ** Time :            0.52800 ps :
     Properties:                   Instantaneous       Averaged
       Kinetic energy    (eV) =      11.246227         11.021684
       Potential energy  (eV) =     -81.449819        -80.608009
       Total energy      (eV) =     -70.203592        -69.586325
       Temperature       (K)  =    2806.600245       2750.563364
       Pressure         (GPa) =      19.101524         19.978582
  ** Time :            0.54400 ps :
     Properties:                   Instantaneous       Averaged
       Kinetic energy    (eV) =      10.878230         11.017464
       Potential energy  (eV) =     -80.203861        -80.596122
       Total energy      (eV) =     -69.325631        -69.578658
       Temperature       (K)  =    2714.763222       2749.510418
       Pressure         (GPa) =      20.482398         19.993400
  ** Time :            0.56000 ps :
     Properties:                   Instantaneous       Averaged
       Kinetic energy    (eV) =      11.797900         11.039763
       Potential energy  (eV) =     -80.810035        -80.602234
       Total energy      (eV) =     -69.012135        -69.562472
       Temperature       (K)  =    2944.275269       2755.075129
       Pressure         (GPa) =      20.431245         20.005910
  ** Time :            0.57600 ps :
     Properties:                   Instantaneous       Averaged
       Kinetic energy    (eV) =      11.414629         11.050176
       Potential energy  (eV) =     -81.198254        -80.618790
       Total energy      (eV) =     -69.783625        -69.568615
       Temperature       (K)  =    2848.626485       2757.673777
       Pressure         (GPa) =      19.879609         20.002401
  ** Time :            0.59200 ps :
     Properties:                   Instantaneous       Averaged
       Kinetic energy    (eV) =      12.098994         11.078522
       Potential energy  (eV) =     -82.397111        -80.666853
       Total energy      (eV) =     -70.298117        -69.588331
       Temperature       (K)  =    3019.416162       2764.747896
       Pressure         (GPa) =      18.572293         19.963750
  ** Time :            0.60800 ps :
     Properties:                   Instantaneous       Averaged
       Kinetic energy    (eV) =      11.687701         11.094553
       Potential energy  (eV) =     -83.422937        -80.739381
       Total energy      (eV) =     -71.735235        -69.644828
       Temperature       (K)  =    2916.774292       2768.748590
       Pressure         (GPa) =      17.167728         19.890170
  ** Time :            0.62400 ps :
     Properties:                   Instantaneous       Averaged
       Kinetic energy    (eV) =      11.079077         11.094156
       Potential energy  (eV) =     -83.217934        -80.802934
       Total energy      (eV) =     -72.138857        -69.708778
       Temperature       (K)  =    2764.886362       2768.649559
       Pressure         (GPa) =      17.189365         19.820919
  ** Time :            0.64000 ps :
     Properties:                   Instantaneous       Averaged
       Kinetic energy    (eV) =      10.268910         11.073525
       Potential energy  (eV) =     -81.381231        -80.817392
       Total energy      (eV) =     -71.112321        -69.743866
       Temperature       (K)  =    2562.701827       2763.500866
       Pressure         (GPa) =      18.958111         19.799349
  ** Time :            0.65600 ps :
     Properties:                   Instantaneous       Averaged
       Kinetic energy    (eV) =      10.762133         11.065930
       Potential energy  (eV) =     -79.754445        -80.791466
       Total energy      (eV) =     -68.992312        -69.725536
       Temperature       (K)  =    2685.790155       2761.605482
       Pressure         (GPa) =      20.734421         19.822155
  ** Time :            0.67200 ps :
     Properties:                   Instantaneous       Averaged
       Kinetic energy    (eV) =      11.341194         11.072484
       Potential energy  (eV) =     -79.906724        -80.770401
       Total energy      (eV) =     -68.565531        -69.697917
       Temperature       (K)  =    2830.300096       2763.241068
       Pressure         (GPa) =      20.703527         19.843140
  ** Time :            0.68800 ps :
     Properties:                   Instantaneous       Averaged
       Kinetic energy    (eV) =      11.104168         11.073221
       Potential energy  (eV) =     -80.085979        -80.754484
       Total energy      (eV) =     -68.981811        -69.681263
       Temperature       (K)  =    2771.148137       2763.424954
       Pressure         (GPa) =      20.602652         19.860803
  ** Time :            0.70400 ps :
     Properties:                   Instantaneous       Averaged
       Kinetic energy    (eV) =      10.058467         11.050158
       Potential energy  (eV) =     -78.590515        -80.705303
       Total energy      (eV) =     -68.532048        -69.655145
       Temperature       (K)  =    2510.183840       2757.669474
       Pressure         (GPa) =      22.230006         19.914649
  ** Time :            0.72000 ps :
     Properties:                   Instantaneous       Averaged
       Kinetic energy    (eV) =      11.228154         11.054114
       Potential energy  (eV) =     -77.527971        -80.634695
       Total energy      (eV) =     -66.299817        -69.580582
       Temperature       (K)  =    2802.089945       2758.656595
       Pressure         (GPa) =      23.793464         20.000845
  ** Time :            0.73600 ps :
     Properties:                   Instantaneous       Averaged
       Kinetic energy    (eV) =      11.837695         11.071148
       Potential energy  (eV) =     -79.210668        -80.603738
       Total energy      (eV) =     -67.372973        -69.532590
       Temperature       (K)  =    2954.206641       2762.907683
       Pressure         (GPa) =      22.365456         20.052249
  ** Time :            0.75200 ps :
     Properties:                   Instantaneous       Averaged
       Kinetic energy    (eV) =      11.882072         11.088402
       Potential energy  (eV) =     -80.350782        -80.598356
       Total energy      (eV) =     -68.468711        -69.509954
       Temperature       (K)  =    2965.281135       2767.213502
       Pressure         (GPa) =      20.933015         20.070989
  ** Time :            0.76800 ps :
     Properties:                   Instantaneous       Averaged
       Kinetic energy    (eV) =      11.201900         11.090766
       Potential energy  (eV) =     -81.030686        -80.607363
       Total energy      (eV) =     -69.828787        -69.516597
       Temperature       (K)  =    2795.537972       2767.803595
       Pressure         (GPa) =      19.946706         20.068400
  ** Time :            0.78400 ps :
     Properties:                   Instantaneous       Averaged
       Kinetic energy    (eV) =      10.611394         11.080983
       Potential energy  (eV) =     -79.876450        -80.592447
       Total energy      (eV) =     -69.265056        -69.511463
       Temperature       (K)  =    2648.171742       2765.362128
       Pressure         (GPa) =      20.895606         20.085282
  ** Time :            0.80000 ps :
     Properties:                   Instantaneous       Averaged
       Kinetic energy    (eV) =      10.539352         11.070151
       Potential energy  (eV) =     -78.712601        -80.554850
       Total energy      (eV) =     -68.173249        -69.484699
       Temperature       (K)  =    2630.193102       2762.658748
       Pressure         (GPa) =      22.132390         20.126224
  ** Time :            0.81600 ps :
     Properties:                   Instantaneous       Averaged
       Kinetic energy    (eV) =      10.778482         11.064432
       Potential energy  (eV) =     -77.630649        -80.497512
       Total energy      (eV) =     -66.852167        -69.433081
       Temperature       (K)  =    2689.870046       2761.231518
       Pressure         (GPa) =      23.330156         20.189046
  ** Time :            0.83200 ps :
     Properties:                   Instantaneous       Averaged
       Kinetic energy    (eV) =      11.296494         11.068894
       Potential energy  (eV) =     -78.083783        -80.451095
       Total energy      (eV) =     -66.787288        -69.382200
       Temperature       (K)  =    2819.144919       2762.345238
       Pressure         (GPa) =      22.940980         20.241968
  ** Time :            0.84800 ps :
     Properties:                   Instantaneous       Averaged
       Kinetic energy    (eV) =      10.588647         11.059833
       Potential energy  (eV) =     -77.041455        -80.386762
       Total energy      (eV) =     -66.452808        -69.326929
       Temperature       (K)  =    2642.495038       2760.083913
       Pressure         (GPa) =      23.250068         20.298724
  ** Time :            0.86400 ps :
     Properties:                   Instantaneous       Averaged
       Kinetic energy    (eV) =      11.498051         11.067948
       Potential energy  (eV) =     -78.771377        -80.356847
       Total energy      (eV) =     -67.273325        -69.288899
       Temperature       (K)  =    2869.445370       2762.109125
       Pressure         (GPa) =      22.249611         20.334852
  ** Time :            0.88000 ps :
     Properties:                   Instantaneous       Averaged
       Kinetic energy    (eV) =      11.042115         11.067479
       Potential energy  (eV) =     -78.432976        -80.321868
       Total energy      (eV) =     -67.390861        -69.254389
       Temperature       (K)  =    2755.662299       2761.991910
       Pressure         (GPa) =      22.688803         20.377651
  ** Time :            0.89600 ps :
     Properties:                   Instantaneous       Averaged
       Kinetic energy    (eV) =      11.897127         11.082294
       Potential energy  (eV) =     -80.278139        -80.321087
       Total energy      (eV) =     -68.381012        -69.238793
       Temperature       (K)  =    2969.038271       2765.689167
       Pressure         (GPa) =      21.247523         20.393184
  ** Time :            0.91200 ps :
     Properties:                   Instantaneous       Averaged
       Kinetic energy    (eV) =      11.342913         11.086866
       Potential energy  (eV) =     -81.004648        -80.333079
       Total energy      (eV) =     -69.661735        -69.246213
       Temperature       (K)  =    2830.729061       2766.830217
       Pressure         (GPa) =      20.360673         20.392614
  ** Time :            0.92800 ps :
     Properties:                   Instantaneous       Averaged
       Kinetic energy    (eV) =      10.817787         11.082227
       Potential energy  (eV) =     -80.089098        -80.328873
       Total energy      (eV) =     -69.271312        -69.246646
       Temperature       (K)  =    2699.679027       2765.672438
       Pressure         (GPa) =      21.048838         20.403928
  ** Time :            0.94400 ps :
     Properties:                   Instantaneous       Averaged
       Kinetic energy    (eV) =      11.483069         11.089021
       Potential energy  (eV) =     -79.734688        -80.318802
       Total energy      (eV) =     -68.251619        -69.229781
       Temperature       (K)  =    2865.706258       2767.367927
       Pressure         (GPa) =      21.579725         20.423857
  ** Time :            0.96000 ps :
     Properties:                   Instantaneous       Averaged
       Kinetic energy    (eV) =      11.027557         11.087996
       Potential energy  (eV) =     -79.796744        -80.310101
       Total energy      (eV) =     -68.769187        -69.222104
       Temperature       (K)  =    2752.029146       2767.112280
       Pressure         (GPa) =      21.700658         20.445137
  ** Time :            0.97600 ps :
     Properties:                   Instantaneous       Averaged
       Kinetic energy    (eV) =      11.148189         11.088983
       Potential energy  (eV) =     -79.065662        -80.289700
       Total energy      (eV) =     -67.917473        -69.200717
       Temperature       (K)  =    2782.134026       2767.358539
       Pressure         (GPa) =      22.668303         20.481582
  ** Time :            0.99200 ps :
     Properties:                   Instantaneous       Averaged
       Kinetic energy    (eV) =      11.421995         11.094354
       Potential energy  (eV) =     -79.294327        -80.273646
       Total energy      (eV) =     -67.872332        -69.179292
       Temperature       (K)  =    2850.464735       2768.698961
       Pressure         (GPa) =      22.479082         20.513800
  ** Time :            1.00800 ps :
     Properties:                   Instantaneous       Averaged
       Kinetic energy    (eV) =      11.829113         11.106017
       Potential energy  (eV) =     -80.042932        -80.269984
       Total energy      (eV) =     -68.213819        -69.163967
       Temperature       (K)  =    2952.064743       2771.609529
       Pressure         (GPa) =      21.305666         20.526369
  ** Time :            1.02400 ps :
     Properties:                   Instantaneous       Averaged
       Kinetic energy    (eV) =      11.576749         11.113372
       Potential energy  (eV) =     -81.235987        -80.285077
       Total energy      (eV) =     -69.659238        -69.171705
       Temperature       (K)  =    2889.085020       2773.445084
       Pressure         (GPa) =      19.680568         20.513154
  ** Time :            1.04000 ps :
     Properties:                   Instantaneous       Averaged
       Kinetic energy    (eV) =      10.983580         11.111375
       Potential energy  (eV) =     -80.780072        -80.292693
       Total energy      (eV) =     -69.796491        -69.181317
       Temperature       (K)  =    2741.054362       2772.946765
       Pressure         (GPa) =      19.802887         20.502227
  ** Time :            1.05600 ps :
     Properties:                   Instantaneous       Averaged
       Kinetic energy    (eV) =      11.560674         11.118183
       Potential energy  (eV) =     -80.679889        -80.298559
       Total energy      (eV) =     -69.119215        -69.180376
       Temperature       (K)  =    2885.073526       2774.645655
       Pressure         (GPa) =      19.982331         20.494349
  ** Time :            1.07200 ps :
     Properties:                   Instantaneous       Averaged
       Kinetic energy    (eV) =      11.704508         11.126934
       Potential energy  (eV) =     -81.678775        -80.319159
       Total energy      (eV) =     -69.974267        -69.192225
       Temperature       (K)  =    2920.968406       2776.829577
       Pressure         (GPa) =      19.093956         20.473448
  ** Time :            1.08800 ps :
     Properties:                   Instantaneous       Averaged
       Kinetic energy    (eV) =      10.673045         11.120259
       Potential energy  (eV) =     -80.915344        -80.327927
       Total energy      (eV) =     -70.242298        -69.207668
       Temperature       (K)  =    2663.557464       2775.163810
       Pressure         (GPa) =      19.483288         20.458887
  ** Time :            1.10400 ps :
     Properties:                   Instantaneous       Averaged
       Kinetic energy    (eV) =      11.118275         11.120230
       Potential energy  (eV) =     -80.497009        -80.330377
       Total energy      (eV) =     -69.378734        -69.210147
       Temperature       (K)  =    2774.668694       2775.156635
       Pressure         (GPa) =      20.101393         20.453706
  ** Time :            1.12000 ps :
     Properties:                   Instantaneous       Averaged
       Kinetic energy    (eV) =      10.527057         11.111757
       Potential energy  (eV) =     -79.428969        -80.317500
       Total energy      (eV) =     -68.901912        -69.205744
       Temperature       (K)  =    2627.124624       2773.041892
       Pressure         (GPa) =      21.470919         20.468237
  ** Time :            1.13600 ps :
     Properties:                   Instantaneous       Averaged
       Kinetic energy    (eV) =      10.660116         11.105395
       Potential energy  (eV) =     -77.975304        -80.284511
       Total energy      (eV) =     -67.315188        -69.179116
       Temperature       (K)  =    2660.330718       2771.454410
       Pressure         (GPa) =      23.249557         20.507411
  ** Time :            1.15200 ps :
     Properties:                   Instantaneous       Averaged
       Kinetic energy    (eV) =      11.658086         11.113072
       Potential energy  (eV) =     -78.346560        -80.257595
       Total energy      (eV) =     -66.688474        -69.144524
       Temperature       (K)  =    2909.383553       2773.370093
       Pressure         (GPa) =      23.022553         20.542343
  ** Time :            1.16800 ps :
     Properties:                   Instantaneous       Averaged
       Kinetic energy    (eV) =      11.009133         11.111648
       Potential energy  (eV) =     -78.936337        -80.239496
       Total energy      (eV) =     -67.927204        -69.127848
       Temperature       (K)  =    2747.431237       2773.014766
       Pressure         (GPa) =      22.275098         20.566080
  ** Time :            1.18400 ps :
     Properties:                   Instantaneous       Averaged
       Kinetic energy    (eV) =      11.091568         11.111376
       Potential energy  (eV) =     -78.576541        -80.217024
       Total energy      (eV) =     -67.484973        -69.105647
       Temperature       (K)  =    2768.003761       2772.947050
       Pressure         (GPa) =      22.665730         20.594453
  ** Time :            1.20000 ps :
     Properties:                   Instantaneous       Averaged
       Kinetic energy    (eV) =      11.199924         11.112557
       Potential energy  (eV) =     -78.454841        -80.193528
       Total energy      (eV) =     -67.254917        -69.080971
       Temperature       (K)  =    2795.044969       2773.241689
       Pressure         (GPa) =      22.747324         20.623158
  ** Time :            1.21600 ps :
     Properties:                   Instantaneous       Averaged
       Kinetic energy    (eV) =      11.181460         11.113464
       Potential energy  (eV) =     -78.498069        -80.171219
       Total energy      (eV) =     -67.316609        -69.057755
       Temperature       (K)  =    2790.436981       2773.467943
       Pressure         (GPa) =      22.625645         20.649507
  ** Time :            1.23200 ps :
     Properties:                   Instantaneous       Averaged
       Kinetic energy    (eV) =      11.443785         11.117754
       Potential energy  (eV) =     -78.568806        -80.150409
       Total energy      (eV) =     -67.125021        -69.032655
       Temperature       (K)  =    2855.902553       2774.538522
       Pressure         (GPa) =      22.732605         20.676560
  ** Time :            1.24800 ps :
     Properties:                   Instantaneous       Averaged
       Kinetic energy    (eV) =      11.786283         11.126325
       Potential energy  (eV) =     -79.738882        -80.145133
       Total energy      (eV) =     -67.952599        -69.018808
       Temperature       (K)  =    2941.376176       2776.677466
       Pressure         (GPa) =      22.070840         20.694435
  ** Time :            1.26400 ps :
     Properties:                   Instantaneous       Averaged
       Kinetic energy    (eV) =      11.140845         11.126508
       Potential energy  (eV) =     -79.890849        -80.141914
       Total energy      (eV) =     -68.750004        -69.015406
       Temperature       (K)  =    2780.301243       2776.723337
       Pressure         (GPa) =      22.145202         20.712800
  ** Time :            1.28000 ps :
     Properties:                   Instantaneous       Averaged
       Kinetic energy    (eV) =      11.369120         11.129541
       Potential energy  (eV) =     -79.735946        -80.136839
       Total energy      (eV) =     -68.366826        -69.007298
       Temperature       (K)  =    2837.269423       2777.480163
       Pressure         (GPa) =      22.193837         20.731313
  ** Time :            1.29600 ps :
     Properties:                   Instantaneous       Averaged
       Kinetic energy    (eV) =      11.898527         11.139035
       Potential energy  (eV) =     -80.607236        -80.142647
       Total energy      (eV) =     -68.708708        -69.003612
       Temperature       (K)  =    2969.387873       2779.849394
       Pressure         (GPa) =      20.898199         20.733373
  ** Time :            1.31200 ps :
     Properties:                   Instantaneous       Averaged
       Kinetic energy    (eV) =      11.570967         11.144302
       Potential energy  (eV) =     -81.468785        -80.158819
       Total energy      (eV) =     -69.897817        -69.014517
       Temperature       (K)  =    2887.642225       2781.163941
       Pressure         (GPa) =      19.519391         20.718568
  ** Time :            1.32800 ps :
     Properties:                   Instantaneous       Averaged
       Kinetic energy    (eV) =      11.214146         11.145144
       Potential energy  (eV) =     -81.293458        -80.172489
       Total energy      (eV) =     -70.079312        -69.027346
       Temperature       (K)  =    2798.594230       2781.373944
       Pressure         (GPa) =      19.475964         20.703597
  ** Time :            1.34400 ps :
     Properties:                   Instantaneous       Averaged
       Kinetic energy    (eV) =      10.946372         11.142777
       Potential energy  (eV) =     -80.367757        -80.174814
       Total energy      (eV) =     -69.421386        -69.032037
       Temperature       (K)  =    2731.768614       2780.783405
       Pressure         (GPa) =      20.477303         20.700903
  ** Time :            1.36000 ps :
     Properties:                   Instantaneous       Averaged
       Kinetic energy    (eV) =      11.044920         11.141626
       Potential energy  (eV) =     -79.536779        -80.167308
       Total energy      (eV) =     -68.491859        -69.025682
       Temperature       (K)  =    2756.362322       2780.496098
       Pressure         (GPa) =      21.496395         20.710262
  ** Time :            1.37600 ps :
     Properties:                   Instantaneous       Averaged
       Kinetic energy    (eV) =      11.815945         11.149467
       Potential energy  (eV) =     -80.071907        -80.166198
       Total energy      (eV) =     -68.255961        -69.016731
       Temperature       (K)  =    2948.778738       2782.452873
       Pressure         (GPa) =      21.125703         20.715093
  ** Time :            1.39200 ps :
     Properties:                   Instantaneous       Averaged
       Kinetic energy    (eV) =      10.946306         11.147132
       Potential energy  (eV) =     -80.069443        -80.165086
       Total energy      (eV) =     -69.123136        -69.017955
       Temperature       (K)  =    2731.752227       2781.870107
       Pressure         (GPa) =      20.813307         20.716221
  ** Time :            1.40800 ps :
     Properties:                   Instantaneous       Averaged
       Kinetic energy    (eV) =      11.493845         11.151072
       Potential energy  (eV) =     -79.831561        -80.161296
       Total energy      (eV) =     -68.337716        -69.010225
       Temperature       (K)  =    2868.395626       2782.853351
       Pressure         (GPa) =      21.196028         20.721674
  ** Time :            1.42400 ps :
     Properties:                   Instantaneous       Averaged
       Kinetic energy    (eV) =      11.235199         11.152017
       Potential energy  (eV) =     -80.049770        -80.160043
       Total energy      (eV) =     -68.814571        -69.008026
       Temperature       (K)  =    2803.848001       2783.089246
       Pressure         (GPa) =      21.215115         20.727218
  ** Time :            1.44000 ps :
     Properties:                   Instantaneous       Averaged
       Kinetic energy    (eV) =      10.870171         11.148885
       Potential energy  (eV) =     -79.268910        -80.150142
       Total energy      (eV) =     -68.398739        -69.001256
       Temperature       (K)  =    2712.752013       2782.307721
       Pressure         (GPa) =      22.155987         20.743093
  ** Time :            1.45600 ps :
     Properties:                   Instantaneous       Averaged
       Kinetic energy    (eV) =      10.849460         11.145595
       Potential energy  (eV) =     -78.275040        -80.129536
       Total energy      (eV) =     -67.425580        -68.983941
       Temperature       (K)  =    2707.583442       2781.486575
       Pressure         (GPa) =      23.374557         20.772010
  ** Time :            1.47200 ps :
     Properties:                   Instantaneous       Averaged
       Kinetic energy    (eV) =      10.770696         11.141520
       Potential energy  (eV) =     -77.509222        -80.101054
       Total energy      (eV) =     -66.738527        -68.959535
       Temperature       (K)  =    2687.926956       2780.469623
       Pressure         (GPa) =      24.289268         20.810242
  ** Time :            1.48800 ps :
     Properties:                   Instantaneous       Averaged
       Kinetic energy    (eV) =      10.908070         11.139010
       Potential energy  (eV) =     -76.562098        -80.063001
       Total energy      (eV) =     -65.654029        -68.923991
       Temperature       (K)  =    2722.209916       2779.843174
       Pressure         (GPa) =      25.119071         20.856573
  ** Time :            1.50400 ps :
     Properties:                   Instantaneous       Averaged
       Kinetic energy    (eV) =      12.085190         11.149075
       Potential energy  (eV) =     -78.193485        -80.043113
       Total energy      (eV) =     -66.108295        -68.894037
       Temperature       (K)  =    3015.971312       2782.355176
       Pressure         (GPa) =      23.565727         20.885394
  ** Time :            1.52000 ps :
     Properties:                   Instantaneous       Averaged
       Kinetic energy    (eV) =      11.975105         11.157771
       Potential energy  (eV) =     -79.673548        -80.039223
       Total energy      (eV) =     -67.698443        -68.881452
       Temperature       (K)  =    2988.498457       2784.525105
       Pressure         (GPa) =      21.693072         20.893896
  ** Time :            1.53600 ps :
     Properties:                   Instantaneous       Averaged
       Kinetic energy    (eV) =      11.457085         11.160888
       Potential energy  (eV) =     -80.250514        -80.041423
       Total energy      (eV) =     -68.793429        -68.880535
       Temperature       (K)  =    2859.221840       2785.303196
       Pressure         (GPa) =      21.022111         20.895231
  ** Time :            1.55200 ps :
     Properties:                   Instantaneous       Averaged
       Kinetic energy    (eV) =      10.517447         11.154255
       Potential energy  (eV) =     -79.206542        -80.032816
       Total energy      (eV) =     -68.689095        -68.878562
       Temperature       (K)  =    2624.726369       2783.647765
       Pressure         (GPa) =      22.218230         20.908870
  ** Time :            1.56800 ps :
     Properties:                   Instantaneous       Averaged
       Kinetic energy    (eV) =      11.035769         11.153046
       Potential energy  (eV) =     -77.952229        -80.011586
       Total energy      (eV) =     -66.916461        -68.858540
       Temperature       (K)  =    2754.078391       2783.346037
       Pressure         (GPa) =      23.860961         20.938994
  ** Time :            1.58400 ps :
     Properties:                   Instantaneous       Averaged
       Kinetic energy    (eV) =      11.409080         11.155632
       Potential energy  (eV) =     -78.420672        -79.995516
       Total energy      (eV) =     -67.011592        -68.839884
       Temperature       (K)  =    2847.241756       2783.991448
       Pressure         (GPa) =      23.606427         20.965938
  ** Time :            1.60000 ps :
     Properties:                   Instantaneous       Averaged
       Kinetic energy    (eV) =      12.260914         11.166685
       Potential energy  (eV) =     -79.762903        -79.993190
       Total energy      (eV) =     -67.501989        -68.826505
       Temperature       (K)  =    3059.824843       2786.749782
       Pressure         (GPa) =      22.323516         20.979513
  ** Time :            1.61600 ps :
     Properties:                   Instantaneous       Averaged
       Kinetic energy    (eV) =      11.353747         11.168537
       Potential energy  (eV) =     -81.015090        -80.003308
       Total energy      (eV) =     -69.661343        -68.834771
       Temperature       (K)  =    2833.432732       2787.211989
       Pressure         (GPa) =      21.114300         20.980848
  ** Time :            1.63200 ps :
     Properties:                   Instantaneous       Averaged
       Kinetic energy    (eV) =      10.592111         11.162886
       Potential energy  (eV) =     -79.795936        -80.001275
       Total energy      (eV) =     -69.203825        -68.838389
       Temperature       (K)  =    2643.359432       2785.801670
       Pressure         (GPa) =      22.466821         20.995416
  ** Time :            1.64800 ps :
     Properties:                   Instantaneous       Averaged
       Kinetic energy    (eV) =      10.575638         11.157184
       Potential energy  (eV) =     -78.370682        -79.985444
       Total energy      (eV) =     -67.795043        -68.828259
       Temperature       (K)  =    2639.248602       2784.378825
       Pressure         (GPa) =      24.028954         21.024868
  ** Time :            1.66400 ps :
     Properties:                   Instantaneous       Averaged
       Kinetic energy    (eV) =      11.496820         11.160450
       Potential energy  (eV) =     -78.563273        -79.971769
       Total energy      (eV) =     -67.066453        -68.811319
       Temperature       (K)  =    2869.138112       2785.193818
       Pressure         (GPa) =      24.039155         21.053852
  ** Time :            1.68000 ps :
     Properties:                   Instantaneous       Averaged
       Kinetic energy    (eV) =      11.502434         11.163707
       Potential energy  (eV) =     -79.402116        -79.966344
       Total energy      (eV) =     -67.899682        -68.802637
       Temperature       (K)  =    2870.539064       2786.006630
       Pressure         (GPa) =      23.046084         21.072825
  ** Time :            1.69600 ps :
     Properties:                   Instantaneous       Averaged
       Kinetic energy    (eV) =      12.126881         11.172794
       Potential energy  (eV) =     -80.864676        -79.974819
       Total energy      (eV) =     -68.737795        -68.802025
       Temperature       (K)  =    3026.375517       2788.274261
       Pressure         (GPa) =      21.321039         21.075167
  ** Time :            1.71200 ps :
     Properties:                   Instantaneous       Averaged
       Kinetic energy    (eV) =      11.212635         11.173166
       Potential energy  (eV) =     -81.565263        -79.989683
       Total energy      (eV) =     -70.352628        -68.816517
       Temperature       (K)  =    2798.217127       2788.367185
       Pressure         (GPa) =      20.099052         21.066044
  ** Time :            1.72800 ps :
     Properties:                   Instantaneous       Averaged
       Kinetic energy    (eV) =      10.851563         11.170188
       Potential energy  (eV) =     -80.657863        -79.995869
       Total energy      (eV) =     -69.806300        -68.825681
       Temperature       (K)  =    2708.108211       2787.624046
       Pressure         (GPa) =      20.772861         21.063330
  ** Time :            1.74400 ps :
     Properties:                   Instantaneous       Averaged
       Kinetic energy    (eV) =      11.330440         11.171658
       Potential energy  (eV) =     -80.312130        -79.998771
       Total energy      (eV) =     -68.981690        -68.827113
       Temperature       (K)  =    2827.616405       2787.990949
       Pressure         (GPa) =      21.296014         21.065464
  ** Time :            1.76000 ps :
     Properties:                   Instantaneous       Averaged
       Kinetic energy    (eV) =      10.672751         11.167123
       Potential energy  (eV) =     -79.847959        -79.997400
       Total energy      (eV) =     -69.175207        -68.830277
       Temperature       (K)  =    2663.484098       2786.859068
       Pressure         (GPa) =      21.831416         21.072428
  ** Time :            1.77600 ps :
     Properties:                   Instantaneous       Averaged
       Kinetic energy    (eV) =      10.893174         11.164655
       Potential energy  (eV) =     -78.920873        -79.987701
       Total energy      (eV) =     -68.027699        -68.823047
       Temperature       (K)  =    2718.492588       2786.243154
       Pressure         (GPa) =      22.656377         21.086697
  ** Time :            1.79200 ps :
     Properties:                   Instantaneous       Averaged
       Kinetic energy    (eV) =      11.651705         11.169004
       Potential energy  (eV) =     -79.505182        -79.983393
       Total energy      (eV) =     -67.853476        -68.814390
       Temperature       (K)  =    2907.791120       2787.328404
       Pressure         (GPa) =      21.943210         21.094345
  ** Time :            1.80800 ps :
     Properties:                   Instantaneous       Averaged
       Kinetic energy    (eV) =      11.237068         11.169606
       Potential energy  (eV) =     -79.969804        -79.983273
       Total energy      (eV) =     -68.732736        -68.813667
       Temperature       (K)  =    2804.314547       2787.478723
       Pressure         (GPa) =      21.419013         21.097218
  ** Time :            1.82400 ps :
     Properties:                   Instantaneous       Averaged
       Kinetic energy    (eV) =      10.645292         11.165007
       Potential energy  (eV) =     -79.197049        -79.976376
       Total energy      (eV) =     -68.551757        -68.811370
       Temperature       (K)  =    2656.631346       2786.330939
       Pressure         (GPa) =      22.407381         21.108711
  ** Time :            1.84000 ps :
     Properties:                   Instantaneous       Averaged
       Kinetic energy    (eV) =      10.046437         11.155280
       Potential energy  (eV) =     -77.142466        -79.951734
       Total energy      (eV) =     -67.096029        -68.796454
       Temperature       (K)  =    2507.181591       2783.903554
       Pressure         (GPa) =      24.528738         21.138450
  ** Time :            1.85600 ps :
     Properties:                   Instantaneous       Averaged
       Kinetic energy    (eV) =      11.327411         11.156764
       Potential energy  (eV) =     -76.586816        -79.922726
       Total energy      (eV) =     -65.259404        -68.765962
       Temperature       (K)  =    2826.860520       2784.273872
       Pressure         (GPa) =      25.261118         21.173990
  ** Time :            1.87200 ps :
     Properties:                   Instantaneous       Averaged
       Kinetic energy    (eV) =      11.614133         11.160673
       Potential energy  (eV) =     -78.075803        -79.906940
       Total energy      (eV) =     -66.461670        -68.746267
       Temperature       (K)  =    2898.414562       2785.249434
       Pressure         (GPa) =      23.720360         21.195754
  ** Time :            1.88800 ps :
     Properties:                   Instantaneous       Averaged
       Kinetic energy    (eV) =      10.744267         11.157144
       Potential energy  (eV) =     -77.987837        -79.890676
       Total energy      (eV) =     -67.243570        -68.733532
       Temperature       (K)  =    2681.331473       2784.368773
       Pressure         (GPa) =      23.340371         21.213929
  ** Time :            1.90400 ps :
     Properties:                   Instantaneous       Averaged
       Kinetic energy    (eV) =      12.069036         11.164807
       Potential energy  (eV) =     -79.334747        -79.886005
       Total energy      (eV) =     -67.265711        -68.721198
       Temperature       (K)  =    3011.939834       2786.281135
       Pressure         (GPa) =      22.291156         21.222981
  ** Time :            1.92000 ps :
     Properties:                   Instantaneous       Averaged
       Kinetic energy    (eV) =      10.250659         11.157189
       Potential energy  (eV) =     -79.565920        -79.883337
       Total energy      (eV) =     -69.315260        -68.726148
       Temperature       (K)  =    2558.147110       2784.380018
       Pressure         (GPa) =      22.113087         21.230399
  ** Time :            1.93600 ps :
     Properties:                   Instantaneous       Averaged
       Kinetic energy    (eV) =      11.064304         11.156421
       Potential energy  (eV) =     -78.134405        -79.868883
       Total energy      (eV) =     -67.070101        -68.712462
       Temperature       (K)  =    2761.199645       2784.188445
       Pressure         (GPa) =      23.671343         21.250572
  ** Time :            1.95200 ps :
     Properties:                   Instantaneous       Averaged
       Kinetic energy    (eV) =      11.897302         11.162494
       Potential energy  (eV) =     -79.749704        -79.867907
       Total energy      (eV) =     -67.852402        -68.705412
       Temperature       (K)  =    2969.082138       2785.703967
       Pressure         (GPa) =      22.221471         21.258530
  ** Time :            1.96800 ps :
     Properties:                   Instantaneous       Averaged
       Kinetic energy    (eV) =      11.472148         11.165012
       Potential energy  (eV) =     -80.522688        -79.873230
       Total energy      (eV) =     -69.050540        -68.708218
       Temperature       (K)  =    2862.980838       2786.332234
       Pressure         (GPa) =      21.339130         21.259185
  ** Time :            1.98400 ps :
     Properties:                   Instantaneous       Averaged
       Kinetic energy    (eV) =      11.446496         11.167282
       Potential energy  (eV) =     -80.716466        -79.880030
       Total energy      (eV) =     -69.269970        -68.712748
       Temperature       (K)  =    2856.579190       2786.898742
       Pressure         (GPa) =      21.104953         21.257941
  ** Time :            2.00000 ps :
     Properties:                   Instantaneous       Averaged
       Kinetic energy    (eV) =      11.482776         11.169806
       Potential energy  (eV) =     -80.928512        -79.888418
       Total energy      (eV) =     -69.445736        -68.718612
       Temperature       (K)  =    2865.633252       2787.528618
       Pressure         (GPa) =      20.812693         21.254379
  ** Time :            2.01600 ps :
     Properties:                   Instantaneous       Averaged
       Kinetic energy    (eV) =      11.069155         11.169007
       Potential energy  (eV) =     -80.585445        -79.893950
       Total energy      (eV) =     -69.516290        -68.724943
       Temperature       (K)  =    2762.410390       2787.329267
       Pressure         (GPa) =      20.916352         21.251697
  ** Time :            2.03200 ps :
     Properties:                   Instantaneous       Averaged
       Kinetic energy    (eV) =      10.729836         11.165549
       Potential energy  (eV) =     -79.667190        -79.892165
       Total energy      (eV) =     -68.937355        -68.726616
       Temperature       (K)  =    2677.730002       2786.466281
       Pressure         (GPa) =      21.741282         21.255552
  ** Time :            2.04800 ps :
     Properties:                   Instantaneous       Averaged
       Kinetic energy    (eV) =      10.824223         11.162882
       Potential energy  (eV) =     -78.563596        -79.881785
       Total energy      (eV) =     -67.739373        -68.718903
       Temperature       (K)  =    2701.285172       2785.800803
       Pressure         (GPa) =      23.094164         21.269916
  ** Time :            2.06400 ps :
     Properties:                   Instantaneous       Averaged
       Kinetic energy    (eV) =      11.591378         11.166204
       Potential energy  (eV) =     -78.858198        -79.873850
       Total energy      (eV) =     -67.266820        -68.707646
       Temperature       (K)  =    2892.735780       2786.629757
       Pressure         (GPa) =      23.089038         21.284018
  ** Time :            2.08000 ps :
     Properties:                   Instantaneous       Averaged
       Kinetic energy    (eV) =      11.918541         11.171991
       Potential energy  (eV) =     -80.113517        -79.875694
       Total energy      (eV) =     -68.194976        -68.703703
       Temperature       (K)  =    2974.382465       2788.074008
       Pressure         (GPa) =      21.665963         21.286956
  ** Time :            2.09600 ps :
     Properties:                   Instantaneous       Averaged
       Kinetic energy    (eV) =      11.138841         11.171738
       Potential energy  (eV) =     -80.851032        -79.883139
       Total energy      (eV) =     -69.712191        -68.711401
       Temperature       (K)  =    2779.801009       2788.010855
       Pressure         (GPa) =      20.623214         21.281889
  ** Time :            2.11200 ps :
     Properties:                   Instantaneous       Averaged
       Kinetic energy    (eV) =      10.766317         11.168667
       Potential energy  (eV) =     -79.519277        -79.880383
       Total energy      (eV) =     -68.752960        -68.711716
       Temperature       (K)  =    2686.834316       2787.244367
       Pressure         (GPa) =      21.515175         21.283656
  ** Time :            2.12800 ps :
     Properties:                   Instantaneous       Averaged
       Kinetic energy    (eV) =      12.136696         11.175945
       Potential energy  (eV) =     -81.647277        -79.893668
       Total energy      (eV) =     -69.510581        -68.717722
       Temperature       (K)  =    3028.824968       2789.060762
       Pressure         (GPa) =      19.554967         21.270659
  ** Time :            2.14400 ps :
     Properties:                   Instantaneous       Averaged
       Kinetic energy    (eV) =      11.088567         11.175293
       Potential energy  (eV) =     -82.028636        -79.909600
       Total energy      (eV) =     -70.940069        -68.734307
       Temperature       (K)  =    2767.254695       2788.898030
       Pressure         (GPa) =      18.689908         21.251399
  ** Time :            2.16000 ps :
     Properties:                   Instantaneous       Averaged
       Kinetic energy    (eV) =      10.909675         11.173326
       Potential energy  (eV) =     -81.334586        -79.920156
       Total energy      (eV) =     -70.424911        -68.746830
       Temperature       (K)  =    2722.610468       2788.407011
       Pressure         (GPa) =      19.351649         21.237327
  ** Time :            2.17600 ps :
     Properties:                   Instantaneous       Averaged
       Kinetic energy    (eV) =      10.851832         11.170962
       Potential energy  (eV) =     -80.221092        -79.922368
       Total energy      (eV) =     -69.369261        -68.751407
       Temperature       (K)  =    2708.175195       2787.817071
       Pressure         (GPa) =      20.580371         21.232496
  ** Time :            2.19200 ps :
     Properties:                   Instantaneous       Averaged
       Kinetic energy    (eV) =      11.312513         11.171995
       Potential energy  (eV) =     -79.851470        -79.921851
       Total energy      (eV) =     -68.538957        -68.749856
       Temperature       (K)  =    2823.142605       2788.074922
       Pressure         (GPa) =      21.347167         21.233333
  ** Time :            2.20800 ps :
     Properties:                   Instantaneous       Averaged
       Kinetic energy    (eV) =      11.439835         11.173936
       Potential energy  (eV) =     -80.122209        -79.923303
       Total energy      (eV) =     -68.682373        -68.749367
       Temperature       (K)  =    2854.916938       2788.559284
       Pressure         (GPa) =      21.422127         21.234702
  ** Time :            2.22400 ps :
     Properties:                   Instantaneous       Averaged
       Kinetic energy    (eV) =      10.989222         11.172607
       Potential energy  (eV) =     -79.727117        -79.921891
       Total energy      (eV) =     -68.737895        -68.749285
       Temperature       (K)  =    2742.462147       2788.227650
       Pressure         (GPa) =      21.829769         21.238983
  ** Time :            2.24000 ps :
     Properties:                   Instantaneous       Averaged
       Kinetic energy    (eV) =      10.612781         11.168608
       Potential energy  (eV) =     -78.629931        -79.912663
       Total energy      (eV) =     -68.017150        -68.744055
       Temperature       (K)  =    2648.517883       2787.229723
       Pressure         (GPa) =      22.911250         21.250927
  ** Time :            2.25600 ps :
     Properties:                   Instantaneous       Averaged
       Kinetic energy    (eV) =      10.431159         11.163378
       Potential energy  (eV) =     -76.945098        -79.891617
       Total energy      (eV) =     -66.513939        -68.728239
       Temperature       (K)  =    2603.192457       2785.924495
       Pressure         (GPa) =      24.369278         21.273043
  ** Time :            2.27200 ps :
     Properties:                   Instantaneous       Averaged
       Kinetic energy    (eV) =      11.454400         11.165427
       Potential energy  (eV) =     -76.849241        -79.870191
       Total energy      (eV) =     -65.394842        -68.704764
       Temperature       (K)  =    2858.551666       2786.435954
       Pressure         (GPa) =      24.356234         21.294756
  ** Time :            2.28800 ps :
     Properties:                   Instantaneous       Averaged
       Kinetic energy    (eV) =      11.551243         11.168125
       Potential energy  (eV) =     -78.369734        -79.859699
       Total energy      (eV) =     -66.818491        -68.691573
       Temperature       (K)  =    2882.719917       2787.109268
       Pressure         (GPa) =      22.924848         21.306155
  ** Time :            2.30400 ps :
     Properties:                   Instantaneous       Averaged
       Kinetic energy    (eV) =      10.084252         11.160599
       Potential energy  (eV) =     -76.881561        -79.839017
       Total energy      (eV) =     -66.797309        -68.678419
       Temperature       (K)  =    2516.618571       2785.230860
       Pressure         (GPa) =      24.190888         21.326188
  ** Time :            2.32000 ps :
     Properties:                   Instantaneous       Averaged
       Kinetic energy    (eV) =      10.367052         11.155126
       Potential energy  (eV) =     -75.236095        -79.807273
       Total energy      (eV) =     -64.869043        -68.652147
       Temperature       (K)  =    2587.194059       2783.865089
       Pressure         (GPa) =      26.139793         21.359385
  ** Time :            2.33600 ps :
     Properties:                   Instantaneous       Averaged
       Kinetic energy    (eV) =      10.992522         11.154012
       Potential energy  (eV) =     -74.498631        -79.770912
       Total energy      (eV) =     -63.506109        -68.616900
       Temperature       (K)  =    2743.285701       2783.587148
       Pressure         (GPa) =      27.103565         21.398729
  ** Time :            2.35200 ps :
     Properties:                   Instantaneous       Averaged
       Kinetic energy    (eV) =      11.922645         11.159241
       Potential energy  (eV) =     -76.275245        -79.747132
       Total energy      (eV) =     -64.352599        -68.587891
       Temperature       (K)  =    2975.406646       2784.892043
       Pressure         (GPa) =      25.550867         21.426975
  ** Time :            2.36800 ps :
     Properties:                   Instantaneous       Averaged
       Kinetic energy    (eV) =      11.869817         11.164042
       Potential energy  (eV) =     -77.797605        -79.733960
       Total energy      (eV) =     -65.927788        -68.569918
       Temperature       (K)  =    2962.222901       2786.090224
       Pressure         (GPa) =      23.901046         21.443692
  ** Time :            2.38400 ps :
     Properties:                   Instantaneous       Averaged
       Kinetic energy    (eV) =      11.445094         11.165928
       Potential energy  (eV) =     -78.523800        -79.725838
       Total energy      (eV) =     -67.078706        -68.559910
       Temperature       (K)  =    2856.229461       2786.560957
       Pressure         (GPa) =      22.981177         21.454010
  ** Time :            2.40000 ps :
     Properties:                   Instantaneous       Averaged
       Kinetic energy    (eV) =      11.338085         11.167076
       Potential energy  (eV) =     -78.436019        -79.717239
       Total energy      (eV) =     -67.097934        -68.550163
       Temperature       (K)  =    2829.524183       2786.847379
       Pressure         (GPa) =      22.869050         21.463444
  ** Time :            2.41600 ps :
     Properties:                   Instantaneous       Averaged
       Kinetic energy    (eV) =      11.448860         11.168942
       Potential energy  (eV) =     -78.677973        -79.710357
       Total energy      (eV) =     -67.229113        -68.541414
       Temperature       (K)  =    2857.169195       2787.313086
       Pressure         (GPa) =      22.751073         21.471971
  ** Time :            2.43200 ps :
     Properties:                   Instantaneous       Averaged
       Kinetic energy    (eV) =      11.351748         11.170145
       Potential energy  (eV) =     -78.490127        -79.702329
       Total energy      (eV) =     -67.138379        -68.532184
       Temperature       (K)  =    2832.933913       2787.613223
       Pressure         (GPa) =      23.012954         21.482109
  ** Time :            2.44800 ps :
     Properties:                   Instantaneous       Averaged
       Kinetic energy    (eV) =      11.342465         11.171271
       Potential energy  (eV) =     -78.862202        -79.696838
       Total energy      (eV) =     -67.519737        -68.525567
       Temperature       (K)  =    2830.617370       2787.894296
       Pressure         (GPa) =      22.725680         21.490237
  ** Time :            2.46400 ps :
     Properties:                   Instantaneous       Averaged
       Kinetic energy    (eV) =      11.189490         11.171389
       Potential energy  (eV) =     -78.330209        -79.687963
       Total energy      (eV) =     -67.140719        -68.516574
       Temperature       (K)  =    2792.441023       2787.923820
       Pressure         (GPa) =      23.055980         21.500404
  ** Time :            2.48000 ps :
     Properties:                   Instantaneous       Averaged
       Kinetic energy    (eV) =      11.565469         11.173932
       Potential energy  (eV) =     -78.721635        -79.681729
       Total energy      (eV) =     -67.156167        -68.507797
       Temperature       (K)  =    2886.269971       2788.558312
       Pressure         (GPa) =      22.614933         21.507595
  ** Time :            2.49600 ps :
     Properties:                   Instantaneous       Averaged
       Kinetic energy    (eV) =      11.790336         11.177883
       Potential energy  (eV) =     -79.593466        -79.681163
       Total energy      (eV) =     -67.803130        -68.503280
       Temperature       (K)  =    2942.387751       2789.544398
       Pressure         (GPa) =      21.655884         21.508545
  ** Time :            2.51200 ps :
     Properties:                   Instantaneous       Averaged
       Kinetic energy    (eV) =      11.706313         11.181249
       Potential energy  (eV) =     -80.862211        -79.688686
       Total energy      (eV) =     -69.155897        -68.507437
       Temperature       (K)  =    2921.419080       2790.384364
       Pressure         (GPa) =      20.472745         21.501948
  ** Time :            2.52800 ps :
     Properties:                   Instantaneous       Averaged
       Kinetic energy    (eV) =      10.495014         11.176906
       Potential energy  (eV) =     -80.247412        -79.692222
       Total energy      (eV) =     -69.752397        -68.515316
       Temperature       (K)  =    2619.128134       2789.300464
       Pressure         (GPa) =      21.114958         21.499499
  ** Time :            2.54400 ps :
     Properties:                   Instantaneous       Averaged
       Kinetic energy    (eV) =       9.825199         11.168404
       Potential energy  (eV) =     -77.539936        -79.678686
       Total energy      (eV) =     -67.714737        -68.510281
       Temperature       (K)  =    2451.969605       2787.178886
       Pressure         (GPa) =      23.827439         21.514140
  ** Time :            2.56000 ps :
     Properties:                   Instantaneous       Averaged
       Kinetic energy    (eV) =      11.379539         11.169724
       Potential energy  (eV) =     -77.325034        -79.663975
       Total energy      (eV) =     -65.945495        -68.494251
       Temperature       (K)  =    2839.869489       2787.508202
       Pressure         (GPa) =      24.705586         21.534086
  ** Time :            2.57600 ps :
     Properties:                   Instantaneous       Averaged
       Kinetic energy    (eV) =      10.582755         11.166078
       Potential energy  (eV) =     -77.254113        -79.649007
       Total energy      (eV) =     -66.671359        -68.482929
       Temperature       (K)  =    2641.024562       2786.598366
       Pressure         (GPa) =      24.754098         21.554086
  ** Time :            2.59200 ps :
     Properties:                   Instantaneous       Averaged
       Kinetic energy    (eV) =      10.791342         11.163765
       Potential energy  (eV) =     -76.116613        -79.627202
       Total energy      (eV) =     -65.325272        -68.463437
       Temperature       (K)  =    2693.079393       2786.021088
       Pressure         (GPa) =      25.815221         21.580390
  ** Time :            2.60800 ps :
     Properties:                   Instantaneous       Averaged
       Kinetic energy    (eV) =      11.344695         11.164875
       Potential energy  (eV) =     -76.504831        -79.608047
       Total energy      (eV) =     -65.160136        -68.443172
       Temperature       (K)  =    2831.173943       2786.298100
       Pressure         (GPa) =      25.288148         21.603137
  ** Time :            2.62400 ps :
     Properties:                   Instantaneous       Averaged
       Kinetic energy    (eV) =      11.273922         11.165540
[...]
       Kinetic energy    (eV) =      10.218572         10.804740
       Potential energy  (eV) =     -78.696935        -79.756690
       Total energy      (eV) =     -68.478363        -68.951950
       Temperature       (K)  =    2550.139509       2696.423057
       Pressure         (GPa) =      23.790830         21.523900
  ** Time :            9.31200 ps :
     Properties:                   Instantaneous       Averaged
       Kinetic energy    (eV) =      10.819323         10.804765
       Potential energy  (eV) =     -79.331369        -79.755960
       Total energy      (eV) =     -68.512046        -68.951195
       Temperature       (K)  =    2700.062425       2696.429310
       Pressure         (GPa) =      22.983143         21.526407
  ** Time :            9.32800 ps :
     Properties:                   Instantaneous       Averaged
       Kinetic energy    (eV) =      12.428214         10.807550
       Potential energy  (eV) =     -81.215593        -79.758463
       Total energy      (eV) =     -68.787379        -68.950914
       Temperature       (K)  =    3101.576054       2697.124245
       Pressure         (GPa) =      21.110455         21.525694
  ** Time :            9.34400 ps :
     Properties:                   Instantaneous       Averaged
       Kinetic energy    (eV) =      11.599704         10.808906
       Potential energy  (eV) =     -80.112172        -79.759069
       Total energy      (eV) =     -68.512467        -68.950163
       Temperature       (K)  =    2894.813798       2697.462754
       Pressure         (GPa) =      21.677511         21.525954
  ** Time :            9.36000 ps :
     Properties:                   Instantaneous       Averaged
       Kinetic energy    (eV) =      10.813411         10.808914
       Potential energy  (eV) =     -79.346274        -79.758363
       Total energy      (eV) =     -68.532863        -68.949449
       Temperature       (K)  =    2698.587000       2697.464676
       Pressure         (GPa) =      22.027836         21.526812
  ** Time :            9.37600 ps :
     Properties:                   Instantaneous       Averaged
       Kinetic energy    (eV) =      11.609549         10.810280
       Potential energy  (eV) =     -80.079843        -79.758912
       Total energy      (eV) =     -68.470293        -68.948632
       Temperature       (K)  =    2897.270710       2697.805642
       Pressure         (GPa) =      21.341955         21.526496
  ** Time :            9.39200 ps :
     Properties:                   Instantaneous       Averaged
       Kinetic energy    (eV) =      13.168685         10.814298
       Potential energy  (eV) =     -81.792266        -79.762376
       Total energy      (eV) =     -68.623580        -68.948078
       Temperature       (K)  =    3286.367504       2698.808302
       Pressure         (GPa) =      20.061843         21.524001
  ** Time :            9.40800 ps :
     Properties:                   Instantaneous       Averaged
       Kinetic energy    (eV) =      13.710124         10.819223
       Potential energy  (eV) =     -82.275112        -79.766649
       Total energy      (eV) =     -68.564988        -68.947427
       Temperature       (K)  =    3421.488557       2700.037351
       Pressure         (GPa) =      19.760917         21.521003
  ** Time :            9.42400 ps :
     Properties:                   Instantaneous       Averaged
       Kinetic energy    (eV) =      12.980991         10.822893
       Potential energy  (eV) =     -81.660302        -79.769864
       Total energy      (eV) =     -68.679311        -68.946971
       Temperature       (K)  =    3239.526737       2700.953292
       Pressure         (GPa) =      20.438309         21.519165
  ** Time :            9.44000 ps :
     Properties:                   Instantaneous       Averaged
       Kinetic energy    (eV) =      11.020825         10.823228
       Potential energy  (eV) =     -79.428617        -79.769286
       Total energy      (eV) =     -68.407792        -68.946057
       Temperature       (K)  =    2750.349030       2701.037013
       Pressure         (GPa) =      22.425707         21.520701
  ** Time :            9.45600 ps :
     Properties:                   Instantaneous       Averaged
       Kinetic energy    (eV) =       9.861333         10.821601
       Potential energy  (eV) =     -78.456799        -79.767065
       Total energy      (eV) =     -68.595466        -68.945464
       Temperature       (K)  =    2460.987119       2700.630838
       Pressure         (GPa) =      23.400869         21.523882
  ** Time :            9.47200 ps :
     Properties:                   Instantaneous       Averaged
       Kinetic energy    (eV) =       9.738006         10.819770
       Potential energy  (eV) =     -78.034955        -79.764139
       Total energy      (eV) =     -68.296949        -68.944369
       Temperature       (K)  =    2430.209683       2700.174045
       Pressure         (GPa) =      23.537462         21.527284
  ** Time :            9.48800 ps :
     Properties:                   Instantaneous       Averaged
       Kinetic energy    (eV) =      11.870502         10.821542
       Potential energy  (eV) =     -80.511358        -79.765399
       Total energy      (eV) =     -68.640856        -68.943857
       Temperature       (K)  =    2962.393810       2700.616237
       Pressure         (GPa) =      21.011085         21.526413
  ** Time :            9.50400 ps :
     Properties:                   Instantaneous       Averaged
       Kinetic energy    (eV) =      13.214142         10.825570
       Potential energy  (eV) =     -81.956999        -79.769089
       Total energy      (eV) =     -68.742857        -68.943519
       Temperature       (K)  =    3297.711708       2701.621448
       Pressure         (GPa) =      19.476606         21.522962
  ** Time :            9.52000 ps :
     Properties:                   Instantaneous       Averaged
       Kinetic energy    (eV) =      12.041183         10.827613
       Potential energy  (eV) =     -80.590133        -79.770469
       Total energy      (eV) =     -68.548950        -68.942855
       Temperature       (K)  =    3004.988938       2702.131309
       Pressure         (GPa) =      20.605217         21.521420
  ** Time :            9.53600 ps :
     Properties:                   Instantaneous       Averaged
       Kinetic energy    (eV) =      11.129647         10.828120
       Potential energy  (eV) =     -79.604071        -79.770190
       Total energy      (eV) =     -68.474424        -68.942069
       Temperature       (K)  =    2777.506598       2702.257778
       Pressure         (GPa) =      21.356291         21.521143
  ** Time :            9.55200 ps :
     Properties:                   Instantaneous       Averaged
       Kinetic energy    (eV) =      11.531450         10.829298
       Potential energy  (eV) =     -80.152229        -79.770829
       Total energy      (eV) =     -68.620779        -68.941531
       Temperature       (K)  =    2877.780215       2702.551786
       Pressure         (GPa) =      20.809523         21.519951
  ** Time :            9.56800 ps :
     Properties:                   Instantaneous       Averaged
       Kinetic energy    (eV) =      11.735726         10.830814
       Potential energy  (eV) =     -80.209460        -79.771563
       Total energy      (eV) =     -68.473734        -68.940749
       Temperature       (K)  =    2928.759202       2702.930059
       Pressure         (GPa) =      20.939016         21.518979
  ** Time :            9.58400 ps :
     Properties:                   Instantaneous       Averaged
       Kinetic energy    (eV) =      12.192543         10.833087
       Potential energy  (eV) =     -80.745106        -79.773188
       Total energy      (eV) =     -68.552563        -68.940101
       Temperature       (K)  =    3042.762200       2703.497391
       Pressure         (GPa) =      20.844919         21.517854
  ** Time :            9.60000 ps :
     Properties:                   Instantaneous       Averaged
       Kinetic energy    (eV) =      12.341352         10.835601
       Potential energy  (eV) =     -80.841637        -79.774969
       Total energy      (eV) =     -68.500284        -68.939368
       Temperature       (K)  =    3079.898892       2704.124727
       Pressure         (GPa) =      20.940099         21.516891
  ** Time :            9.61600 ps :
     Properties:                   Instantaneous       Averaged
       Kinetic energy    (eV) =      12.355437         10.838130
       Potential energy  (eV) =     -80.847467        -79.776753
       Total energy      (eV) =     -68.492030        -68.938624
       Temperature       (K)  =    3083.413903       2704.755824
       Pressure         (GPa) =      21.030978         21.516083
  ** Time :            9.63200 ps :
     Properties:                   Instantaneous       Averaged
       Kinetic energy    (eV) =      12.201819         10.840395
       Potential energy  (eV) =     -80.833781        -79.778509
       Total energy      (eV) =     -68.631961        -68.938114
       Temperature       (K)  =    3045.077171       2705.321142
       Pressure         (GPa) =      21.235153         21.515616
  ** Time :            9.64800 ps :
     Properties:                   Instantaneous       Averaged
       Kinetic energy    (eV) =      10.914512         10.840518
       Potential energy  (eV) =     -79.400509        -79.777882
       Total energy      (eV) =     -68.485997        -68.937364
       Temperature       (K)  =    2723.817568       2705.351816
       Pressure         (GPa) =      22.607513         21.517427
  ** Time :            9.66400 ps :
     Properties:                   Instantaneous       Averaged
       Kinetic energy    (eV) =      10.263249         10.839562
       Potential energy  (eV) =     -78.736515        -79.776158
       Total energy      (eV) =     -68.473266        -68.936596
       Temperature       (K)  =    2561.288892       2705.113301
       Pressure         (GPa) =      23.322529         21.520415
  ** Time :            9.68000 ps :
     Properties:                   Instantaneous       Averaged
       Kinetic energy    (eV) =      10.490590         10.838986
       Potential energy  (eV) =     -79.146132        -79.775117
       Total energy      (eV) =     -68.655541        -68.936132
       Temperature       (K)  =    2618.024086       2704.969352
       Pressure         (GPa) =      23.187938         21.523172
  ** Time :            9.69600 ps :
     Properties:                   Instantaneous       Averaged
       Kinetic energy    (eV) =      10.138134         10.837829
       Potential energy  (eV) =     -78.598237        -79.773175
       Total energy      (eV) =     -68.460103        -68.935346
       Temperature       (K)  =    2530.065338       2704.680731
       Pressure         (GPa) =      23.638034         21.526662
  ** Time :            9.71200 ps :
     Properties:                   Instantaneous       Averaged
       Kinetic energy    (eV) =      11.078534         10.838226
       Potential energy  (eV) =     -79.631782        -79.772942
       Total energy      (eV) =     -68.553248        -68.934716
       Temperature       (K)  =    2764.750959       2704.779694
       Pressure         (GPa) =      22.468281         21.528213
  ** Time :            9.72800 ps :
     Properties:                   Instantaneous       Averaged
       Kinetic energy    (eV) =      12.281120         10.840599
       Potential energy  (eV) =     -80.985030        -79.774936
       Total energy      (eV) =     -68.703909        -68.934337
       Temperature       (K)  =    3064.867459       2705.371943
       Pressure         (GPa) =      20.791135         21.527001
  ** Time :            9.74400 ps :
     Properties:                   Instantaneous       Averaged
       Kinetic energy    (eV) =      11.809797         10.842190
       Potential energy  (eV) =     -80.380142        -79.775929
       Total energy      (eV) =     -68.570345        -68.933739
       Temperature       (K)  =    2947.244476       2705.769107
       Pressure         (GPa) =      20.838991         21.525871
  ** Time :            9.76000 ps :
     Properties:                   Instantaneous       Averaged
       Kinetic energy    (eV) =      11.228983         10.842824
       Potential energy  (eV) =     -79.675901        -79.775765
       Total energy      (eV) =     -68.446919        -68.932941
       Temperature       (K)  =    2802.296727       2705.927349
       Pressure         (GPa) =      21.311890         21.525520
  ** Time :            9.77600 ps :
     Properties:                   Instantaneous       Averaged
       Kinetic energy    (eV) =      12.005734         10.844728
       Potential energy  (eV) =     -80.675863        -79.777239
       Total energy      (eV) =     -68.670129        -68.932511
       Temperature       (K)  =    2996.142260       2706.402332
       Pressure         (GPa) =      20.559702         21.523939
  ** Time :            9.79200 ps :
     Properties:                   Instantaneous       Averaged
       Kinetic energy    (eV) =      12.393389         10.847258
       Potential energy  (eV) =     -81.122970        -79.779437
       Total energy      (eV) =     -68.729581        -68.932179
       Temperature       (K)  =    3092.885072       2707.033840
       Pressure         (GPa) =      20.331307         21.521991
  ** Time :            9.80800 ps :
     Properties:                   Instantaneous       Averaged
       Kinetic energy    (eV) =      10.910574         10.847361
       Potential energy  (eV) =     -79.453686        -79.778906
       Total energy      (eV) =     -68.543112        -68.931545
       Temperature       (K)  =    2722.834945       2707.059617
       Pressure         (GPa) =      21.750158         21.522363
  ** Time :            9.82400 ps :
     Properties:                   Instantaneous       Averaged
       Kinetic energy    (eV) =      10.640025         10.847024
       Potential energy  (eV) =     -79.017799        -79.777666
       Total energy      (eV) =     -68.377774        -68.930643
       Temperature       (K)  =    2655.316944       2706.975345
       Pressure         (GPa) =      22.000675         21.523142
  ** Time :            9.84000 ps :
     Properties:                   Instantaneous       Averaged
       Kinetic energy    (eV) =      12.498444         10.849709
       Potential energy  (eV) =     -81.143884        -79.779888
       Total energy      (eV) =     -68.645440        -68.930179
       Temperature       (K)  =    3119.102660       2707.645471
       Pressure         (GPa) =      20.107654         21.520840
  ** Time :            9.85600 ps :
     Properties:                   Instantaneous       Averaged
       Kinetic energy    (eV) =      12.669024         10.852662
       Potential energy  (eV) =     -81.353287        -79.782442
       Total energy      (eV) =     -68.684264        -68.929780
       Temperature       (K)  =    3161.672360       2708.382528
       Pressure         (GPa) =      19.726837         21.517928
  ** Time :            9.87200 ps :
     Properties:                   Instantaneous       Averaged
       Kinetic energy    (eV) =      10.726258         10.852457
       Potential energy  (eV) =     -79.322002        -79.781696
       Total energy      (eV) =     -68.595744        -68.929238
       Temperature       (K)  =    2676.837109       2708.331401
       Pressure         (GPa) =      21.649264         21.518141
  ** Time :            9.88800 ps :
     Properties:                   Instantaneous       Averaged
       Kinetic energy    (eV) =       8.977508         10.849424
       Potential energy  (eV) =     -77.290617        -79.777665
       Total energy      (eV) =     -68.313110        -68.928241
       Temperature       (K)  =    2240.420255       2707.574263
       Pressure         (GPa) =      23.749310         21.521751
  ** Time :            9.90400 ps :
     Properties:                   Instantaneous       Averaged
       Kinetic energy    (eV) =       9.911684         10.847909
       Potential energy  (eV) =     -78.539801        -79.775665
       Total energy      (eV) =     -68.628117        -68.927757
       Temperature       (K)  =    2473.552723       2707.196199
       Pressure         (GPa) =      22.764290         21.523758
  ** Time :            9.92000 ps :
     Properties:                   Instantaneous       Averaged
       Kinetic energy    (eV) =      10.945560         10.848066
       Potential energy  (eV) =     -79.594043        -79.775372
       Total energy      (eV) =     -68.648482        -68.927306
       Temperature       (K)  =    2731.566105       2707.235505
       Pressure         (GPa) =      21.739635         21.524106
  ** Time :            9.93600 ps :
     Properties:                   Instantaneous       Averaged
       Kinetic energy    (eV) =      10.580961         10.847636
       Potential energy  (eV) =     -79.118472        -79.774315
       Total energy      (eV) =     -68.537511        -68.926678
       Temperature       (K)  =    2640.576972       2707.128165
       Pressure         (GPa) =      22.079865         21.525001
  ** Time :            9.95200 ps :
     Properties:                   Instantaneous       Averaged
       Kinetic energy    (eV) =      10.227464         10.846639
       Potential energy  (eV) =     -78.785484        -79.772725
       Total energy      (eV) =     -68.558020        -68.926086
       Temperature       (K)  =    2552.358376       2706.879339
       Pressure         (GPa) =      22.343300         21.526317
  ** Time :            9.96800 ps :
     Properties:                   Instantaneous       Averaged
       Kinetic energy    (eV) =      10.268645         10.845711
       Potential energy  (eV) =     -78.798634        -79.771161
       Total energy      (eV) =     -68.529990        -68.925450
       Temperature       (K)  =    2562.635521       2706.647808
       Pressure         (GPa) =      22.512164         21.527899
  ** Time :            9.98400 ps :
     Properties:                   Instantaneous       Averaged
       Kinetic energy    (eV) =      10.346093         10.844911
       Potential energy  (eV) =     -78.878295        -79.769730
       Total energy      (eV) =     -68.532201        -68.924820
       Temperature       (K)  =    2581.963568       2706.447993
       Pressure         (GPa) =      22.717993         21.529807
  ** Time :           10.00000 ps :
     Properties:                   Instantaneous       Averaged
       Kinetic energy    (eV) =      10.410957         10.844216
       Potential energy  (eV) =     -78.995194        -79.768491
       Total energy      (eV) =     -68.584237        -68.924275
       Temperature       (K)  =    2598.150904       2706.274718
       Pressure         (GPa) =      22.835599         21.531896

  Peak dynamic memory used =       0.57 MB 


  Timing analysis for GULP :

--------------------------------------------------------------------------------
  Task / Subroutine                                          Time (Seconds)
--------------------------------------------------------------------------------
  Calculation of real space energy and derivatives                1.3480
  Calculation of many-body energy and derivatives                 0.7000
--------------------------------------------------------------------------------
  Total CPU time                                                  2.3440
--------------------------------------------------------------------------------


  Dump file written as Recovery_2_3000_0.016.res                               
  GULP ASCII trajectory file written as Trajectories_2_3000_0.016.trg           


  Job Finished at 18:24.37 17th May        2018                               

