********************************************************************************
*                       GENERAL UTILITY LATTICE PROGRAM                        *
*                                 Julian Gale                                  *
*                       Curtin Institute for Computation                       *
*                           Department of Chemistry                            *
*                    Curtin University, Western Australia                      *
********************************************************************************
* Version = 5.0.0 * Last modified =  18th April 2018                           *
********************************************************************************
*  single       - perform a single point run                                   *
*  md           - perform molecular dynamics run                               *
*  conv         - constant volume calculation                                  *
********************************************************************************
* molecular dynamics of silver                                                 *
********************************************************************************


  Job Started  at 17:40.08 17th May        2018                               

  Number of CPUs =     1


  Total number of configurations input =   1

********************************************************************************
*  Input for Configuration =   1                                               *
********************************************************************************

  Formula = Ag32                                                        

  Number of irreducible atoms/shells =      32


  Total number atoms/shells =      32

  Dimensionality = 3               :  Bulk   



  Supercell dimensions :  x =   2  y =   2  z =   2

  Cartesian lattice vectors (Angstroms) :

        8.170000    0.000000    0.000000
        0.000000    8.170000    0.000000
        0.000000    0.000000    8.170000

  Cell parameters (Angstroms/Degrees):

  a =       8.1700    alpha =  90.0000
  b =       8.1700    beta  =  90.0000
  c =       8.1700    gamma =  90.0000

  Initial cell volume =         545.338513 Angs**3

  Temperature of configuration =  3000.     K 

  Pressure of configuration =         0.000 GPa 

  Fractional coordinates of asymmetric unit :

--------------------------------------------------------------------------------
   No.  Atomic       x           y          z         Charge      Occupancy
        Label      (Frac)      (Frac)     (Frac)        (e)         (Frac)  
--------------------------------------------------------------------------------
      1 Ag    c    0.000000 *  0.000000 *  0.000000 *   0.00000    1.000000    
      2 Ag    c    0.000000 *  0.000000 *  0.500000 *   0.00000    1.000000    
      3 Ag    c    0.000000 *  0.500000 *  0.000000 *   0.00000    1.000000    
      4 Ag    c    0.000000 *  0.500000 *  0.500000 *   0.00000    1.000000    
      5 Ag    c    0.500000 *  0.000000 *  0.000000 *   0.00000    1.000000    
      6 Ag    c    0.500000 *  0.000000 *  0.500000 *   0.00000    1.000000    
      7 Ag    c    0.500000 *  0.500000 *  0.000000 *   0.00000    1.000000    
      8 Ag    c    0.500000 *  0.500000 *  0.500000 *   0.00000    1.000000    
      9 Ag    c    0.000000 *  0.250000 *  0.250000 *   0.00000    1.000000    
     10 Ag    c    0.000000 *  0.250000 *  0.750000 *   0.00000    1.000000    
     11 Ag    c    0.000000 *  0.750000 *  0.250000 *   0.00000    1.000000    
     12 Ag    c    0.000000 *  0.750000 *  0.750000 *   0.00000    1.000000    
     13 Ag    c    0.500000 *  0.250000 *  0.250000 *   0.00000    1.000000    
     14 Ag    c    0.500000 *  0.250000 *  0.750000 *   0.00000    1.000000    
     15 Ag    c    0.500000 *  0.750000 *  0.250000 *   0.00000    1.000000    
     16 Ag    c    0.500000 *  0.750000 *  0.750000 *   0.00000    1.000000    
     17 Ag    c    0.250000 *  0.000000 *  0.250000 *   0.00000    1.000000    
     18 Ag    c    0.250000 *  0.000000 *  0.750000 *   0.00000    1.000000    
     19 Ag    c    0.250000 *  0.500000 *  0.250000 *   0.00000    1.000000    
     20 Ag    c    0.250000 *  0.500000 *  0.750000 *   0.00000    1.000000    
     21 Ag    c    0.750000 *  0.000000 *  0.250000 *   0.00000    1.000000    
     22 Ag    c    0.750000 *  0.000000 *  0.750000 *   0.00000    1.000000    
     23 Ag    c    0.750000 *  0.500000 *  0.250000 *   0.00000    1.000000    
     24 Ag    c    0.750000 *  0.500000 *  0.750000 *   0.00000    1.000000    
     25 Ag    c    0.250000 *  0.250000 *  0.000000 *   0.00000    1.000000    
     26 Ag    c    0.250000 *  0.250000 *  0.500000 *   0.00000    1.000000    
     27 Ag    c    0.250000 *  0.750000 *  0.000000 *   0.00000    1.000000    
     28 Ag    c    0.250000 *  0.750000 *  0.500000 *   0.00000    1.000000    
     29 Ag    c    0.750000 *  0.250000 *  0.000000 *   0.00000    1.000000    
     30 Ag    c    0.750000 *  0.250000 *  0.500000 *   0.00000    1.000000    
     31 Ag    c    0.750000 *  0.750000 *  0.000000 *   0.00000    1.000000    
     32 Ag    c    0.750000 *  0.750000 *  0.500000 *   0.00000    1.000000    
--------------------------------------------------------------------------------



********************************************************************************
*  General input information                                                   *
********************************************************************************

  Species output for all configurations : 

--------------------------------------------------------------------------------
  Species    Type    Atomic    Atomic    Charge       Radii (Angs)     Library
                     Number     Mass       (e)     Cova   Ionic  VDW   Symbol
--------------------------------------------------------------------------------
    Ag       Core       47     107.87   0.000000   1.590  0.000  2.370          
--------------------------------------------------------------------------------


  Lattice summation method               =    Ewald          (3-D)
                                         =    Parry          (2-D)
                                         =    Saunders et al (1-D)
  Accuracy factor for lattice sums       =   12.000


  Time limit = Infinity

  Maximum range for interatomic potentials =    100000.000000 Angstroms

  General interatomic potentials :

--------------------------------------------------------------------------------
Atom  Types   Potential      Parameter       Value         Units   Cutoffs(Ang)
  1     2                                                            Min /  Max 
--------------------------------------------------------------------------------
Ag   c Ag   c Many-body                                             0.000  8.000
--------------------------------------------------------------------------------
Ag   c Ag   c Buckingham    Buckingham A     11454.950    eV        0.000 12.000
                            Buckingham rho  0.26432400    Ang       
                            Buckingham C     0.0000000    eV*Ang^6  
--------------------------------------------------------------------------------

  Embedded Atom Model Densities :

--------------------------------------------------------------------------------
  Atom(s)       Functional Form          A          B          C         n      
--------------------------------------------------------------------------------
  Ag   c        Exponential          1.388      2.173      2.889         0
--------------------------------------------------------------------------------


  Embedded Atom Model alloy parameters :

--------------------------------------------------------------------------------
  Atom(s)                          Scale factor 
--------------------------------------------------------------------------------
  Ag    c                            1.000000
--------------------------------------------------------------------------------

  Embedded Atom Model functional = Square Root

--------------------------------------------------------------------------------
  Atom                     A     
--------------------------------------------------------------------------------
  Ag    c               1.000000
--------------------------------------------------------------------------------


  Manybody second derivative cross term cutoffs to be scale by = 0.50000000

********************************************************************************
*  Output for configuration   1                                                *
********************************************************************************


  Components of energy : 

--------------------------------------------------------------------------------
  Interatomic potentials     =          39.71625760 eV    
  Many-body potentials       =        -134.45860512 eV    
  Monopole - monopole (real) =           0.00000000 eV    
  Monopole - monopole (recip)=           0.00000000 eV    
  Monopole - monopole (total)=           0.00000000 eV    
--------------------------------------------------------------------------------
  Total lattice energy       =         -94.74234752 eV    
--------------------------------------------------------------------------------
  Total lattice energy       =           -9141.1883 kJ/(mole unit cells)
--------------------------------------------------------------------------------

  Equations of motion will be integrated using the leapfrog Verlet algorithm.

********************************************************************************
*  Molecular Dynamics                                                          *
********************************************************************************

  Microcanonical ensemble (NVE) to be used

  No. of mobile ions        =                 32

  No. of degrees of freedom =                 93

  Time step                 =           0.002000 ps
  Equilibration time        =           5.000000 ps
  Production time           =          10.000000 ps
  Scaling time              =           5.000000 ps
  Scaling frequency         =           0.002000 ps
  Sampling frequency        =           0.020000 ps
  Write frequency           =           0.020000 ps
  TD-Force start time       =           0.000000 ps
  TD-Field start time       =           0.000000 ps



  Molecular dynamics equilibration :

  ** Time :            0.02000 ps :
     Properties:                   Instantaneous       Averaged
       Kinetic energy    (eV) =      11.779432         11.779432
       Potential energy  (eV) =     -92.721854        -92.721854
       Total energy      (eV) =     -80.942422        -80.942422
       Temperature       (K)  =    2939.666449       2939.666449
       Pressure         (GPa) =       5.150720          5.150720
  ** Time :            0.04000 ps :
     Properties:                   Instantaneous       Averaged
       Kinetic energy    (eV) =      11.536650         11.658041
       Potential energy  (eV) =     -85.083253        -88.902553
       Total energy      (eV) =     -73.546602        -77.244512
       Temperature       (K)  =    2879.078030       2909.372239
       Pressure         (GPa) =      14.535069          9.842894
  ** Time :            0.06000 ps :
     Properties:                   Instantaneous       Averaged
       Kinetic energy    (eV) =      12.016115         11.777399
       Potential energy  (eV) =     -80.282699        -86.029268
       Total energy      (eV) =     -68.266584        -74.251869
       Temperature       (K)  =    2998.732908       2939.159129
       Pressure         (GPa) =      20.588858         13.424882
  ** Time :            0.08000 ps :
     Properties:                   Instantaneous       Averaged
       Kinetic energy    (eV) =      11.976033         11.827057
       Potential energy  (eV) =     -80.858652        -84.736614
       Total energy      (eV) =     -68.882619        -72.909557
       Temperature       (K)  =    2988.730064       2951.551863
       Pressure         (GPa) =      20.135445         15.102523
  ** Time :            0.10000 ps :
     Properties:                   Instantaneous       Averaged
       Kinetic energy    (eV) =      11.957728         11.853192
       Potential energy  (eV) =     -79.587307        -83.706753
       Total energy      (eV) =     -67.629579        -71.853561
       Temperature       (K)  =    2984.161898       2958.073870
       Pressure         (GPa) =      21.413864         16.364791
  ** Time :            0.12000 ps :
     Properties:                   Instantaneous       Averaged
       Kinetic energy    (eV) =      11.925932         11.865315
       Potential energy  (eV) =     -78.542242        -82.846001
       Total energy      (eV) =     -66.616310        -70.980686
       Temperature       (K)  =    2976.226914       2961.099377
       Pressure         (GPa) =      22.966751         17.465118
  ** Time :            0.14000 ps :
     Properties:                   Instantaneous       Averaged
       Kinetic energy    (eV) =      11.894586         11.869497
       Potential energy  (eV) =     -76.112086        -81.884013
       Total energy      (eV) =     -64.217500        -70.014517
       Temperature       (K)  =    2968.404280       2962.142935
       Pressure         (GPa) =      25.452001         18.606101
  ** Time :            0.16000 ps :
     Properties:                   Instantaneous       Averaged
       Kinetic energy    (eV) =      12.161046         11.905940
       Potential energy  (eV) =     -76.801597        -81.248711
       Total energy      (eV) =     -64.640551        -69.342771
       Temperature       (K)  =    3034.901742       2971.237786
       Pressure         (GPa) =      24.758751         19.375182
  ** Time :            0.18000 ps :
     Properties:                   Instantaneous       Averaged
       Kinetic energy    (eV) =      12.083140         11.925629
       Potential energy  (eV) =     -79.679614        -81.074367
       Total energy      (eV) =     -67.596475        -69.148738
       Temperature       (K)  =    3015.459561       2976.151316
       Pressure         (GPa) =      21.745341         19.638533
  ** Time :            0.20000 ps :
     Properties:                   Instantaneous       Averaged
       Kinetic energy    (eV) =      11.977619         11.930828
       Potential energy  (eV) =     -79.775870        -80.944517
       Total energy      (eV) =     -67.798250        -69.013689
       Temperature       (K)  =    2989.125950       2977.448780
       Pressure         (GPa) =      21.365501         19.811230
  ** Time :            0.22000 ps :
     Properties:                   Instantaneous       Averaged
       Kinetic energy    (eV) =      12.022347         11.939148
       Potential energy  (eV) =     -79.428661        -80.806712
       Total energy      (eV) =     -67.406314        -68.867564
       Temperature       (K)  =    3000.288145       2979.525085
       Pressure         (GPa) =      21.581831         19.972194
  ** Time :            0.24000 ps :
     Properties:                   Instantaneous       Averaged
       Kinetic energy    (eV) =      12.056519         11.948929
       Potential energy  (eV) =     -80.078062        -80.745991
       Total energy      (eV) =     -68.021543        -68.797062
       Temperature       (K)  =    3008.816122       2981.966005
       Pressure         (GPa) =      20.939374         20.052792
  ** Time :            0.26000 ps :
     Properties:                   Instantaneous       Averaged
       Kinetic energy    (eV) =      11.984177         11.951640
       Potential energy  (eV) =     -80.337863        -80.714597
       Total energy      (eV) =     -68.353686        -68.762957
       Temperature       (K)  =    2990.762460       2982.642656
       Pressure         (GPa) =      20.623162         20.096667
  ** Time :            0.28000 ps :
     Properties:                   Instantaneous       Averaged
       Kinetic energy    (eV) =      12.052105         11.958816
       Potential energy  (eV) =     -80.368115        -80.689848
       Total energy      (eV) =     -68.316010        -68.731032
       Temperature       (K)  =    3007.714546       2984.433505
       Pressure         (GPa) =      20.542529         20.128514
  ** Time :            0.30000 ps :
     Properties:                   Instantaneous       Averaged
       Kinetic energy    (eV) =      11.886776         11.954014
       Potential energy  (eV) =     -80.008217        -80.644406
       Total energy      (eV) =     -68.121441        -68.690392
       Temperature       (K)  =    2966.455144       2983.234947
       Pressure         (GPa) =      21.365172         20.210958
  ** Time :            0.32000 ps :
     Properties:                   Instantaneous       Averaged
       Kinetic energy    (eV) =      11.870813         11.948814
       Potential energy  (eV) =     -76.382207        -80.378019
       Total energy      (eV) =     -64.511394        -68.429205
       Temperature       (K)  =    2962.471448       2981.937229
       Pressure         (GPa) =      25.293813         20.528636
  ** Time :            0.34000 ps :
     Properties:                   Instantaneous       Averaged
       Kinetic energy    (eV) =      12.125123         11.959185
       Potential energy  (eV) =     -77.454561        -80.206050
       Total energy      (eV) =     -65.329438        -68.246866
       Temperature       (K)  =    3025.936893       2984.525444
       Pressure         (GPa) =      24.344073         20.753074
  ** Time :            0.36000 ps :
     Properties:                   Instantaneous       Averaged
       Kinetic energy    (eV) =      11.924100         11.957236
       Potential energy  (eV) =     -77.101460        -80.033573
       Total energy      (eV) =     -65.177360        -68.076338
       Temperature       (K)  =    2975.769664       2984.039012
       Pressure         (GPa) =      24.281270         20.949085
  ** Time :            0.38000 ps :
     Properties:                   Instantaneous       Averaged
       Kinetic energy    (eV) =      12.114570         11.965516
       Potential energy  (eV) =     -77.652128        -79.908234
       Total energy      (eV) =     -65.537558        -67.942718
       Temperature       (K)  =    3023.303199       2986.105548
       Pressure         (GPa) =      23.830623         21.100745
  ** Time :            0.40000 ps :
     Properties:                   Instantaneous       Averaged
       Kinetic energy    (eV) =      11.970560         11.965768
       Potential energy  (eV) =     -78.764384        -79.851042
       Total energy      (eV) =     -66.793825        -67.885273
       Temperature       (K)  =    2987.364185       2986.168480
       Pressure         (GPa) =      23.101196         21.200767
  ** Time :            0.42000 ps :
     Properties:                   Instantaneous       Averaged
       Kinetic energy    (eV) =      11.963257         11.965649
       Potential energy  (eV) =     -77.224856        -79.725985
       Total energy      (eV) =     -65.261600        -67.760336
       Temperature       (K)  =    2985.541625       2986.138630
       Pressure         (GPa) =      24.503621         21.358046
  ** Time :            0.44000 ps :
     Properties:                   Instantaneous       Averaged
       Kinetic energy    (eV) =      12.087432         11.971184
       Potential energy  (eV) =     -78.002550        -79.647647
       Total energy      (eV) =     -65.915118        -67.676463
       Temperature       (K)  =    3016.530724       2987.520089
       Pressure         (GPa) =      23.117967         21.438042
  ** Time :            0.46000 ps :
     Properties:                   Instantaneous       Averaged
       Kinetic energy    (eV) =      12.007330         11.972756
       Potential energy  (eV) =     -79.288222        -79.632020
       Total energy      (eV) =     -67.280892        -67.659264
       Temperature       (K)  =    2996.540536       2987.912282
       Pressure         (GPa) =      21.629732         21.446377
  ** Time :            0.48000 ps :
     Properties:                   Instantaneous       Averaged
       Kinetic energy    (eV) =      11.971334         11.972697
       Potential energy  (eV) =     -78.182942        -79.571642
       Total energy      (eV) =     -66.211608        -67.598945
       Temperature       (K)  =    2987.557321       2987.897492
       Pressure         (GPa) =      22.870709         21.505724
  ** Time :            0.50000 ps :
     Properties:                   Instantaneous       Averaged
       Kinetic energy    (eV) =      12.084203         11.977157
       Potential energy  (eV) =     -78.745820        -79.538609
       Total energy      (eV) =     -66.661616        -67.561452
       Temperature       (K)  =    3015.725004       2989.010592
       Pressure         (GPa) =      22.407518         21.541796
  ** Time :            0.52000 ps :
     Properties:                   Instantaneous       Averaged
       Kinetic energy    (eV) =      12.007911         11.978340
       Potential energy  (eV) =     -79.883357        -79.551868
       Total energy      (eV) =     -67.875446        -67.573529
       Temperature       (K)  =    2996.685531       2989.305782
       Pressure         (GPa) =      21.268675         21.531291
  ** Time :            0.54000 ps :
     Properties:                   Instantaneous       Averaged
       Kinetic energy    (eV) =      11.981344         11.978451
       Potential energy  (eV) =     -79.105586        -79.535339
       Total energy      (eV) =     -67.124242        -67.556888
       Temperature       (K)  =    2990.055609       2989.333554
       Pressure         (GPa) =      22.403299         21.563588
  ** Time :            0.56000 ps :
     Properties:                   Instantaneous       Averaged
       Kinetic energy    (eV) =      12.035353         11.980483
       Potential energy  (eV) =     -79.256245        -79.525372
       Total energy      (eV) =     -67.220892        -67.544888
       Temperature       (K)  =    3003.534036       2989.840714
       Pressure         (GPa) =      22.537418         21.598367
  ** Time :            0.58000 ps :
     Properties:                   Instantaneous       Averaged
       Kinetic energy    (eV) =      12.009003         11.981467
       Potential energy  (eV) =     -79.855327        -79.536749
       Total energy      (eV) =     -67.846324        -67.555283
       Temperature       (K)  =    2996.958059       2990.086140
       Pressure         (GPa) =      21.688955         21.601491
  ** Time :            0.60000 ps :
     Properties:                   Instantaneous       Averaged
       Kinetic energy    (eV) =      12.066459         11.984300
       Potential energy  (eV) =     -79.780415        -79.544872
       Total energy      (eV) =     -67.713956        -67.560572
       Temperature       (K)  =    3011.296758       2990.793160
       Pressure         (GPa) =      21.393691         21.594564
  ** Time :            0.62000 ps :
     Properties:                   Instantaneous       Averaged
       Kinetic energy    (eV) =      12.029693         11.985764
       Potential energy  (eV) =     -81.264326        -79.600338
       Total energy      (eV) =     -69.234633        -67.614574
       Temperature       (K)  =    3002.121433       2991.158588
       Pressure         (GPa) =      19.919060         21.540516
  ** Time :            0.64000 ps :
     Properties:                   Instantaneous       Averaged
       Kinetic energy    (eV) =      11.967178         11.985183
       Potential energy  (eV) =     -80.411346        -79.625682
       Total energy      (eV) =     -68.444169        -67.640499
       Temperature       (K)  =    2986.520155       2991.013637
       Pressure         (GPa) =      21.144720         21.528147
  ** Time :            0.66000 ps :
     Properties:                   Instantaneous       Averaged
       Kinetic energy    (eV) =      12.078865         11.988022
       Potential energy  (eV) =     -81.002532        -79.667405
       Total energy      (eV) =     -68.923667        -67.679383
       Temperature       (K)  =    3014.392779       2991.722096
       Pressure         (GPa) =      21.053181         21.513754
  ** Time :            0.68000 ps :
     Properties:                   Instantaneous       Averaged
       Kinetic energy    (eV) =      12.022807         11.989045
       Potential energy  (eV) =     -81.974873        -79.735271
       Total energy      (eV) =     -69.952066        -67.746226
       Temperature       (K)  =    3000.402900       2991.977414
       Pressure         (GPa) =      19.960451         21.468069
  ** Time :            0.70000 ps :
     Properties:                   Instantaneous       Averaged
       Kinetic energy    (eV) =      11.935571         11.987517
       Potential energy  (eV) =     -81.274818        -79.779258
       Total energy      (eV) =     -69.339247        -67.791741
       Temperature       (K)  =    2978.632547       2991.596132
       Pressure         (GPa) =      20.397428         21.437479
  ** Time :            0.72000 ps :
     Properties:                   Instantaneous       Averaged
       Kinetic energy    (eV) =      11.894271         11.984927
       Potential energy  (eV) =     -79.134410        -79.761346
       Total energy      (eV) =     -67.240140        -67.776419
       Temperature       (K)  =    2968.325599       2990.949728
       Pressure         (GPa) =      22.461173         21.465915
  ** Time :            0.74000 ps :
     Properties:                   Instantaneous       Averaged
       Kinetic energy    (eV) =      11.959693         11.984245
       Potential energy  (eV) =     -77.502700        -79.700302
       Total energy      (eV) =     -65.543007        -67.716056
       Temperature       (K)  =    2984.652337       2990.779529
       Pressure         (GPa) =      24.286373         21.542144
  ** Time :            0.76000 ps :
     Properties:                   Instantaneous       Averaged
       Kinetic energy    (eV) =      12.082901         11.986841
       Potential energy  (eV) =     -77.781703        -79.649812
       Total energy      (eV) =     -65.698801        -67.662971
       Temperature       (K)  =    3015.400083       2991.427438
       Pressure         (GPa) =      24.208936         21.612322
  ** Time :            0.78000 ps :
     Properties:                   Instantaneous       Averaged
       Kinetic energy    (eV) =      12.097783         11.989686
       Potential energy  (eV) =     -79.826202        -79.654335
       Total energy      (eV) =     -67.728420        -67.664649
       Temperature       (K)  =    3019.113821       2992.137345
       Pressure         (GPa) =      22.139279         21.625834
  ** Time :            0.80000 ps :
     Properties:                   Instantaneous       Averaged
       Kinetic energy    (eV) =      11.984857         11.989565
       Potential energy  (eV) =     -80.705699        -79.680619
       Total energy      (eV) =     -68.720842        -67.691054
       Temperature       (K)  =    2990.932203       2992.107217
       Pressure         (GPa) =      20.807045         21.605364
  ** Time :            0.82000 ps :
     Properties:                   Instantaneous       Averaged
       Kinetic energy    (eV) =      12.086535         11.991930
       Potential energy  (eV) =     -80.998988        -79.712774
       Total energy      (eV) =     -68.912453        -67.720844
       Temperature       (K)  =    3016.306927       2992.697453
       Pressure         (GPa) =      20.082702         21.568226
  ** Time :            0.84000 ps :
     Properties:                   Instantaneous       Averaged
       Kinetic energy    (eV) =      11.918240         11.990176
       Potential energy  (eV) =     -81.166780        -79.747394
       Total energy      (eV) =     -69.248540        -67.757218
       Temperature       (K)  =    2974.307232       2992.259591
       Pressure         (GPa) =      19.932609         21.529283
  ** Time :            0.86000 ps :
     Properties:                   Instantaneous       Averaged
       Kinetic energy    (eV) =      11.896401         11.987995
       Potential energy  (eV) =     -78.191810        -79.711217
       Total energy      (eV) =     -66.295410        -67.723222
       Temperature       (K)  =    2968.857078       2991.715347
       Pressure         (GPa) =      22.942134         21.562140
  ** Time :            0.88000 ps :
     Properties:                   Instantaneous       Averaged
       Kinetic energy    (eV) =      12.112733         11.990830
       Potential energy  (eV) =     -78.917446        -79.693177
       Total energy      (eV) =     -66.804713        -67.702347
       Temperature       (K)  =    3022.844760       2992.422833
       Pressure         (GPa) =      22.613908         21.586044
  ** Time :            0.90000 ps :
     Properties:                   Instantaneous       Averaged
       Kinetic energy    (eV) =      12.052080         11.992191
       Potential energy  (eV) =     -80.350470        -79.707783
       Total energy      (eV) =     -68.298390        -67.715592
       Temperature       (K)  =    3007.708354       2992.762511
       Pressure         (GPa) =      21.421046         21.582377
  ** Time :            0.92000 ps :
     Properties:                   Instantaneous       Averaged
       Kinetic energy    (eV) =      11.954170         11.991365
       Potential energy  (eV) =     -80.338927        -79.721504
       Total energy      (eV) =     -68.384756        -67.730139
       Temperature       (K)  =    2983.274060       2992.556241
       Pressure         (GPa) =      21.573306         21.582180
  ** Time :            0.94000 ps :
     Properties:                   Instantaneous       Averaged
       Kinetic energy    (eV) =      11.945911         11.990398
       Potential energy  (eV) =     -78.680225        -79.699349
       Total energy      (eV) =     -66.734314        -67.708952
       Temperature       (K)  =    2981.212921       2992.314894
       Pressure         (GPa) =      23.105182         21.614584
  ** Time :            0.96000 ps :
     Properties:                   Instantaneous       Averaged
       Kinetic energy    (eV) =      11.980484         11.990191
       Potential energy  (eV) =     -78.353495        -79.671310
       Total energy      (eV) =     -66.373010        -67.681119
       Temperature       (K)  =    2989.840975       2992.263354
       Pressure         (GPa) =      23.477049         21.653386
  ** Time :            0.98000 ps :
     Properties:                   Instantaneous       Averaged
       Kinetic energy    (eV) =      12.079060         11.992005
       Potential energy  (eV) =     -78.130544        -79.639866
       Total energy      (eV) =     -66.051484        -67.647862
       Temperature       (K)  =    3014.441464       2992.715968
       Pressure         (GPa) =      23.637946         21.693887
  ** Time :            1.00000 ps :
     Properties:                   Instantaneous       Averaged
       Kinetic energy    (eV) =      12.126559         11.994696
       Potential energy  (eV) =     -80.768456        -79.662438
       Total energy      (eV) =     -68.641897        -67.667742
       Temperature       (K)  =    3026.295219       2993.387553
       Pressure         (GPa) =      21.101260         21.682034
  ** Time :            1.02000 ps :
     Properties:                   Instantaneous       Averaged
       Kinetic energy    (eV) =      11.999464         11.994789
       Potential energy  (eV) =     -81.617385        -79.700770
       Total energy      (eV) =     -69.617921        -67.705981
       Temperature       (K)  =    2994.577438       2993.410884
       Pressure         (GPa) =      20.356884         21.656051
  ** Time :            1.04000 ps :
     Properties:                   Instantaneous       Averaged
       Kinetic energy    (eV) =      11.922492         11.993399
       Potential energy  (eV) =     -80.604960        -79.718159
       Total energy      (eV) =     -68.682468        -67.724760
       Temperature       (K)  =    2975.368512       2993.063915
       Pressure         (GPa) =      21.468933         21.652453
  ** Time :            1.06000 ps :
     Properties:                   Instantaneous       Averaged
       Kinetic energy    (eV) =      12.010710         11.993726
       Potential energy  (eV) =     -79.480436        -79.713673
       Total energy      (eV) =     -67.469726        -67.719948
       Temperature       (K)  =    2997.384054       2993.145428
       Pressure         (GPa) =      22.281004         21.664312
  ** Time :            1.08000 ps :
     Properties:                   Instantaneous       Averaged
       Kinetic energy    (eV) =      11.960258         11.993106
       Potential energy  (eV) =     -79.096421        -79.702243
       Total energy      (eV) =     -67.136163        -67.709137
       Temperature       (K)  =    2984.793354       2992.990760
       Pressure         (GPa) =      22.337301         21.676775
  ** Time :            1.10000 ps :
     Properties:                   Instantaneous       Averaged
       Kinetic energy    (eV) =      12.063837         11.994392
       Potential energy  (eV) =     -78.850826        -79.686762
       Total energy      (eV) =     -66.786990        -67.692371
       Temperature       (K)  =    3010.642310       2993.311697
       Pressure         (GPa) =      22.151070         21.685398
  ** Time :            1.12000 ps :
     Properties:                   Instantaneous       Averaged
       Kinetic energy    (eV) =      12.034263         11.995104
       Potential energy  (eV) =     -80.228680        -79.696439
       Total energy      (eV) =     -68.194417        -67.701336
       Temperature       (K)  =    3003.261897       2993.489379
       Pressure         (GPa) =      20.960973         21.672462
  ** Time :            1.14000 ps :
     Properties:                   Instantaneous       Averaged
       Kinetic energy    (eV) =      11.892692         11.993307
       Potential energy  (eV) =     -78.865997        -79.681870
       Total energy      (eV) =     -66.973305        -67.688563
       Temperature       (K)  =    2967.931528       2993.040996
       Pressure         (GPa) =      22.825238         21.692686
  ** Time :            1.16000 ps :
     Properties:                   Instantaneous       Averaged
       Kinetic energy    (eV) =      11.957802         11.992695
       Potential energy  (eV) =     -77.390095        -79.642357
       Total energy      (eV) =     -65.432293        -67.649662
       Temperature       (K)  =    2984.180415       2992.888227
       Pressure         (GPa) =      24.873562         21.747529
  ** Time :            1.18000 ps :
     Properties:                   Instantaneous       Averaged
       Kinetic energy    (eV) =      12.017435         11.993114
       Potential energy  (eV) =     -76.889937        -79.595706
       Total energy      (eV) =     -64.872502        -67.602592
       Temperature       (K)  =    2999.062410       2992.992874
       Pressure         (GPa) =      25.435508         21.810037
  ** Time :            1.20000 ps :
     Properties:                   Instantaneous       Averaged
       Kinetic energy    (eV) =      12.098469         11.994870
       Potential energy  (eV) =     -77.876501        -79.567052
       Total energy      (eV) =     -65.778032        -67.572182
       Temperature       (K)  =    3019.285246       2993.431080
       Pressure         (GPa) =      24.066344         21.847642
  ** Time :            1.22000 ps :
     Properties:                   Instantaneous       Averaged
       Kinetic energy    (eV) =      12.049948         11.995773
       Potential energy  (eV) =     -79.260327        -79.562024
       Total energy      (eV) =     -67.210379        -67.566251
       Temperature       (K)  =    3007.176377       2993.656413
       Pressure         (GPa) =      22.598109         21.859945
  ** Time :            1.24000 ps :
     Properties:                   Instantaneous       Averaged
       Kinetic energy    (eV) =      11.993392         11.995735
       Potential energy  (eV) =     -79.434324        -79.559964
       Total energy      (eV) =     -67.440933        -67.564230
       Temperature       (K)  =    2993.062084       2993.646827
       Pressure         (GPa) =      22.724291         21.873886
  ** Time :            1.26000 ps :
     Properties:                   Instantaneous       Averaged
       Kinetic energy    (eV) =      12.095901         11.997325
       Potential energy  (eV) =     -80.026886        -79.567376
       Total energy      (eV) =     -67.930985        -67.570051
       Temperature       (K)  =    3018.644318       2994.043613
       Pressure         (GPa) =      22.251167         21.879875
  ** Time :            1.28000 ps :
     Properties:                   Instantaneous       Averaged
       Kinetic energy    (eV) =      11.993902         11.997271
       Potential energy  (eV) =     -81.089505        -79.591159
       Total energy      (eV) =     -69.095603        -67.593888
       Temperature       (K)  =    2993.189488       2994.030267
       Pressure         (GPa) =      20.971052         21.865674
  ** Time :            1.30000 ps :
     Properties:                   Instantaneous       Averaged
       Kinetic energy    (eV) =      12.023069         11.997668
       Potential energy  (eV) =     -80.521892        -79.605478
       Total energy      (eV) =     -68.498822        -67.607810
       Temperature       (K)  =    3000.468485       2994.129316
       Pressure         (GPa) =      20.895368         21.850747
  ** Time :            1.32000 ps :
     Properties:                   Instantaneous       Averaged
       Kinetic energy    (eV) =      12.108855         11.999353
       Potential energy  (eV) =     -81.731735        -79.637694
       Total energy      (eV) =     -69.622880        -67.638341
       Temperature       (K)  =    3021.877127       2994.549738
       Pressure         (GPa) =      19.326258         21.812497
  ** Time :            1.34000 ps :
     Properties:                   Instantaneous       Averaged
       Kinetic energy    (eV) =      11.962061         11.998796
       Potential energy  (eV) =     -82.620949        -79.682220
       Total energy      (eV) =     -70.658888        -67.683424
       Temperature       (K)  =    2985.243268       2994.410835
       Pressure         (GPa) =      18.457637         21.762424
  ** Time :            1.36000 ps :
     Properties:                   Instantaneous       Averaged
       Kinetic energy    (eV) =      11.780000         11.995578
       Potential energy  (eV) =     -79.738267        -79.683044
       Total energy      (eV) =     -67.958268        -67.687466
       Temperature       (K)  =    2939.808129       2993.607854
       Pressure         (GPa) =      21.473190         21.758171
  ** Time :            1.38000 ps :
     Properties:                   Instantaneous       Averaged
       Kinetic energy    (eV) =      12.217499         11.998795
       Potential energy  (eV) =     -79.003763        -79.673200
       Total energy      (eV) =     -66.786264        -67.674405
       Temperature       (K)  =    3048.990206       2994.410497
       Pressure         (GPa) =      22.443489         21.768103
  ** Time :            1.40000 ps :
     Properties:                   Instantaneous       Averaged
       Kinetic energy    (eV) =      11.962598         11.998278
       Potential energy  (eV) =     -80.765395        -79.688803
       Total energy      (eV) =     -68.802797        -67.690525
       Temperature       (K)  =    2985.377364       2994.281452
       Pressure         (GPa) =      20.986600         21.756939
  ** Time :            1.42000 ps :
     Properties:                   Instantaneous       Averaged
       Kinetic energy    (eV) =      12.047141         11.998966
       Potential energy  (eV) =     -80.526266        -79.700598
       Total energy      (eV) =     -68.479125        -67.701632
       Temperature       (K)  =    3006.475725       2994.453203
       Pressure         (GPa) =      21.541561         21.753905
  ** Time :            1.44000 ps :
     Properties:                   Instantaneous       Averaged
       Kinetic energy    (eV) =      11.974639         11.998628
       Potential energy  (eV) =     -80.624157        -79.713425
       Total energy      (eV) =     -68.649518        -67.714797
       Temperature       (K)  =    2988.382126       2994.368882
       Pressure         (GPa) =      21.644041         21.752379
  ** Time :            1.46000 ps :
     Properties:                   Instantaneous       Averaged
       Kinetic energy    (eV) =      11.963000         11.998140
       Potential energy  (eV) =     -79.647138        -79.712517
       Total energy      (eV) =     -67.684138        -67.714377
       Temperature       (K)  =    2985.477607       2994.247084
       Pressure         (GPa) =      22.611109         21.764143
  ** Time :            1.48000 ps :
     Properties:                   Instantaneous       Averaged
       Kinetic energy    (eV) =      12.037932         11.998678
       Potential energy  (eV) =     -79.189198        -79.705445
       Total energy      (eV) =     -67.151265        -67.706768
       Temperature       (K)  =    3004.177664       2994.381281
       Pressure         (GPa) =      22.676751         21.776475
  ** Time :            1.50000 ps :
     Properties:                   Instantaneous       Averaged
       Kinetic energy    (eV) =      12.058654         11.999477
       Potential energy  (eV) =     -80.661553        -79.718193
       Total energy      (eV) =     -68.602899        -67.718716
       Temperature       (K)  =    3009.348997       2994.580850
       Pressure         (GPa) =      20.992646         21.766024
  ** Time :            1.52000 ps :
     Properties:                   Instantaneous       Averaged
       Kinetic energy    (eV) =      11.863347         11.997686
       Potential energy  (eV) =     -78.829519        -79.706500
       Total energy      (eV) =     -66.966172        -67.708814
       Temperature       (K)  =    2960.608296       2994.133843
       Pressure         (GPa) =      22.640401         21.777529
  ** Time :            1.54000 ps :
     Properties:                   Instantaneous       Averaged
       Kinetic energy    (eV) =      12.194724         12.000245
       Potential energy  (eV) =     -80.446457        -79.716110
       Total energy      (eV) =     -68.251733        -67.715865
       Temperature       (K)  =    3043.306460       2994.772449
       Pressure         (GPa) =      21.066233         21.768291
  ** Time :            1.56000 ps :
     Properties:                   Instantaneous       Averaged
       Kinetic energy    (eV) =      11.987031         12.000076
       Potential energy  (eV) =     -82.268092        -79.748828
       Total energy      (eV) =     -70.281061        -67.748752
       Temperature       (K)  =    2991.474814       2994.730171
       Pressure         (GPa) =      18.979494         21.732538
  ** Time :            1.58000 ps :
     Properties:                   Instantaneous       Averaged
       Kinetic energy    (eV) =      11.837608         11.998019
       Potential energy  (eV) =     -79.985682        -79.751826
       Total energy      (eV) =     -68.148074        -67.753807
       Temperature       (K)  =    2954.184908       2994.216940
       Pressure         (GPa) =      21.447702         21.728932
  ** Time :            1.60000 ps :
     Properties:                   Instantaneous       Averaged
       Kinetic energy    (eV) =      11.972281         11.997697
       Potential energy  (eV) =     -77.465946        -79.723252
       Total energy      (eV) =     -65.493665        -67.725555
       Temperature       (K)  =    2987.793723       2994.136650
       Pressure         (GPa) =      24.293482         21.760989
  ** Time :            1.62000 ps :
     Properties:                   Instantaneous       Averaged
       Kinetic energy    (eV) =      12.167558         11.999794
       Potential energy  (eV) =     -79.557346        -79.721204
       Total energy      (eV) =     -67.389788        -67.721410
       Temperature       (K)  =    3036.526885       2994.659986
       Pressure         (GPa) =      22.119159         21.765411
  ** Time :            1.64000 ps :
     Properties:                   Instantaneous       Averaged
       Kinetic energy    (eV) =      11.872269         11.998239
       Potential energy  (eV) =     -79.931702        -79.723771
       Total energy      (eV) =     -68.059433        -67.725532
       Temperature       (K)  =    2962.834928       2994.271876
       Pressure         (GPa) =      21.460738         21.761695
  ** Time :            1.66000 ps :
     Properties:                   Instantaneous       Averaged
       Kinetic energy    (eV) =      11.976529         11.997978
       Potential energy  (eV) =     -77.759685        -79.700108
       Total energy      (eV) =     -65.783156        -67.702130
       Temperature       (K)  =    2988.853837       2994.206598
       Pressure         (GPa) =      23.717317         21.785257
  ** Time :            1.68000 ps :
     Properties:                   Instantaneous       Averaged
       Kinetic energy    (eV) =      12.007369         11.998089
       Potential energy  (eV) =     -77.153726        -79.669793
       Total energy      (eV) =     -65.146357        -67.671704
       Temperature       (K)  =    2996.550241       2994.234499
       Pressure         (GPa) =      24.473383         21.817258
  ** Time :            1.70000 ps :
     Properties:                   Instantaneous       Averaged
       Kinetic energy    (eV) =      12.045729         11.998650
       Potential energy  (eV) =     -78.248848        -79.653076
       Total energy      (eV) =     -66.203119        -67.654427
       Temperature       (K)  =    3006.123350       2994.374367
       Pressure         (GPa) =      23.549649         21.837640
  ** Time :            1.72000 ps :
     Properties:                   Instantaneous       Averaged
       Kinetic energy    (eV) =      11.964612         11.998254
       Potential energy  (eV) =     -78.023469        -79.634128
       Total energy      (eV) =     -66.058857        -67.635873
       Temperature       (K)  =    2985.879778       2994.275593
       Pressure         (GPa) =      23.762290         21.860019
  ** Time :            1.74000 ps :
     Properties:                   Instantaneous       Averaged
       Kinetic energy    (eV) =      12.046736         11.998811
       Potential energy  (eV) =     -78.155157        -79.617128
       Total energy      (eV) =     -66.108422        -67.618316
       Temperature       (K)  =    3006.374573       2994.414662
       Pressure         (GPa) =      23.636262         21.880436
  ** Time :            1.76000 ps :
     Properties:                   Instantaneous       Averaged
       Kinetic energy    (eV) =      12.008679         11.998924
       Potential energy  (eV) =     -78.397439        -79.603268
       Total energy      (eV) =     -66.388760        -67.604344
       Temperature       (K)  =    2996.877227       2994.442646
       Pressure         (GPa) =      23.584583         21.899801
  ** Time :            1.78000 ps :
     Properties:                   Instantaneous       Averaged
       Kinetic energy    (eV) =      11.995649         11.998887
       Potential energy  (eV) =     -78.295140        -79.588570
       Total energy      (eV) =     -66.299491        -67.589683
       Temperature       (K)  =    2993.625526       2994.433464
       Pressure         (GPa) =      23.867495         21.921910
  ** Time :            1.80000 ps :
     Properties:                   Instantaneous       Averaged
       Kinetic energy    (eV) =      12.044546         11.999394
       Potential energy  (eV) =     -78.461949        -79.576052
       Total energy      (eV) =     -66.417403        -67.576658
       Temperature       (K)  =    3005.828238       2994.560073
       Pressure         (GPa) =      23.495677         21.939396
  ** Time :            1.82000 ps :
     Properties:                   Instantaneous       Averaged
       Kinetic energy    (eV) =      12.133671         12.000870
       Potential energy  (eV) =     -80.126926        -79.582105
       Total energy      (eV) =     -67.993254        -67.581236
       Temperature       (K)  =    3028.070228       2994.928316
       Pressure         (GPa) =      21.443275         21.933944
  ** Time :            1.84000 ps :
     Properties:                   Instantaneous       Averaged
       Kinetic energy    (eV) =      11.968298         12.000516
       Potential energy  (eV) =     -81.236634        -79.600089
       Total energy      (eV) =     -69.268336        -67.599574
       Temperature       (K)  =    2986.799784       2994.839963
       Pressure         (GPa) =      20.058686         21.913561
  ** Time :            1.86000 ps :
     Properties:                   Instantaneous       Averaged
       Kinetic energy    (eV) =      11.894529         11.999376
       Potential energy  (eV) =     -79.444712        -79.598419
       Total energy      (eV) =     -67.550183        -67.599043
       Temperature       (K)  =    2968.390027       2994.555555
       Pressure         (GPa) =      21.888647         21.913293
  ** Time :            1.88000 ps :
     Properties:                   Instantaneous       Averaged
       Kinetic energy    (eV) =      11.751786         11.996742
       Potential energy  (eV) =     -75.695716        -79.556900
       Total energy      (eV) =     -63.943929        -67.560158
       Temperature       (K)  =    2932.767231       2993.898232
       Pressure         (GPa) =      25.710658         21.953691
  ** Time :            1.90000 ps :
     Properties:                   Instantaneous       Averaged
       Kinetic energy    (eV) =      12.110093         11.997935
       Potential energy  (eV) =     -73.705922        -79.495311
       Total energy      (eV) =     -61.595829        -67.497376
       Temperature       (K)  =    3022.186137       2994.196000
       Pressure         (GPa) =      27.398049         22.011000
  ** Time :            1.92000 ps :
     Properties:                   Instantaneous       Averaged
       Kinetic energy    (eV) =      12.235953         12.000415
       Potential energy  (eV) =     -77.773150        -79.477372
       Total energy      (eV) =     -65.537196        -67.476957
       Temperature       (K)  =    3053.595646       2994.814746
       Pressure         (GPa) =      23.473022         22.026229
  ** Time :            1.94000 ps :
     Properties:                   Instantaneous       Averaged
       Kinetic energy    (eV) =      12.106593         12.001509
       Potential energy  (eV) =     -81.280478        -79.495961
       Total energy      (eV) =     -69.173884        -67.494452
       Temperature       (K)  =    3021.312668       2995.087921
       Pressure         (GPa) =      19.828615         22.003573
  ** Time :            1.96000 ps :
     Properties:                   Instantaneous       Averaged
       Kinetic energy    (eV) =      11.870840         12.000176
       Potential energy  (eV) =     -80.859821        -79.509878
       Total energy      (eV) =     -68.988981        -67.509702
       Temperature       (K)  =    2962.478193       2994.755168
       Pressure         (GPa) =      20.360134         21.986804
  ** Time :            1.98000 ps :
     Properties:                   Instantaneous       Averaged
       Kinetic energy    (eV) =      12.008166         12.000257
       Potential energy  (eV) =     -78.287338        -79.497529
       Total energy      (eV) =     -66.279172        -67.497272
       Temperature       (K)  =    2996.749289       2994.775311
       Pressure         (GPa) =      23.052937         21.997573
  ** Time :            2.00000 ps :
     Properties:                   Instantaneous       Averaged
       Kinetic energy    (eV) =      12.088476         12.001139
       Potential energy  (eV) =     -80.194775        -79.504501
       Total energy      (eV) =     -68.106299        -67.503362
       Temperature       (K)  =    3016.791189       2994.995470
       Pressure         (GPa) =      21.357559         21.991173
  ** Time :            2.02000 ps :
     Properties:                   Instantaneous       Averaged
       Kinetic energy    (eV) =      11.949082         12.000623
       Potential energy  (eV) =     -80.012156        -79.509528
       Total energy      (eV) =     -68.063074        -67.508904
       Temperature       (K)  =    2982.004246       2994.866844
       Pressure         (GPa) =      21.506893         21.986378
  ** Time :            2.04000 ps :
     Properties:                   Instantaneous       Averaged
       Kinetic energy    (eV) =      11.949948         12.000127
       Potential energy  (eV) =     -79.032686        -79.504853
       Total energy      (eV) =     -67.082738        -67.504726
       Temperature       (K)  =    2982.220365       2994.742859
       Pressure         (GPa) =      22.646818         21.992853
  ** Time :            2.06000 ps :
     Properties:                   Instantaneous       Averaged
       Kinetic energy    (eV) =      12.010898         12.000231
       Potential energy  (eV) =     -78.203696        -79.492220
       Total energy      (eV) =     -66.192798        -67.491989
       Temperature       (K)  =    2997.430985       2994.768957
       Pressure         (GPa) =      23.508336         22.007566
  ** Time :            2.08000 ps :
     Properties:                   Instantaneous       Averaged
       Kinetic energy    (eV) =      12.013816         12.000362
       Potential energy  (eV) =     -78.528788        -79.482956
       Total energy      (eV) =     -66.514972        -67.482595
       Temperature       (K)  =    2998.159193       2994.801555
       Pressure         (GPa) =      23.288460         22.019882
  ** Time :            2.10000 ps :
     Properties:                   Instantaneous       Averaged
       Kinetic energy    (eV) =      11.962602         12.000002
       Potential energy  (eV) =     -78.137463        -79.470142
       Total energy      (eV) =     -66.174861        -67.470140
       Temperature       (K)  =    2985.378294       2994.711810
       Pressure         (GPa) =      23.685107         22.035742
  ** Time :            2.12000 ps :
     Properties:                   Instantaneous       Averaged
       Kinetic energy    (eV) =      12.118967         12.001124
       Potential energy  (eV) =     -78.329911        -79.459385
       Total energy      (eV) =     -66.210945        -67.458261
       Temperature       (K)  =    3024.400521       2994.991892
       Pressure         (GPa) =      23.181437         22.046550
  ** Time :            2.14000 ps :
     Properties:                   Instantaneous       Averaged
       Kinetic energy    (eV) =      12.043966         12.001525
       Potential energy  (eV) =     -80.576367        -79.469824
       Total energy      (eV) =     -68.532401        -67.468299
       Temperature       (K)  =    3005.683297       2995.091812
       Pressure         (GPa) =      20.599919         22.033030
  ** Time :            2.16000 ps :
     Properties:                   Instantaneous       Averaged
       Kinetic energy    (eV) =      11.968340         12.001218
       Potential energy  (eV) =     -80.062924        -79.475316
       Total energy      (eV) =     -68.094584        -67.474098
       Temperature       (K)  =    2986.810322       2995.015131
       Pressure         (GPa) =      21.103045         22.024419
  ** Time :            2.18000 ps :
     Properties:                   Instantaneous       Averaged
       Kinetic energy    (eV) =      11.863467         11.999954
       Potential energy  (eV) =     -78.245942        -79.464037
       Total energy      (eV) =     -66.382475        -67.464083
       Temperature       (K)  =    2960.638137       2994.699746
       Pressure         (GPa) =      23.477905         22.037754
  ** Time :            2.20000 ps :
     Properties:                   Instantaneous       Averaged
       Kinetic energy    (eV) =      12.057475         12.000477
       Potential energy  (eV) =     -76.452086        -79.436656
       Total energy      (eV) =     -64.394611        -67.436179
       Temperature       (K)  =    3009.054583       2994.830245
       Pressure         (GPa) =      25.246666         22.066926
  ** Time :            2.22000 ps :
     Properties:                   Instantaneous       Averaged
       Kinetic energy    (eV) =      11.986202         12.000348
       Potential energy  (eV) =     -78.046038        -79.424128
       Total energy      (eV) =     -66.059836        -67.423780
       Temperature       (K)  =    2991.267927       2994.798152
       Pressure         (GPa) =      23.465992         22.079530
  ** Time :            2.24000 ps :
     Properties:                   Instantaneous       Averaged
       Kinetic energy    (eV) =      11.993816         12.000290
       Potential energy  (eV) =     -76.781772        -79.400535
       Total energy      (eV) =     -64.787956        -67.400246
       Temperature       (K)  =    2993.167928       2994.783596
       Pressure         (GPa) =      24.426273         22.100483
  ** Time :            2.26000 ps :
     Properties:                   Instantaneous       Averaged
       Kinetic energy    (eV) =      11.998317         12.000272
       Potential energy  (eV) =     -77.005556        -79.379341
       Total energy      (eV) =     -65.007239        -67.379068
       Temperature       (K)  =    2994.291295       2994.779239
       Pressure         (GPa) =      24.238447         22.119403
  ** Time :            2.28000 ps :
     Properties:                   Instantaneous       Averaged
       Kinetic energy    (eV) =      12.078237         12.000956
       Potential energy  (eV) =     -77.429563        -79.362237
       Total energy      (eV) =     -65.351326        -67.361281
       Temperature       (K)  =    3014.235977       2994.949913
       Pressure         (GPa) =      23.673974         22.133040
  ** Time :            2.30000 ps :
     Properties:                   Instantaneous       Averaged
       Kinetic energy    (eV) =      12.028192         12.001193
       Potential energy  (eV) =     -78.511560        -79.354840
       Total energy      (eV) =     -66.483368        -67.353647
       Temperature       (K)  =    3001.746932       2995.009017
       Pressure         (GPa) =      22.826602         22.139071
  ** Time :            2.32000 ps :
     Properties:                   Instantaneous       Averaged
       Kinetic energy    (eV) =      12.007425         12.001247
       Potential energy  (eV) =     -78.859754        -79.350572
       Total energy      (eV) =     -66.852328        -67.349326
       Temperature       (K)  =    2996.564369       2995.022425
       Pressure         (GPa) =      22.731833         22.144181
  ** Time :            2.34000 ps :
     Properties:                   Instantaneous       Averaged
       Kinetic energy    (eV) =      11.923019         12.000578
       Potential energy  (eV) =     -77.461055        -79.334423
       Total energy      (eV) =     -65.538036        -67.333844
       Temperature       (K)  =    2975.499897       2994.855566
       Pressure         (GPa) =      24.150731         22.161331
  ** Time :            2.36000 ps :
     Properties:                   Instantaneous       Averaged
       Kinetic energy    (eV) =      12.112901         12.001530
       Potential energy  (eV) =     -77.637201        -79.320039
       Total energy      (eV) =     -65.524300        -67.318509
       Temperature       (K)  =    3022.886723       2995.093118
       Pressure         (GPa) =      23.924280         22.176271
  ** Time :            2.38000 ps :
     Properties:                   Instantaneous       Averaged
       Kinetic energy    (eV) =      12.065238         12.002065
       Potential energy  (eV) =     -80.087678        -79.326490
       Total energy      (eV) =     -68.022440        -67.324425
       Temperature       (K)  =    3010.992022       2995.226722
       Pressure         (GPa) =      21.411336         22.169843
  ** Time :            2.40000 ps :
     Properties:                   Instantaneous       Averaged
       Kinetic energy    (eV) =      11.961658         12.001729
       Potential energy  (eV) =     -79.814517        -79.330557
       Total energy      (eV) =     -67.852859        -67.328828
       Temperature       (K)  =    2985.142691       2995.142689
       Pressure         (GPa) =      21.739143         22.166254
  ** Time :            2.42000 ps :
     Properties:                   Instantaneous       Averaged
       Kinetic energy    (eV) =      11.934767         12.001175
       Potential energy  (eV) =     -78.456425        -79.323333
       Total energy      (eV) =     -66.521658        -67.322157
       Temperature       (K)  =    2978.431897       2995.004583
       Pressure         (GPa) =      23.312565         22.175727
  ** Time :            2.44000 ps :
     Properties:                   Instantaneous       Averaged
       Kinetic energy    (eV) =      12.004759         12.001205
       Potential energy  (eV) =     -77.628988        -79.309445
       Total energy      (eV) =     -65.624229        -67.308240
       Temperature       (K)  =    2995.898984       2995.011914
       Pressure         (GPa) =      24.182943         22.192180
  ** Time :            2.46000 ps :
     Properties:                   Instantaneous       Averaged
       Kinetic energy    (eV) =      11.963706         12.000900
       Potential energy  (eV) =     -77.147881        -79.291871
       Total energy      (eV) =     -65.184174        -67.290971
       Temperature       (K)  =    2985.653889       2994.935833
       Pressure         (GPa) =      24.752233         22.212993
  ** Time :            2.48000 ps :
     Properties:                   Instantaneous       Averaged
       Kinetic energy    (eV) =      12.006592         12.000946
       Potential energy  (eV) =     -76.778788        -79.271604
       Total energy      (eV) =     -64.772196        -67.270659
       Temperature       (K)  =    2996.356406       2994.947289
       Pressure         (GPa) =      25.053145         22.235898
  ** Time :            2.50000 ps :
     Properties:                   Instantaneous       Averaged
       Kinetic energy    (eV) =      12.092364         12.001677
       Potential energy  (eV) =     -77.703228        -79.259057
       Total energy      (eV) =     -65.610864        -67.257380
       Temperature       (K)  =    3017.761484       2995.129803
       Pressure         (GPa) =      24.221186         22.251780
  ** Time :            2.52000 ps :
     Properties:                   Instantaneous       Averaged
       Kinetic energy    (eV) =      11.936694         12.001161
       Potential energy  (eV) =     -77.854128        -79.247907
       Total energy      (eV) =     -65.917434        -67.246746
       Temperature       (K)  =    2978.912672       2995.001095
       Pressure         (GPa) =      24.211289         22.267332
  ** Time :            2.54000 ps :
     Properties:                   Instantaneous       Averaged
       Kinetic energy    (eV) =      11.968532         12.000904
       Potential energy  (eV) =     -76.644606        -79.227409
       Total energy      (eV) =     -64.676075        -67.226504
       Temperature       (K)  =    2986.858053       2994.936977
       Pressure         (GPa) =      25.450585         22.292397
  ** Time :            2.56000 ps :
     Properties:                   Instantaneous       Averaged
       Kinetic energy    (eV) =      11.944884         12.000467
       Potential energy  (eV) =     -75.685213        -79.199735
       Total energy      (eV) =     -63.740329        -67.199268
       Temperature       (K)  =    2980.956589       2994.827755
       Pressure         (GPa) =      26.586215         22.325942
  ** Time :            2.58000 ps :
     Properties:                   Instantaneous       Averaged
       Kinetic energy    (eV) =      12.046935         12.000827
       Potential energy  (eV) =     -75.213939        -79.168837
       Total energy      (eV) =     -63.167004        -67.168011
       Temperature       (K)  =    3006.424369       2994.917651
       Pressure         (GPa) =      26.927452         22.361613
  ** Time :            2.60000 ps :
     Properties:                   Instantaneous       Averaged
       Kinetic energy    (eV) =      12.081681         12.001449
       Potential energy  (eV) =     -76.703494        -79.149873
       Total energy      (eV) =     -64.621813        -67.148424
       Temperature       (K)  =    3015.095507       2995.072866
       Pressure         (GPa) =      25.159782         22.383137
  ** Time :            2.62000 ps :
     Properties:                   Instantaneous       Averaged
       Kinetic energy    (eV) =      12.091238         12.002134
       Potential energy  (eV) =     -78.105485        -79.141901
       Total energy      (eV) =     -66.014247        -67.139767
       Temperature       (K)  =    3017.480680       2995.243918
       Pressure         (GPa) =      23.651549         22.392820
  ** Time :            2.64000 ps :
     Properties:                   Instantaneous       Averaged
       Kinetic energy    (eV) =      12.027683         12.002328
       Potential energy  (eV) =     -79.183321        -79.142215
       Total energy      (eV) =     -67.155639        -67.139887
       Temperature       (K)  =    3001.619720       2995.292219
       Pressure         (GPa) =      22.588171         22.394300
  ** Time :            2.66000 ps :
     Properties:                   Instantaneous       Averaged
       Kinetic energy    (eV) =      12.028657         12.002526
       Potential energy  (eV) =     -79.622754        -79.145828
       Total energy      (eV) =     -67.594097        -67.143302
       Temperature       (K)  =    3001.862947       2995.341623
       Pressure         (GPa) =      22.042472         22.391654
  ** Time :            2.68000 ps :
     Properties:                   Instantaneous       Averaged
       Kinetic energy    (eV) =      12.005491         12.002548
       Potential energy  (eV) =     -79.563902        -79.148948
       Total energy      (eV) =     -67.558411        -67.146400
       Temperature       (K)  =    2996.081599       2995.347145
       Pressure         (GPa) =      21.918912         22.388126
  ** Time :            2.70000 ps :
     Properties:                   Instantaneous       Averaged
       Kinetic energy    (eV) =      12.015052         12.002641
       Potential energy  (eV) =     -79.977035        -79.155082
       Total energy      (eV) =     -67.961983        -67.152441
       Temperature       (K)  =    2998.467599       2995.370260
       Pressure         (GPa) =      21.599954         22.382288
  ** Time :            2.72000 ps :
     Properties:                   Instantaneous       Averaged
       Kinetic energy    (eV) =      11.860601         12.001596
       Potential energy  (eV) =     -78.423410        -79.149702
       Total energy      (eV) =     -66.562810        -67.148106
       Temperature       (K)  =    2959.922889       2995.109617
       Pressure         (GPa) =      23.275372         22.388855
  ** Time :            2.74000 ps :
     Properties:                   Instantaneous       Averaged
       Kinetic energy    (eV) =      11.948565         12.001209
       Potential energy  (eV) =     -75.655050        -79.124193
       Total energy      (eV) =     -63.706486        -67.122984
       Temperature       (K)  =    2981.875081       2995.013015
       Pressure         (GPa) =      25.930130         22.414704
  ** Time :            2.76000 ps :
     Properties:                   Instantaneous       Averaged
       Kinetic energy    (eV) =      12.101489         12.001936
       Potential energy  (eV) =     -76.336568        -79.103993
       Total energy      (eV) =     -64.235079        -67.102057
       Temperature       (K)  =    3020.038894       2995.194362
       Pressure         (GPa) =      25.021845         22.433596
  ** Time :            2.78000 ps :
     Properties:                   Instantaneous       Averaged
       Kinetic energy    (eV) =      12.154411         12.003033
       Potential energy  (eV) =     -79.300173        -79.105405
       Total energy      (eV) =     -67.145762        -67.102372
       Temperature       (K)  =    3033.246058       2995.468115
       Pressure         (GPa) =      21.981892         22.430346
  ** Time :            2.80000 ps :
     Properties:                   Instantaneous       Averaged
       Kinetic energy    (eV) =      11.971969         12.002811
       Potential energy  (eV) =     -80.092576        -79.112456
       Total energy      (eV) =     -68.120607        -67.109645
       Temperature       (K)  =    2987.715896       2995.412742
       Pressure         (GPa) =      21.143186         22.421152
  ** Time :            2.82000 ps :
     Properties:                   Instantaneous       Averaged
       Kinetic energy    (eV) =      11.999780         12.002789
       Potential energy  (eV) =     -79.299531        -79.113783
       Total energy      (eV) =     -67.299752        -67.110993
       Temperature       (K)  =    2994.656314       2995.407377
       Pressure         (GPa) =      22.239271         22.419862
  ** Time :            2.84000 ps :
     Properties:                   Instantaneous       Averaged
       Kinetic energy    (eV) =      11.954561         12.002450
       Potential energy  (eV) =     -79.046679        -79.113310
       Total energy      (eV) =     -67.092118        -67.110860
       Temperature       (K)  =    2983.371590       2995.322618
       Pressure         (GPa) =      22.925919         22.423426
  ** Time :            2.86000 ps :
     Properties:                   Instantaneous       Averaged
       Kinetic energy    (eV) =      12.031783         12.002655
       Potential energy  (eV) =     -77.967483        -79.105297
       Total energy      (eV) =     -65.935700        -67.102642
       Temperature       (K)  =    3002.643056       2995.373810
       Pressure         (GPa) =      23.669636         22.432141
  ** Time :            2.88000 ps :
     Properties:                   Instantaneous       Averaged
       Kinetic energy    (eV) =      12.060311         12.003055
       Potential energy  (eV) =     -79.216983        -79.106073
       Total energy      (eV) =     -67.156672        -67.103018
       Temperature       (K)  =    3009.762466       2995.473731
       Pressure         (GPa) =      21.689316         22.426982
  ** Time :            2.90000 ps :
     Properties:                   Instantaneous       Averaged
       Kinetic energy    (eV) =      12.064648         12.003480
       Potential energy  (eV) =     -80.874768        -79.118271
       Total energy      (eV) =     -68.810120        -67.114791
       Temperature       (K)  =    3010.844788       2995.579739
       Pressure         (GPa) =      19.748014         22.408507
  ** Time :            2.92000 ps :
     Properties:                   Instantaneous       Averaged
       Kinetic energy    (eV) =      12.048544         12.003789
       Potential energy  (eV) =     -81.289403        -79.133141
       Total energy      (eV) =     -69.240859        -67.129353
       Temperature       (K)  =    3006.825897       2995.656767
       Pressure         (GPa) =      19.757770         22.390351
  ** Time :            2.94000 ps :
     Properties:                   Instantaneous       Averaged
       Kinetic energy    (eV) =      11.940587         12.003359
       Potential energy  (eV) =     -81.115043        -79.146624
       Total energy      (eV) =     -69.174456        -67.143265
       Temperature       (K)  =    2979.884110       2995.549470
       Pressure         (GPa) =      20.596388         22.378147
  ** Time :            2.96000 ps :
     Properties:                   Instantaneous       Averaged
       Kinetic energy    (eV) =      12.017046         12.003451
       Potential energy  (eV) =     -80.359360        -79.154818
       Total energy      (eV) =     -68.342313        -67.151367
       Temperature       (K)  =    2998.965385       2995.572551
       Pressure         (GPa) =      21.489498         22.372143
  ** Time :            2.98000 ps :
     Properties:                   Instantaneous       Averaged
       Kinetic energy    (eV) =      11.934856         12.002991
       Potential energy  (eV) =     -79.772056        -79.158960
       Total energy      (eV) =     -67.837200        -67.155970
       Temperature       (K)  =    2978.453928       2995.457660
       Pressure         (GPa) =      21.635002         22.367196
  ** Time :            3.00000 ps :
     Properties:                   Instantaneous       Averaged
       Kinetic energy    (eV) =      12.044187         12.003265
       Potential energy  (eV) =     -79.241496        -79.159511
       Total energy      (eV) =     -67.197309        -67.156245
       Temperature       (K)  =    3005.738561       2995.526200
       Pressure         (GPa) =      22.171820         22.365893
  ** Time :            3.02000 ps :
     Properties:                   Instantaneous       Averaged
       Kinetic energy    (eV) =      12.071685         12.003719
       Potential energy  (eV) =     -80.275587        -79.166902
       Total energy      (eV) =     -68.203902        -67.163183
       Temperature       (K)  =    3012.600828       2995.639277
       Pressure         (GPa) =      21.570521         22.360626
  ** Time :            3.04000 ps :
     Properties:                   Instantaneous       Averaged
       Kinetic energy    (eV) =      12.007514         12.003743
       Potential energy  (eV) =     -81.069210        -79.179417
       Total energy      (eV) =     -69.061696        -67.175674
       Temperature       (K)  =    2996.586482       2995.645508
       Pressure         (GPa) =      20.584492         22.348941
  ** Time :            3.06000 ps :
     Properties:                   Instantaneous       Averaged
       Kinetic energy    (eV) =      11.957977         12.003444
       Potential energy  (eV) =     -80.327397        -79.186920
       Total energy      (eV) =     -68.369420        -67.183476
       Temperature       (K)  =    2984.223969       2995.570858
       Pressure         (GPa) =      20.898021         22.339457
  ** Time :            3.08000 ps :
     Properties:                   Instantaneous       Averaged
       Kinetic energy    (eV) =      11.932752         12.002985
       Potential energy  (eV) =     -79.010988        -79.185778
       Total energy      (eV) =     -67.078235        -67.182793
       Temperature       (K)  =    2977.929042       2995.456301
       Pressure         (GPa) =      22.260215         22.338943
  ** Time :            3.10000 ps :
     Properties:                   Instantaneous       Averaged
       Kinetic energy    (eV) =      12.055873         12.003327
       Potential energy  (eV) =     -78.805863        -79.183327
       Total energy      (eV) =     -66.749990        -67.180000
       Temperature       (K)  =    3008.654980       2995.541453
       Pressure         (GPa) =      22.679187         22.341138
  ** Time :            3.12000 ps :
     Properties:                   Instantaneous       Averaged
       Kinetic energy    (eV) =      12.040541         12.003565
       Potential energy  (eV) =     -79.351175        -79.184403
       Total energy      (eV) =     -67.310634        -67.180838
       Temperature       (K)  =    3004.828655       2995.600987
       Pressure         (GPa) =      21.946336         22.338607
  ** Time :            3.14000 ps :
     Properties:                   Instantaneous       Averaged
       Kinetic energy    (eV) =      12.011965         12.003619
       Potential energy  (eV) =     -80.024037        -79.189751
       Total energy      (eV) =     -68.012071        -67.186132
       Temperature       (K)  =    2997.697382       2995.614340
       Pressure         (GPa) =      21.139022         22.330967
  ** Time :            3.16000 ps :
     Properties:                   Instantaneous       Averaged
       Kinetic energy    (eV) =      11.985199         12.003502
       Potential energy  (eV) =     -79.653802        -79.192688
       Total energy      (eV) =     -67.668603        -67.189186
       Temperature       (K)  =    2991.017443       2995.585245
       Pressure         (GPa) =      21.534502         22.325926
  ** Time :            3.18000 ps :
     Properties:                   Instantaneous       Averaged
       Kinetic energy    (eV) =      11.982710         12.003371
       Potential energy  (eV) =     -79.263940        -79.193136
       Total energy      (eV) =     -67.281230        -67.189765
       Temperature       (K)  =    2990.396528       2995.552612
       Pressure         (GPa) =      22.496631         22.326999
  ** Time :            3.20000 ps :
     Properties:                   Instantaneous       Averaged
       Kinetic energy    (eV) =      12.078807         12.003843
       Potential energy  (eV) =     -79.424484        -79.194582
       Total energy      (eV) =     -67.345676        -67.190739
       Temperature       (K)  =    3014.378366       2995.670273
       Pressure         (GPa) =      22.608882         22.328761
  ** Time :            3.22000 ps :
     Properties:                   Instantaneous       Averaged
       Kinetic energy    (eV) =      12.027017         12.003987
       Potential energy  (eV) =     -80.736986        -79.204162
       Total energy      (eV) =     -68.709969        -67.200175
       Temperature       (K)  =    3001.453552       2995.706194
       Pressure         (GPa) =      21.191940         22.321700
  ** Time :            3.24000 ps :
     Properties:                   Instantaneous       Averaged
       Kinetic energy    (eV) =      11.870466         12.003162
       Potential energy  (eV) =     -79.336814        -79.204981
       Total energy      (eV) =     -67.466347        -67.201818
       Temperature       (K)  =    2962.384955       2995.500507
       Pressure         (GPa) =      22.463152         22.322573
  ** Time :            3.26000 ps :
     Properties:                   Instantaneous       Averaged
       Kinetic energy    (eV) =      12.003974         12.003167
       Potential energy  (eV) =     -77.318139        -79.193405
       Total energy      (eV) =     -65.314164        -67.190238
       Temperature       (K)  =    2995.703070       2995.501750
       Pressure         (GPa) =      24.283001         22.334600
  ** Time :            3.28000 ps :
     Properties:                   Instantaneous       Averaged
       Kinetic energy    (eV) =      12.135528         12.003975
[...]
       Pressure         (GPa) =      22.774497         22.319365
  ** Time :            9.14000 ps :
     Properties:                   Instantaneous       Averaged
       Kinetic energy    (eV) =      11.124785         12.110683
       Potential energy  (eV) =     -78.359261        -79.346910
       Total energy      (eV) =     -67.234475        -67.236228
       Temperature       (K)  =    2776.293308       3022.333157
       Pressure         (GPa) =      23.360371         22.321643
  ** Time :            9.16000 ps :
     Properties:                   Instantaneous       Averaged
       Kinetic energy    (eV) =      11.333321         12.108985
       Potential energy  (eV) =     -78.569473        -79.345213
       Total energy      (eV) =     -67.236152        -67.236228
       Temperature       (K)  =    2828.335269       3021.909580
       Pressure         (GPa) =      23.034118         22.323199
  ** Time :            9.18000 ps :
     Properties:                   Instantaneous       Averaged
       Kinetic energy    (eV) =      11.492852         12.107643
       Potential energy  (eV) =     -78.727375        -79.343867
       Total energy      (eV) =     -67.234523        -67.236224
       Temperature       (K)  =    2868.147710       3021.574587
       Pressure         (GPa) =      22.583452         22.323766
  ** Time :            9.20000 ps :
     Properties:                   Instantaneous       Averaged
       Kinetic energy    (eV) =      12.528391         12.108558
       Potential energy  (eV) =     -79.764537        -79.344781
       Total energy      (eV) =     -67.236145        -67.236224
       Temperature       (K)  =    3126.576185       3021.802852
       Pressure         (GPa) =      21.481424         22.321935
  ** Time :            9.22000 ps :
     Properties:                   Instantaneous       Averaged
       Kinetic energy    (eV) =      12.350753         12.109083
       Potential energy  (eV) =     -79.586538        -79.345306
       Total energy      (eV) =     -67.235786        -67.236223
       Temperature       (K)  =    3082.244832       3021.933962
       Pressure         (GPa) =      21.618387         22.320409
  ** Time :            9.24000 ps :
     Properties:                   Instantaneous       Averaged
       Kinetic energy    (eV) =      12.266737         12.109424
       Potential energy  (eV) =     -79.501233        -79.345643
       Total energy      (eV) =     -67.234495        -67.236219
       Temperature       (K)  =    3061.278065       3022.019123
       Pressure         (GPa) =      21.648366         22.318954
  ** Time :            9.26000 ps :
     Properties:                   Instantaneous       Averaged
       Kinetic energy    (eV) =      12.760856         12.110831
       Potential energy  (eV) =     -79.998321        -79.347053
       Total energy      (eV) =     -67.237464        -67.236222
       Temperature       (K)  =    3184.590030       3022.370248
       Pressure         (GPa) =      21.421764         22.317016
  ** Time :            9.28000 ps :
     Properties:                   Instantaneous       Averaged
       Kinetic energy    (eV) =      10.977655         12.108389
       Potential energy  (eV) =     -78.213411        -79.344610
       Total energy      (eV) =     -67.235755        -67.236221
       Temperature       (K)  =    2739.575713       3021.760777
       Pressure         (GPa) =      23.362414         22.319269
  ** Time :            9.30000 ps :
     Properties:                   Instantaneous       Averaged
       Kinetic energy    (eV) =      11.265657         12.106577
       Potential energy  (eV) =     -78.501970        -79.342798
       Total energy      (eV) =     -67.236313        -67.236221
       Temperature       (K)  =    2811.449217       3021.308494
       Pressure         (GPa) =      23.595527         22.322014
  ** Time :            9.32000 ps :
     Properties:                   Instantaneous       Averaged
       Kinetic energy    (eV) =      13.198978         12.108921
       Potential energy  (eV) =     -80.438595        -79.345149
       Total energy      (eV) =     -67.239618        -67.236228
       Temperature       (K)  =    3293.927297       3021.893513
       Pressure         (GPa) =      22.201126         22.321754
  ** Time :            9.34000 ps :
     Properties:                   Instantaneous       Averaged
       Kinetic energy    (eV) =      11.274872         12.107135
       Potential energy  (eV) =     -78.511902        -79.343365
       Total energy      (eV) =     -67.237030        -67.236230
       Temperature       (K)  =    2813.748848       3021.447807
       Pressure         (GPa) =      23.629525         22.324555
  ** Time :            9.36000 ps :
     Properties:                   Instantaneous       Averaged
       Kinetic energy    (eV) =       9.899976         12.102419
       Potential energy  (eV) =     -77.132399        -79.338641
       Total energy      (eV) =     -67.232423        -67.236222
       Temperature       (K)  =    2470.630911       3020.270848
       Pressure         (GPa) =      24.347692         22.328878
  ** Time :            9.38000 ps :
     Properties:                   Instantaneous       Averaged
       Kinetic energy    (eV) =      13.058650         12.104458
       Potential energy  (eV) =     -80.296791        -79.340684
       Total energy      (eV) =     -67.238141        -67.236226
       Temperature       (K)  =    3258.907225       3020.779667
       Pressure         (GPa) =      21.452355         22.327009
  ** Time :            9.40000 ps :
     Properties:                   Instantaneous       Averaged
       Kinetic energy    (eV) =      13.945675         12.108375
       Potential energy  (eV) =     -81.181599        -79.344601
       Total energy      (eV) =     -67.235924        -67.236225
       Temperature       (K)  =    3480.272536       3021.757312
       Pressure         (GPa) =      20.431829         22.322976
  ** Time :            9.42000 ps :
     Properties:                   Instantaneous       Averaged
       Kinetic energy    (eV) =      13.509434         12.111350
       Potential energy  (eV) =     -80.744905        -79.347574
       Total energy      (eV) =     -67.235471        -67.236224
       Temperature       (K)  =    3371.404462       3022.499662
       Pressure         (GPa) =      20.648716         22.319422
  ** Time :            9.44000 ps :
     Properties:                   Instantaneous       Averaged
       Kinetic energy    (eV) =      12.514993         12.112205
       Potential energy  (eV) =     -79.751238        -79.348429
       Total energy      (eV) =     -67.236245        -67.236224
       Temperature       (K)  =    3123.232568       3022.713079
       Pressure         (GPa) =      21.352924         22.317374
  ** Time :            9.46000 ps :
     Properties:                   Instantaneous       Averaged
       Kinetic energy    (eV) =      10.710033         12.109241
       Potential energy  (eV) =     -77.943425        -79.345458
       Total energy      (eV) =     -67.233392        -67.236218
       Temperature       (K)  =    2672.788011       3021.973280
       Pressure         (GPa) =      23.022075         22.318864
  ** Time :            9.48000 ps :
     Properties:                   Instantaneous       Averaged
       Kinetic energy    (eV) =      10.770066         12.106415
       Potential energy  (eV) =     -78.006832        -79.342634
       Total energy      (eV) =     -67.236766        -67.236219
       Temperature       (K)  =    2687.769829       3021.268209
       Pressure         (GPa) =      23.712669         22.321804
  ** Time :            9.50000 ps :
     Properties:                   Instantaneous       Averaged
       Kinetic energy    (eV) =      10.803322         12.103672
       Potential energy  (eV) =     -78.037948        -79.339888
       Total energy      (eV) =     -67.234626        -67.236216
       Temperature       (K)  =    2696.069274       3020.583580
       Pressure         (GPa) =      23.880880         22.325087
  ** Time :            9.52000 ps :
     Properties:                   Instantaneous       Averaged
       Kinetic energy    (eV) =      11.533461         12.102474
       Potential energy  (eV) =     -78.768992        -79.338688
       Total energy      (eV) =     -67.235530        -67.236214
       Temperature       (K)  =    2878.282218       3020.284628
       Pressure         (GPa) =      22.900822         22.326296
  ** Time :            9.54000 ps :
     Properties:                   Instantaneous       Averaged
       Kinetic energy    (eV) =      12.097646         12.102464
       Potential energy  (eV) =     -79.333877        -79.338678
       Total energy      (eV) =     -67.236231        -67.236214
       Temperature       (K)  =    3019.079694       3020.282102
       Pressure         (GPa) =      22.195201         22.326021
  ** Time :            9.56000 ps :
     Properties:                   Instantaneous       Averaged
       Kinetic energy    (eV) =      12.160689         12.102586
       Potential energy  (eV) =     -79.396177        -79.338798
       Total energy      (eV) =     -67.235488        -67.236213
       Temperature       (K)  =    3034.812630       3020.312500
       Pressure         (GPa) =      22.089731         22.325527
  ** Time :            9.58000 ps :
     Properties:                   Instantaneous       Averaged
       Kinetic energy    (eV) =      11.703150         12.101752
       Potential energy  (eV) =     -78.937237        -79.337960
       Total energy      (eV) =     -67.234087        -67.236208
       Temperature       (K)  =    2920.629720       3020.104394
       Pressure         (GPa) =      22.494345         22.325880
  ** Time :            9.60000 ps :
     Properties:                   Instantaneous       Averaged
       Kinetic energy    (eV) =      12.377092         12.102325
       Potential energy  (eV) =     -79.612612        -79.338532
       Total energy      (eV) =     -67.235520        -67.236207
       Temperature       (K)  =    3088.818207       3020.247548
       Pressure         (GPa) =      21.922866         22.325040
  ** Time :            9.62000 ps :
     Properties:                   Instantaneous       Averaged
       Kinetic energy    (eV) =      12.832641         12.103844
       Potential energy  (eV) =     -80.069207        -79.340051
       Total energy      (eV) =     -67.236565        -67.236208
       Temperature       (K)  =    3202.504682       3020.626461
       Pressure         (GPa) =      21.327061         22.322965
  ** Time :            9.64000 ps :
     Properties:                   Instantaneous       Averaged
       Kinetic energy    (eV) =      11.228380         12.102027
       Potential energy  (eV) =     -78.462832        -79.338231
       Total energy      (eV) =     -67.234452        -67.236204
       Temperature       (K)  =    2802.146394       3020.173183
       Pressure         (GPa) =      22.616345         22.323574
  ** Time :            9.66000 ps :
     Properties:                   Instantaneous       Averaged
       Kinetic energy    (eV) =      10.791859         12.099315
       Potential energy  (eV) =     -78.027175        -79.335517
       Total energy      (eV) =     -67.235315        -67.236202
       Temperature       (K)  =    2693.208529       3019.496237
       Pressure         (GPa) =      23.200097         22.325389
  ** Time :            9.68000 ps :
     Properties:                   Instantaneous       Averaged
       Kinetic energy    (eV) =      11.909222         12.098922
       Potential energy  (eV) =     -79.145616        -79.335125
       Total energy      (eV) =     -67.236395        -67.236202
       Temperature       (K)  =    2972.056678       3019.398222
       Pressure         (GPa) =      22.280137         22.325295
  ** Time :            9.70000 ps :
     Properties:                   Instantaneous       Averaged
       Kinetic energy    (eV) =      12.889495         12.100552
       Potential energy  (eV) =     -80.124446        -79.336752
       Total energy      (eV) =     -67.234952        -67.236200
       Temperature       (K)  =    3216.692940       3019.805015
       Pressure         (GPa) =      21.335565         22.323254
  ** Time :            9.72000 ps :
     Properties:                   Instantaneous       Averaged
       Kinetic energy    (eV) =      13.585838         12.103608
       Potential energy  (eV) =     -80.824861        -79.339814
       Total energy      (eV) =     -67.239022        -67.236206
       Temperature       (K)  =    3390.471951       3020.567704
       Pressure         (GPa) =      20.998107         22.320528
  ** Time :            9.74000 ps :
     Properties:                   Instantaneous       Averaged
       Kinetic energy    (eV) =      10.788977         12.100909
       Potential energy  (eV) =     -78.022549        -79.337109
       Total energy      (eV) =     -67.233572        -67.236200
       Temperature       (K)  =    2692.489253       3019.894032
       Pressure         (GPa) =      23.516186         22.322983
  ** Time :            9.76000 ps :
     Properties:                   Instantaneous       Averaged
       Kinetic energy    (eV) =      11.044385         12.098744
       Potential energy  (eV) =     -78.279813        -79.334943
       Total energy      (eV) =     -67.235427        -67.236199
       Temperature       (K)  =    2756.228789       3019.353734
       Pressure         (GPa) =      23.542553         22.325482
  ** Time :            9.78000 ps :
     Properties:                   Instantaneous       Averaged
       Kinetic energy    (eV) =      12.820146         12.100219
       Potential energy  (eV) =     -80.057249        -79.336420
       Total energy      (eV) =     -67.237103        -67.236201
       Temperature       (K)  =    3199.386400       3019.721899
       Pressure         (GPa) =      22.255200         22.325338
  ** Time :            9.80000 ps :
     Properties:                   Instantaneous       Averaged
       Kinetic energy    (eV) =      12.475216         12.100984
       Potential energy  (eV) =     -79.712582        -79.337187
       Total energy      (eV) =     -67.237366        -67.236203
       Temperature       (K)  =    3113.305748       3019.912887
       Pressure         (GPa) =      22.664409         22.326030
  ** Time :            9.82000 ps :
     Properties:                   Instantaneous       Averaged
       Kinetic energy    (eV) =      11.622956         12.100011
       Potential energy  (eV) =     -78.855442        -79.336206
       Total energy      (eV) =     -67.232487        -67.236195
       Temperature       (K)  =    2900.616427       3019.669920
       Pressure         (GPa) =      23.217753         22.327846
  ** Time :            9.84000 ps :
     Properties:                   Instantaneous       Averaged
       Kinetic energy    (eV) =      13.922319         12.103715
       Potential energy  (eV) =     -81.160352        -79.339914
       Total energy      (eV) =     -67.238033        -67.236199
       Temperature       (K)  =    3474.443842       3020.594257
       Pressure         (GPa) =      21.019428         22.325187
  ** Time :            9.86000 ps :
     Properties:                   Instantaneous       Averaged
       Kinetic energy    (eV) =      13.588342         12.106726
       Potential energy  (eV) =     -80.826004        -79.342928
       Total energy      (eV) =     -67.237662        -67.236202
       Temperature       (K)  =    3391.096865       3021.345784
       Pressure         (GPa) =      21.393956         22.323298
  ** Time :            9.88000 ps :
     Properties:                   Instantaneous       Averaged
       Kinetic energy    (eV) =      11.537582         12.105574
       Potential energy  (eV) =     -78.771303        -79.341771
       Total energy      (eV) =     -67.233721        -67.236197
       Temperature       (K)  =    2879.310621       3021.058263
       Pressure         (GPa) =      23.409052         22.325496
  ** Time :            9.90000 ps :
     Properties:                   Instantaneous       Averaged
       Kinetic energy    (eV) =      12.327374         12.106022
       Potential energy  (eV) =     -79.564759        -79.342222
       Total energy      (eV) =     -67.237385        -67.236199
       Temperature       (K)  =    3076.410542       3021.170086
       Pressure         (GPa) =      22.710227         22.326273
  ** Time :            9.92000 ps :
     Properties:                   Instantaneous       Averaged
       Kinetic energy    (eV) =      11.811035         12.105427
       Potential energy  (eV) =     -79.048993        -79.341630
       Total energy      (eV) =     -67.237958        -67.236203
       Temperature       (K)  =    2947.553297       3021.021665
       Pressure         (GPa) =      22.907336         22.327445
  ** Time :            9.94000 ps :
     Properties:                   Instantaneous       Averaged
       Kinetic energy    (eV) =      10.315911         12.101827
       Potential energy  (eV) =     -77.548212        -79.338022
       Total energy      (eV) =     -67.232301        -67.236195
       Temperature       (K)  =    2574.431171       3020.123093
       Pressure         (GPa) =      23.902596         22.330614
  ** Time :            9.96000 ps :
     Properties:                   Instantaneous       Averaged
       Kinetic energy    (eV) =      12.250679         12.102126
       Potential energy  (eV) =     -79.490366        -79.338328
       Total energy      (eV) =     -67.239687        -67.236202
       Temperature       (K)  =    3057.270460       3020.197686
       Pressure         (GPa) =      22.726744         22.331409
  ** Time :            9.98000 ps :
     Properties:                   Instantaneous       Averaged
       Kinetic energy    (eV) =      11.435298         12.100789
       Potential energy  (eV) =     -78.670097        -79.336989
       Total energy      (eV) =     -67.234799        -67.236199
       Temperature       (K)  =    2853.784649       3019.864193
       Pressure         (GPa) =      23.538683         22.333829
  ** Time :           10.00000 ps :
     Properties:                   Instantaneous       Averaged
       Kinetic energy    (eV) =      11.011359         12.098610
       Potential energy  (eV) =     -78.247031        -79.334809
       Total energy      (eV) =     -67.235673        -67.236198
       Temperature       (K)  =    2747.986707       3019.320438
       Pressure         (GPa) =      24.015761         22.337193

  Peak dynamic memory used =       0.57 MB 


  Timing analysis for GULP :

--------------------------------------------------------------------------------
  Task / Subroutine                                          Time (Seconds)
--------------------------------------------------------------------------------
  Calculation of real space energy and derivatives               10.7160
  Calculation of many-body energy and derivatives                 5.5280
  Molecular dynamics - update of geometry                         0.0320
  Molecular dynamics - predictor                                  0.0040
  Molecular dynamics - corrector                                  0.0040
  Molecular dynamics - velocity correction                        0.0040
--------------------------------------------------------------------------------
  Total CPU time                                                 16.5160
--------------------------------------------------------------------------------


  Dump file written as Recovery_2_3000_0.002.res                               
  GULP ASCII trajectory file written as Trajectories_2_3000_0.002.trg           


  Job Finished at 17:40.24 17th May        2018                               

