********************************************************************************
*                       GENERAL UTILITY LATTICE PROGRAM                        *
*                                 Julian Gale                                  *
*                       Curtin Institute for Computation                       *
*                           Department of Chemistry                            *
*                    Curtin University, Western Australia                      *
********************************************************************************
* Version = 5.0.0 * Last modified =  18th April 2018                           *
********************************************************************************
*  single       - perform a single point run                                   *
*  md           - perform molecular dynamics run                               *
*  conv         - constant volume calculation                                  *
********************************************************************************
* molecular dynamics of silver                                                 *
********************************************************************************


  Job Started  at 17:39.35 17th May        2018                               

  Number of CPUs =     1


  Total number of configurations input =   1

********************************************************************************
*  Input for Configuration =   1                                               *
********************************************************************************

  Formula = Ag32                                                        

  Number of irreducible atoms/shells =      32


  Total number atoms/shells =      32

  Dimensionality = 3               :  Bulk   



  Supercell dimensions :  x =   2  y =   2  z =   2

  Cartesian lattice vectors (Angstroms) :

        8.170000    0.000000    0.000000
        0.000000    8.170000    0.000000
        0.000000    0.000000    8.170000

  Cell parameters (Angstroms/Degrees):

  a =       8.1700    alpha =  90.0000
  b =       8.1700    beta  =  90.0000
  c =       8.1700    gamma =  90.0000

  Initial cell volume =         545.338513 Angs**3

  Temperature of configuration =  3000.     K 

  Pressure of configuration =         0.000 GPa 

  Fractional coordinates of asymmetric unit :

--------------------------------------------------------------------------------
   No.  Atomic       x           y          z         Charge      Occupancy
        Label      (Frac)      (Frac)     (Frac)        (e)         (Frac)  
--------------------------------------------------------------------------------
      1 Ag    c    0.000000 *  0.000000 *  0.000000 *   0.00000    1.000000    
      2 Ag    c    0.000000 *  0.000000 *  0.500000 *   0.00000    1.000000    
      3 Ag    c    0.000000 *  0.500000 *  0.000000 *   0.00000    1.000000    
      4 Ag    c    0.000000 *  0.500000 *  0.500000 *   0.00000    1.000000    
      5 Ag    c    0.500000 *  0.000000 *  0.000000 *   0.00000    1.000000    
      6 Ag    c    0.500000 *  0.000000 *  0.500000 *   0.00000    1.000000    
      7 Ag    c    0.500000 *  0.500000 *  0.000000 *   0.00000    1.000000    
      8 Ag    c    0.500000 *  0.500000 *  0.500000 *   0.00000    1.000000    
      9 Ag    c    0.000000 *  0.250000 *  0.250000 *   0.00000    1.000000    
     10 Ag    c    0.000000 *  0.250000 *  0.750000 *   0.00000    1.000000    
     11 Ag    c    0.000000 *  0.750000 *  0.250000 *   0.00000    1.000000    
     12 Ag    c    0.000000 *  0.750000 *  0.750000 *   0.00000    1.000000    
     13 Ag    c    0.500000 *  0.250000 *  0.250000 *   0.00000    1.000000    
     14 Ag    c    0.500000 *  0.250000 *  0.750000 *   0.00000    1.000000    
     15 Ag    c    0.500000 *  0.750000 *  0.250000 *   0.00000    1.000000    
     16 Ag    c    0.500000 *  0.750000 *  0.750000 *   0.00000    1.000000    
     17 Ag    c    0.250000 *  0.000000 *  0.250000 *   0.00000    1.000000    
     18 Ag    c    0.250000 *  0.000000 *  0.750000 *   0.00000    1.000000    
     19 Ag    c    0.250000 *  0.500000 *  0.250000 *   0.00000    1.000000    
     20 Ag    c    0.250000 *  0.500000 *  0.750000 *   0.00000    1.000000    
     21 Ag    c    0.750000 *  0.000000 *  0.250000 *   0.00000    1.000000    
     22 Ag    c    0.750000 *  0.000000 *  0.750000 *   0.00000    1.000000    
     23 Ag    c    0.750000 *  0.500000 *  0.250000 *   0.00000    1.000000    
     24 Ag    c    0.750000 *  0.500000 *  0.750000 *   0.00000    1.000000    
     25 Ag    c    0.250000 *  0.250000 *  0.000000 *   0.00000    1.000000    
     26 Ag    c    0.250000 *  0.250000 *  0.500000 *   0.00000    1.000000    
     27 Ag    c    0.250000 *  0.750000 *  0.000000 *   0.00000    1.000000    
     28 Ag    c    0.250000 *  0.750000 *  0.500000 *   0.00000    1.000000    
     29 Ag    c    0.750000 *  0.250000 *  0.000000 *   0.00000    1.000000    
     30 Ag    c    0.750000 *  0.250000 *  0.500000 *   0.00000    1.000000    
     31 Ag    c    0.750000 *  0.750000 *  0.000000 *   0.00000    1.000000    
     32 Ag    c    0.750000 *  0.750000 *  0.500000 *   0.00000    1.000000    
--------------------------------------------------------------------------------



********************************************************************************
*  General input information                                                   *
********************************************************************************

  Species output for all configurations : 

--------------------------------------------------------------------------------
  Species    Type    Atomic    Atomic    Charge       Radii (Angs)     Library
                     Number     Mass       (e)     Cova   Ionic  VDW   Symbol
--------------------------------------------------------------------------------
    Ag       Core       47     107.87   0.000000   1.590  0.000  2.370          
--------------------------------------------------------------------------------


  Lattice summation method               =    Ewald          (3-D)
                                         =    Parry          (2-D)
                                         =    Saunders et al (1-D)
  Accuracy factor for lattice sums       =   12.000


  Time limit = Infinity

  Maximum range for interatomic potentials =    100000.000000 Angstroms

  General interatomic potentials :

--------------------------------------------------------------------------------
Atom  Types   Potential      Parameter       Value         Units   Cutoffs(Ang)
  1     2                                                            Min /  Max 
--------------------------------------------------------------------------------
Ag   c Ag   c Many-body                                             0.000  8.000
--------------------------------------------------------------------------------
Ag   c Ag   c Buckingham    Buckingham A     11454.950    eV        0.000 12.000
                            Buckingham rho  0.26432400    Ang       
                            Buckingham C     0.0000000    eV*Ang^6  
--------------------------------------------------------------------------------

  Embedded Atom Model Densities :

--------------------------------------------------------------------------------
  Atom(s)       Functional Form          A          B          C         n      
--------------------------------------------------------------------------------
  Ag   c        Exponential          1.388      2.173      2.889         0
--------------------------------------------------------------------------------


  Embedded Atom Model alloy parameters :

--------------------------------------------------------------------------------
  Atom(s)                          Scale factor 
--------------------------------------------------------------------------------
  Ag    c                            1.000000
--------------------------------------------------------------------------------

  Embedded Atom Model functional = Square Root

--------------------------------------------------------------------------------
  Atom                     A     
--------------------------------------------------------------------------------
  Ag    c               1.000000
--------------------------------------------------------------------------------


  Manybody second derivative cross term cutoffs to be scale by = 0.50000000

********************************************************************************
*  Output for configuration   1                                                *
********************************************************************************


  Components of energy : 

--------------------------------------------------------------------------------
  Interatomic potentials     =          39.71625760 eV    
  Many-body potentials       =        -134.45860512 eV    
  Monopole - monopole (real) =           0.00000000 eV    
  Monopole - monopole (recip)=           0.00000000 eV    
  Monopole - monopole (total)=           0.00000000 eV    
--------------------------------------------------------------------------------
  Total lattice energy       =         -94.74234752 eV    
--------------------------------------------------------------------------------
  Total lattice energy       =           -9141.1883 kJ/(mole unit cells)
--------------------------------------------------------------------------------

  Equations of motion will be integrated using the leapfrog Verlet algorithm.

********************************************************************************
*  Molecular Dynamics                                                          *
********************************************************************************

  Microcanonical ensemble (NVE) to be used

  No. of mobile ions        =                 32

  No. of degrees of freedom =                 93

  Time step                 =           0.001000 ps
  Equilibration time        =           5.000000 ps
  Production time           =          10.000000 ps
  Scaling time              =           5.000000 ps
  Scaling frequency         =           0.001000 ps
  Sampling frequency        =           0.020000 ps
  Write frequency           =           0.020000 ps
  TD-Force start time       =           0.000000 ps
  TD-Field start time       =           0.000000 ps



  Molecular dynamics equilibration :

  ** Time :            0.02000 ps :
     Properties:                   Instantaneous       Averaged
       Kinetic energy    (eV) =      11.891189         11.891189
       Potential energy  (eV) =     -92.455477        -92.455477
       Total energy      (eV) =     -80.564288        -80.564288
       Temperature       (K)  =    2967.556385       2967.556385
       Pressure         (GPa) =       5.531935          5.531935
  ** Time :            0.04000 ps :
     Properties:                   Instantaneous       Averaged
       Kinetic energy    (eV) =      11.781311         11.836250
       Potential energy  (eV) =     -84.389200        -88.422338
       Total energy      (eV) =     -72.607888        -76.586088
       Temperature       (K)  =    2940.135533       2953.845959
       Pressure         (GPa) =      15.385830         10.458883
  ** Time :            0.06000 ps :
     Properties:                   Instantaneous       Averaged
       Kinetic energy    (eV) =      12.034542         11.902347
       Potential energy  (eV) =     -80.063470        -85.636049
       Total energy      (eV) =     -68.028928        -73.733701
       Temperature       (K)  =    3003.331617       2970.341178
       Pressure         (GPa) =      20.884851         13.934205
  ** Time :            0.08000 ps :
     Properties:                   Instantaneous       Averaged
       Kinetic energy    (eV) =      11.999269         11.926578
       Potential energy  (eV) =     -80.712676        -84.405206
       Total energy      (eV) =     -68.713407        -72.478628
       Temperature       (K)  =    2994.528789       2976.388081
       Pressure         (GPa) =      20.298785         15.525350
  ** Time :            0.10000 ps :
     Properties:                   Instantaneous       Averaged
       Kinetic energy    (eV) =      11.995219         11.940306
       Potential energy  (eV) =     -79.495280        -83.423220
       Total energy      (eV) =     -67.500060        -71.482914
       Temperature       (K)  =    2993.518207       2979.814106
       Pressure         (GPa) =      21.548537         16.729988
  ** Time :            0.12000 ps :
     Properties:                   Instantaneous       Averaged
       Kinetic energy    (eV) =      11.973470         11.945833
       Potential energy  (eV) =     -78.424397        -82.590083
       Total energy      (eV) =     -66.450927        -70.644250
       Temperature       (K)  =    2988.090407       2981.193490
       Pressure         (GPa) =      23.124844         17.795797
  ** Time :            0.14000 ps :
     Properties:                   Instantaneous       Averaged
       Kinetic energy    (eV) =      11.968658         11.949094
       Potential energy  (eV) =     -75.969100        -81.644228
       Total energy      (eV) =     -64.000443        -69.695135
       Temperature       (K)  =    2986.889529       2982.007210
       Pressure         (GPa) =      25.601196         18.910854
  ** Time :            0.16000 ps :
     Properties:                   Instantaneous       Averaged
       Kinetic energy    (eV) =      12.100727         11.968048
       Potential energy  (eV) =     -77.000542        -81.063768
       Total energy      (eV) =     -64.899815        -69.095720
       Temperature       (K)  =    3019.848573       2986.737380
       Pressure         (GPa) =      24.550062         19.615755
  ** Time :            0.18000 ps :
     Properties:                   Instantaneous       Averaged
       Kinetic energy    (eV) =      12.050416         11.977200
       Potential energy  (eV) =     -79.818989        -80.925459
       Total energy      (eV) =     -67.768573        -68.948259
       Temperature       (K)  =    3007.293072       2989.021346
       Pressure         (GPa) =      21.571032         19.833008
  ** Time :            0.20000 ps :
     Properties:                   Instantaneous       Averaged
       Kinetic energy    (eV) =      12.001359         11.979616
       Potential energy  (eV) =     -79.830021        -80.815915
       Total energy      (eV) =     -67.828661        -68.836299
       Temperature       (K)  =    2995.050525       2989.624264
       Pressure         (GPa) =      21.275637         19.977271
  ** Time :            0.22000 ps :
     Properties:                   Instantaneous       Averaged
       Kinetic energy    (eV) =      12.025970         11.983830
       Potential energy  (eV) =     -79.536946        -80.699645
       Total energy      (eV) =     -67.510976        -68.715815
       Temperature       (K)  =    3001.192401       2990.675913
       Pressure         (GPa) =      21.442511         20.110475
  ** Time :            0.24000 ps :
     Properties:                   Instantaneous       Averaged
       Kinetic energy    (eV) =      12.039851         11.988498
       Potential energy  (eV) =     -80.204140        -80.658353
       Total energy      (eV) =     -68.164289        -68.669855
       Temperature       (K)  =    3004.656436       2991.840956
       Pressure         (GPa) =      20.794856         20.167506
  ** Time :            0.26000 ps :
     Properties:                   Instantaneous       Averaged
       Kinetic energy    (eV) =      12.003474         11.989650
       Potential energy  (eV) =     -80.309636        -80.631529
       Total energy      (eV) =     -68.306162        -68.641878
       Temperature       (K)  =    2995.578190       2992.128436
       Pressure         (GPa) =      20.616271         20.202027
  ** Time :            0.28000 ps :
     Properties:                   Instantaneous       Averaged
       Kinetic energy    (eV) =      12.041006         11.993319
       Potential energy  (eV) =     -80.450979        -80.618632
       Total energy      (eV) =     -68.409973        -68.625314
       Temperature       (K)  =    3004.944629       2993.043878
       Pressure         (GPa) =      20.471181         20.221252
  ** Time :            0.30000 ps :
     Properties:                   Instantaneous       Averaged
       Kinetic energy    (eV) =      11.946077         11.990169
       Potential energy  (eV) =     -79.846935        -80.567186
       Total energy      (eV) =     -67.900857        -68.577017
       Temperature       (K)  =    2981.254414       2992.257914
       Pressure         (GPa) =      21.573097         20.311375
  ** Time :            0.32000 ps :
     Properties:                   Instantaneous       Averaged
       Kinetic energy    (eV) =      11.958763         11.988206
       Potential energy  (eV) =     -75.993591        -80.281336
       Total energy      (eV) =     -64.034828        -68.293130
       Temperature       (K)  =    2984.420303       2991.768063
       Pressure         (GPa) =      25.723205         20.649614
  ** Time :            0.34000 ps :
     Properties:                   Instantaneous       Averaged
       Kinetic energy    (eV) =      12.074841         11.993302
       Potential energy  (eV) =     -77.450000        -80.114787
       Total energy      (eV) =     -65.375159        -68.121484
       Temperature       (K)  =    3013.388651       2993.039862
       Pressure         (GPa) =      24.362156         20.867999
  ** Time :            0.36000 ps :
     Properties:                   Instantaneous       Averaged
       Kinetic energy    (eV) =      11.991126         11.993182
       Potential energy  (eV) =     -77.123383        -79.948598
       Total energy      (eV) =     -65.132256        -67.955416
       Temperature       (K)  =    2992.496764       2993.009690
       Pressure         (GPa) =      24.281732         21.057651
  ** Time :            0.38000 ps :
     Properties:                   Instantaneous       Averaged
       Kinetic energy    (eV) =      12.066111         11.997020
       Potential energy  (eV) =     -77.919896        -79.841824
       Total energy      (eV) =     -65.853785        -67.844804
       Temperature       (K)  =    3011.209827       2993.967592
       Pressure         (GPa) =      23.602827         21.191608
  ** Time :            0.40000 ps :
     Properties:                   Instantaneous       Averaged
       Kinetic energy    (eV) =      11.997509         11.997044
       Potential energy  (eV) =     -78.764699        -79.787968
       Total energy      (eV) =     -66.767190        -67.790923
       Temperature       (K)  =    2994.089703       2993.973698
       Pressure         (GPa) =      23.101265         21.287091
  ** Time :            0.42000 ps :
     Properties:                   Instantaneous       Averaged
       Kinetic energy    (eV) =      11.987850         11.996607
       Potential energy  (eV) =     -77.206641        -79.665047
       Total energy      (eV) =     -65.218791        -67.668441
       Temperature       (K)  =    2991.679255       2993.864439
       Pressure         (GPa) =      24.570774         21.443456
  ** Time :            0.44000 ps :
     Properties:                   Instantaneous       Averaged
       Kinetic energy    (eV) =      12.068815         11.999889
       Potential energy  (eV) =     -77.769630        -79.578892
       Total energy      (eV) =     -65.700816        -67.579003
       Temperature       (K)  =    3011.884688       2994.683541
       Pressure         (GPa) =      23.534493         21.538504
  ** Time :            0.46000 ps :
     Properties:                   Instantaneous       Averaged
       Kinetic energy    (eV) =      11.994180         11.999641
       Potential energy  (eV) =     -78.868698        -79.548014
       Total energy      (eV) =     -66.874517        -67.548373
       Temperature       (K)  =    2993.258955       2994.621602
       Pressure         (GPa) =      22.298712         21.571556
  ** Time :            0.48000 ps :
     Properties:                   Instantaneous       Averaged
       Kinetic energy    (eV) =      12.016862         12.000358
       Potential energy  (eV) =     -77.518546        -79.463453
       Total energy      (eV) =     -65.501685        -67.463095
       Temperature       (K)  =    2998.919234       2994.800670
       Pressure         (GPa) =      23.602333         21.656172
  ** Time :            0.50000 ps :
     Properties:                   Instantaneous       Averaged
       Kinetic energy    (eV) =      12.064914         12.002940
       Potential energy  (eV) =     -78.960151        -79.443321
       Total energy      (eV) =     -66.895237        -67.440380
       Temperature       (K)  =    3010.911284       2995.445095
       Pressure         (GPa) =      22.248628         21.679870
  ** Time :            0.52000 ps :
     Properties:                   Instantaneous       Averaged
       Kinetic energy    (eV) =      11.998949         12.002787
       Potential energy  (eV) =     -79.586030        -79.448810
       Total energy      (eV) =     -67.587081        -67.446023
       Temperature       (K)  =    2994.448931       2995.406781
       Pressure         (GPa) =      21.621781         21.677636
  ** Time :            0.54000 ps :
     Properties:                   Instantaneous       Averaged
       Kinetic energy    (eV) =      12.025113         12.003614
       Potential energy  (eV) =     -78.775395        -79.423868
       Total energy      (eV) =     -66.750281        -67.420255
       Temperature       (K)  =    3000.978538       2995.613142
       Pressure         (GPa) =      22.788024         21.718761
  ** Time :            0.56000 ps :
     Properties:                   Instantaneous       Averaged
       Kinetic energy    (eV) =      12.039932         12.004911
       Potential energy  (eV) =     -79.904960        -79.441050
       Total energy      (eV) =     -67.865028        -67.436139
       Temperature       (K)  =    3004.676666       2995.936840
       Pressure         (GPa) =      22.020021         21.729521
  ** Time :            0.58000 ps :
     Properties:                   Instantaneous       Averaged
       Kinetic energy    (eV) =      11.993355         12.004512
       Potential energy  (eV) =     -79.754220        -79.451849
       Total energy      (eV) =     -67.760866        -67.447337
       Temperature       (K)  =    2993.052908       2995.837394
       Pressure         (GPa) =      22.024873         21.739705
  ** Time :            0.60000 ps :
     Properties:                   Instantaneous       Averaged
       Kinetic energy    (eV) =      12.037742         12.005620
       Potential energy  (eV) =     -79.268229        -79.445728
       Total energy      (eV) =     -67.230488        -67.440108
       Temperature       (K)  =    3004.130068       2996.113816
       Pressure         (GPa) =      22.285203         21.757888
  ** Time :            0.62000 ps :
     Properties:                   Instantaneous       Averaged
       Kinetic energy    (eV) =      12.021874         12.006144
       Potential energy  (eV) =     -80.512697        -79.480147
       Total energy      (eV) =     -68.490823        -67.474002
       Temperature       (K)  =    3000.170150       2996.244666
       Pressure         (GPa) =      20.944761         21.731659
  ** Time :            0.64000 ps :
     Properties:                   Instantaneous       Averaged
       Kinetic energy    (eV) =      11.975600         12.005190
       Potential energy  (eV) =     -79.087516        -79.467877
       Total energy      (eV) =     -67.111916        -67.462687
       Temperature       (K)  =    2988.621960       2996.006456
       Pressure         (GPa) =      22.317875         21.749978
  ** Time :            0.66000 ps :
     Properties:                   Instantaneous       Averaged
       Kinetic energy    (eV) =      12.046546         12.006443
       Potential energy  (eV) =     -78.953071        -79.452277
       Total energy      (eV) =     -66.906525        -67.445834
       Temperature       (K)  =    3006.327341       2996.319210
       Pressure         (GPa) =      22.936758         21.785941
  ** Time :            0.68000 ps :
     Properties:                   Instantaneous       Averaged
       Kinetic energy    (eV) =      12.009012         12.006519
       Potential energy  (eV) =     -79.394053        -79.450564
       Total energy      (eV) =     -67.385041        -67.444046
       Temperature       (K)  =    2996.960403       2996.338069
       Pressure         (GPa) =      23.012943         21.822029
  ** Time :            0.70000 ps :
     Properties:                   Instantaneous       Averaged
       Kinetic energy    (eV) =      12.002901         12.006415
       Potential energy  (eV) =     -79.049956        -79.439118
       Total energy      (eV) =     -67.047055        -67.432703
       Temperature       (K)  =    2995.435187       2996.312272
       Pressure         (GPa) =      23.725962         21.876427
  ** Time :            0.72000 ps :
     Properties:                   Instantaneous       Averaged
       Kinetic energy    (eV) =      11.996982         12.006153
       Potential energy  (eV) =     -77.961570        -79.398075
       Total energy      (eV) =     -65.964588        -67.391922
       Temperature       (K)  =    2993.958179       2996.246881
       Pressure         (GPa) =      25.006802         21.963382
  ** Time :            0.74000 ps :
     Properties:                   Instantaneous       Averaged
       Kinetic energy    (eV) =      11.993096         12.005800
       Potential energy  (eV) =     -77.249909        -79.340017
       Total energy      (eV) =     -65.256813        -67.334217
       Temperature       (K)  =    2992.988322       2996.158812
       Pressure         (GPa) =      25.548275         22.060271
  ** Time :            0.76000 ps :
     Properties:                   Instantaneous       Averaged
       Kinetic energy    (eV) =      12.075136         12.007625
       Potential energy  (eV) =     -77.587371        -79.293895
       Total energy      (eV) =     -65.512235        -67.286270
       Temperature       (K)  =    3013.462139       2996.614162
       Pressure         (GPa) =      24.474184         22.123795
  ** Time :            0.78000 ps :
     Properties:                   Instantaneous       Averaged
       Kinetic energy    (eV) =      12.024481         12.008057
       Potential energy  (eV) =     -79.666205        -79.303441
       Total energy      (eV) =     -67.641724        -67.295384
       Temperature       (K)  =    3000.820726       2996.722023
       Pressure         (GPa) =      22.136431         22.124119
  ** Time :            0.80000 ps :
     Properties:                   Instantaneous       Averaged
       Kinetic energy    (eV) =      11.972998         12.007181
       Potential energy  (eV) =     -78.342122        -79.279408
       Total energy      (eV) =     -66.369123        -67.272227
       Temperature       (K)  =    2987.972753       2996.503291
       Pressure         (GPa) =      23.567660         22.160208
  ** Time :            0.82000 ps :
     Properties:                   Instantaneous       Averaged
       Kinetic energy    (eV) =      11.992708         12.006828
       Potential energy  (eV) =     -76.891396        -79.221164
       Total energy      (eV) =     -64.898688        -67.214336
       Temperature       (K)  =    2992.891457       2996.415198
       Pressure         (GPa) =      25.043194         22.230524
  ** Time :            0.84000 ps :
     Properties:                   Instantaneous       Averaged
       Kinetic energy    (eV) =      11.996585         12.006584
       Potential energy  (eV) =     -76.378387        -79.153479
       Total energy      (eV) =     -64.381802        -67.146895
       Temperature       (K)  =    2993.859132       2996.354339
       Pressure         (GPa) =      25.519842         22.308841
  ** Time :            0.86000 ps :
     Properties:                   Instantaneous       Averaged
       Kinetic energy    (eV) =      12.006047         12.006571
       Potential energy  (eV) =     -75.253837        -79.062789
       Total energy      (eV) =     -63.247790        -67.056218
       Temperature       (K)  =    2996.220260       2996.351221
       Pressure         (GPa) =      26.766828         22.412516
  ** Time :            0.88000 ps :
     Properties:                   Instantaneous       Averaged
       Kinetic energy    (eV) =      12.112094         12.008970
       Potential energy  (eV) =     -77.150861        -79.019336
       Total energy      (eV) =     -65.038767        -67.010367
       Temperature       (K)  =    3022.685399       2996.949725
       Pressure         (GPa) =      24.831691         22.467497
  ** Time :            0.90000 ps :
     Properties:                   Instantaneous       Averaged
       Kinetic energy    (eV) =      12.048145         12.009840
       Potential energy  (eV) =     -80.115872        -79.043704
       Total energy      (eV) =     -68.067728        -67.033864
       Temperature       (K)  =    3006.726217       2997.166980
       Pressure         (GPa) =      21.470653         22.445345
  ** Time :            0.92000 ps :
     Properties:                   Instantaneous       Averaged
       Kinetic energy    (eV) =      11.941962         12.008365
       Potential energy  (eV) =     -79.128125        -79.045539
       Total energy      (eV) =     -67.186163        -67.037175
       Temperature       (K)  =    2980.227381       2996.798728
       Pressure         (GPa) =      22.219381         22.440432
  ** Time :            0.94000 ps :
     Properties:                   Instantaneous       Averaged
       Kinetic energy    (eV) =      12.079700         12.009882
       Potential energy  (eV) =     -78.146377        -79.026408
       Total energy      (eV) =     -66.066677        -67.016526
       Temperature       (K)  =    3014.601074       2997.177501
       Pressure         (GPa) =      23.296661         22.458650
  ** Time :            0.96000 ps :
     Properties:                   Instantaneous       Averaged
       Kinetic energy    (eV) =      12.038107         12.010470
       Potential energy  (eV) =     -80.102106        -79.048818
       Total energy      (eV) =     -68.063999        -67.038348
       Temperature       (K)  =    3004.221241       2997.324246
       Pressure         (GPa) =      21.373165         22.436036
  ** Time :            0.98000 ps :
     Properties:                   Instantaneous       Averaged
       Kinetic energy    (eV) =      12.051425         12.011306
       Potential energy  (eV) =     -81.308261        -79.094930
       Total energy      (eV) =     -69.256836        -67.083623
       Temperature       (K)  =    3007.544956       2997.532832
       Pressure         (GPa) =      20.021568         22.386761
  ** Time :            1.00000 ps :
     Properties:                   Instantaneous       Averaged
       Kinetic energy    (eV) =      12.003166         12.011143
       Potential energy  (eV) =     -81.621887        -79.145469
       Total energy      (eV) =     -69.618721        -67.134325
       Temperature       (K)  =    2995.501391       2997.492203
       Pressure         (GPa) =      19.675979         22.332545
  ** Time :            1.02000 ps :
     Properties:                   Instantaneous       Averaged
       Kinetic energy    (eV) =      11.971555         12.010367
       Potential energy  (eV) =     -79.995920        -79.162144
       Total energy      (eV) =     -68.024365        -67.151777
       Temperature       (K)  =    2987.612675       2997.298487
       Pressure         (GPa) =      21.201538         22.310369
  ** Time :            1.04000 ps :
     Properties:                   Instantaneous       Averaged
       Kinetic energy    (eV) =      12.075120         12.011612
       Potential energy  (eV) =     -80.675637        -79.191250
       Total energy      (eV) =     -68.600517        -67.179637
       Temperature       (K)  =    3013.458070       2997.609248
       Pressure         (GPa) =      20.503521         22.275622
  ** Time :            1.06000 ps :
     Properties:                   Instantaneous       Averaged
       Kinetic energy    (eV) =      12.022464         12.011817
       Potential energy  (eV) =     -82.010218        -79.244438
       Total energy      (eV) =     -69.987754        -67.232621
       Temperature       (K)  =    3000.317430       2997.660346
       Pressure         (GPa) =      19.086117         22.215442
  ** Time :            1.08000 ps :
     Properties:                   Instantaneous       Averaged
       Kinetic energy    (eV) =      11.985171         12.011324
       Potential energy  (eV) =     -81.343595        -79.283311
       Total energy      (eV) =     -69.358423        -67.271988
       Temperature       (K)  =    2991.010632       2997.537203
       Pressure         (GPa) =      20.072230         22.175753
  ** Time :            1.10000 ps :
     Properties:                   Instantaneous       Averaged
       Kinetic energy    (eV) =      11.968061         12.010537
       Potential energy  (eV) =     -79.399784        -79.285429
       Total energy      (eV) =     -67.431723        -67.274892
       Temperature       (K)  =    2986.740577       2997.340901
       Pressure         (GPa) =      22.475236         22.181198
  ** Time :            1.12000 ps :
     Properties:                   Instantaneous       Averaged
       Kinetic energy    (eV) =      12.030086         12.010886
       Potential energy  (eV) =     -78.517951        -79.271724
       Total energy      (eV) =     -66.487865        -67.260838
       Temperature       (K)  =    3002.219482       2997.428018
       Pressure         (GPa) =      23.169979         22.198855
  ** Time :            1.14000 ps :
     Properties:                   Instantaneous       Averaged
       Kinetic energy    (eV) =      12.031898         12.011255
       Potential energy  (eV) =     -79.424147        -79.274398
       Total energy      (eV) =     -67.392249        -67.263143
       Temperature       (K)  =    3002.671819       2997.520015
       Pressure         (GPa) =      21.867030         22.193034
  ** Time :            1.16000 ps :
     Properties:                   Instantaneous       Averaged
       Kinetic energy    (eV) =      12.052000         12.011957
       Potential energy  (eV) =     -80.352994        -79.292994
       Total energy      (eV) =     -68.300993        -67.281037
       Temperature       (K)  =    3007.688490       2997.695333
       Pressure         (GPa) =      20.849876         22.169876
  ** Time :            1.18000 ps :
     Properties:                   Instantaneous       Averaged
       Kinetic energy    (eV) =      11.962847         12.011125
       Potential energy  (eV) =     -80.246733        -79.309160
       Total energy      (eV) =     -68.283886        -67.298035
       Temperature       (K)  =    2985.439445       2997.487606
       Pressure         (GPa) =      21.267134         22.154575
  ** Time :            1.20000 ps :
     Properties:                   Instantaneous       Averaged
       Kinetic energy    (eV) =      12.049007         12.011756
       Potential energy  (eV) =     -78.275226        -79.291927
       Total energy      (eV) =     -66.226220        -67.280171
       Temperature       (K)  =    3006.941337       2997.645169
       Pressure         (GPa) =      23.362990         22.174715
  ** Time :            1.22000 ps :
     Properties:                   Instantaneous       Averaged
       Kinetic energy    (eV) =      12.086962         12.012989
       Potential energy  (eV) =     -81.630434        -79.330263
       Total energy      (eV) =     -69.543472        -67.317274
       Temperature       (K)  =    3016.413423       2997.952845
       Pressure         (GPa) =      20.030361         22.139562
  ** Time :            1.24000 ps :
     Properties:                   Instantaneous       Averaged
       Kinetic energy    (eV) =      12.027253         12.013219
       Potential energy  (eV) =     -82.967646        -79.388931
       Total energy      (eV) =     -70.940392        -67.375712
       Temperature       (K)  =    3001.512564       2998.010260
       Pressure         (GPa) =      17.854191         22.070443
  ** Time :            1.26000 ps :
     Properties:                   Instantaneous       Averaged
       Kinetic energy    (eV) =      11.970863         12.012547
       Potential energy  (eV) =     -82.306518        -79.435242
       Total energy      (eV) =     -70.335655        -67.422695
       Temperature       (K)  =    2987.439993       2997.842478
       Pressure         (GPa) =      18.250559         22.009810
  ** Time :            1.28000 ps :
     Properties:                   Instantaneous       Averaged
       Kinetic energy    (eV) =      11.962096         12.011759
       Potential energy  (eV) =     -79.668490        -79.438886
       Total energy      (eV) =     -67.706394        -67.427128
       Temperature       (K)  =    2985.252024       2997.645752
       Pressure         (GPa) =      21.282515         21.998446
  ** Time :            1.30000 ps :
     Properties:                   Instantaneous       Averaged
       Kinetic energy    (eV) =      12.074790         12.012728
       Potential energy  (eV) =     -79.890778        -79.445839
       Total energy      (eV) =     -67.815988        -67.433110
       Temperature       (K)  =    3013.375762       2997.887752
       Pressure         (GPa) =      21.402364         21.989275
  ** Time :            1.32000 ps :
     Properties:                   Instantaneous       Averaged
       Kinetic energy    (eV) =      11.997659         12.012500
       Potential energy  (eV) =     -81.113472        -79.471106
       Total energy      (eV) =     -69.115813        -67.458606
       Temperature       (K)  =    2994.127095       2997.830772
       Pressure         (GPa) =      20.305278         21.963760
  ** Time :            1.34000 ps :
     Properties:                   Instantaneous       Averaged
       Kinetic energy    (eV) =      11.980152         12.012017
       Potential energy  (eV) =     -79.056922        -79.464924
       Total energy      (eV) =     -67.076771        -67.452907
       Temperature       (K)  =    2989.757939       2997.710282
       Pressure         (GPa) =      22.294628         21.968699
  ** Time :            1.36000 ps :
     Properties:                   Instantaneous       Averaged
       Kinetic energy    (eV) =      12.021256         12.012153
       Potential energy  (eV) =     -78.941120        -79.457221
       Total energy      (eV) =     -66.919864        -67.445068
       Temperature       (K)  =    3000.015979       2997.744190
       Pressure         (GPa) =      22.434115         21.975543
  ** Time :            1.38000 ps :
     Properties:                   Instantaneous       Averaged
       Kinetic energy    (eV) =      12.027640         12.012377
       Potential energy  (eV) =     -78.962657        -79.450053
       Total energy      (eV) =     -66.935017        -67.437676
       Temperature       (K)  =    3001.609126       2997.800203
       Pressure         (GPa) =      22.084516         21.977122
  ** Time :            1.40000 ps :
     Properties:                   Instantaneous       Averaged
       Kinetic energy    (eV) =      12.067186         12.013160
       Potential energy  (eV) =     -80.343167        -79.462812
       Total energy      (eV) =     -68.275981        -67.449652
       Temperature       (K)  =    3011.478054       2997.995601
       Pressure         (GPa) =      20.739962         21.959449
  ** Time :            1.42000 ps :
     Properties:                   Instantaneous       Averaged
       Kinetic energy    (eV) =      11.988992         12.012820
       Potential energy  (eV) =     -80.710224        -79.480381
       Total energy      (eV) =     -68.721232        -67.467561
       Temperature       (K)  =    2991.964190       2997.910652
       Pressure         (GPa) =      20.632517         21.940759
  ** Time :            1.44000 ps :
     Properties:                   Instantaneous       Averaged
       Kinetic energy    (eV) =      12.009352         12.012772
       Potential energy  (eV) =     -79.866427        -79.485743
       Total energy      (eV) =     -67.857076        -67.472971
       Temperature       (K)  =    2997.045044       2997.898629
       Pressure         (GPa) =      21.726155         21.937779
  ** Time :            1.46000 ps :
     Properties:                   Instantaneous       Averaged
       Kinetic energy    (eV) =      11.996830         12.012554
       Potential energy  (eV) =     -79.064752        -79.479976
       Total energy      (eV) =     -67.067923        -67.467422
       Temperature       (K)  =    2993.920100       2997.844129
       Pressure         (GPa) =      22.618589         21.947105
  ** Time :            1.48000 ps :
     Properties:                   Instantaneous       Averaged
       Kinetic energy    (eV) =      12.027540         12.012756
       Potential energy  (eV) =     -79.008656        -79.473607
       Total energy      (eV) =     -66.981116        -67.460851
       Temperature       (K)  =    3001.584167       2997.894670
       Pressure         (GPa) =      22.644765         21.956533
  ** Time :            1.50000 ps :
     Properties:                   Instantaneous       Averaged
       Kinetic energy    (eV) =      12.019286         12.012843
       Potential energy  (eV) =     -79.066111        -79.468174
       Total energy      (eV) =     -67.046825        -67.455330
       Temperature       (K)  =    2999.524260       2997.916398
       Pressure         (GPa) =      22.505397         21.963851
  ** Time :            1.52000 ps :
     Properties:                   Instantaneous       Averaged
       Kinetic energy    (eV) =      12.036062         12.013149
       Potential energy  (eV) =     -79.565804        -79.469458
       Total energy      (eV) =     -67.529742        -67.456310
       Temperature       (K)  =    3003.710893       2997.992641
       Pressure         (GPa) =      21.820455         21.961964
  ** Time :            1.54000 ps :
     Properties:                   Instantaneous       Averaged
       Kinetic energy    (eV) =      11.977290         12.012683
       Potential energy  (eV) =     -79.343950        -79.467828
       Total energy      (eV) =     -67.366660        -67.455145
       Temperature       (K)  =    2989.043741       2997.876422
       Pressure         (GPa) =      22.017375         21.962684
  ** Time :            1.56000 ps :
     Properties:                   Instantaneous       Averaged
       Kinetic energy    (eV) =      11.989072         12.012380
       Potential energy  (eV) =     -77.304433        -79.440092
       Total energy      (eV) =     -65.315360        -67.427712
       Temperature       (K)  =    2991.984109       2997.800879
       Pressure         (GPa) =      24.062226         21.989601
  ** Time :            1.58000 ps :
     Properties:                   Instantaneous       Averaged
       Kinetic energy    (eV) =      12.024394         12.012532
       Potential energy  (eV) =     -77.506134        -79.415612
       Total energy      (eV) =     -65.481740        -67.403080
       Temperature       (K)  =    3000.799003       2997.838830
       Pressure         (GPa) =      23.842514         22.013056
  ** Time :            1.60000 ps :
     Properties:                   Instantaneous       Averaged
       Kinetic energy    (eV) =      12.038367         12.012855
       Potential energy  (eV) =     -77.537599        -79.392137
       Total energy      (eV) =     -65.499232        -67.379281
       Temperature       (K)  =    3004.286013       2997.919420
       Pressure         (GPa) =      23.652973         22.033555
  ** Time :            1.62000 ps :
     Properties:                   Instantaneous       Averaged
       Kinetic energy    (eV) =      12.067280         12.013527
       Potential energy  (eV) =     -79.328243        -79.391348
       Total energy      (eV) =     -67.260963        -67.377821
       Temperature       (K)  =    3011.501631       2998.087102
       Pressure         (GPa) =      22.109534         22.034493
  ** Time :            1.64000 ps :
     Properties:                   Instantaneous       Averaged
       Kinetic energy    (eV) =      12.031994         12.013752
       Potential energy  (eV) =     -80.653277        -79.406737
       Total energy      (eV) =     -68.621284        -67.392985
       Temperature       (K)  =    3002.695615       2998.143303
       Pressure         (GPa) =      20.867634         22.020263
  ** Time :            1.66000 ps :
     Properties:                   Instantaneous       Averaged
       Kinetic energy    (eV) =      12.028488         12.013930
       Potential energy  (eV) =     -80.800657        -79.423531
       Total energy      (eV) =     -68.772168        -67.409602
       Temperature       (K)  =    3001.820848       2998.187611
       Pressure         (GPa) =      20.403649         22.000785
  ** Time :            1.68000 ps :
     Properties:                   Instantaneous       Averaged
       Kinetic energy    (eV) =      12.013961         12.013930
       Potential energy  (eV) =     -81.411224        -79.447194
       Total energy      (eV) =     -69.397262        -67.433264
       Temperature       (K)  =    2998.195478       2998.187704
       Pressure         (GPa) =      19.480599         21.970783
  ** Time :            1.70000 ps :
     Properties:                   Instantaneous       Averaged
       Kinetic energy    (eV) =      12.020473         12.014007
       Potential energy  (eV) =     -80.489501        -79.459457
       Total energy      (eV) =     -68.469028        -67.445450
       Temperature       (K)  =    2999.820584       2998.206915
       Pressure         (GPa) =      20.176878         21.949678
  ** Time :            1.72000 ps :
     Properties:                   Instantaneous       Averaged
       Kinetic energy    (eV) =      12.027140         12.014160
       Potential energy  (eV) =     -81.358562        -79.481539
       Total energy      (eV) =     -69.331422        -67.467380
       Temperature       (K)  =    3001.484225       2998.245023
       Pressure         (GPa) =      19.848694         21.925248
  ** Time :            1.74000 ps :
     Properties:                   Instantaneous       Averaged
       Kinetic energy    (eV) =      11.966866         12.013616
       Potential energy  (eV) =     -80.415573        -79.492276
       Total energy      (eV) =     -68.448707        -67.478659
       Temperature       (K)  =    2986.442284       2998.109359
       Pressure         (GPa) =      21.285118         21.917891
  ** Time :            1.76000 ps :
     Properties:                   Instantaneous       Averaged
       Kinetic energy    (eV) =      11.942090         12.012803
       Potential energy  (eV) =     -77.455213        -79.469127
       Total energy      (eV) =     -65.513124        -67.456324
       Temperature       (K)  =    2980.259185       2997.906516
       Pressure         (GPa) =      24.689703         21.949388
  ** Time :            1.78000 ps :
     Properties:                   Instantaneous       Averaged
       Kinetic energy    (eV) =      12.040517         12.013115
       Potential energy  (eV) =     -76.240231        -79.432847
       Total energy      (eV) =     -64.199714        -67.419732
       Temperature       (K)  =    3004.822676       2997.984226
       Pressure         (GPa) =      26.373456         21.999097
  ** Time :            1.80000 ps :
     Properties:                   Instantaneous       Averaged
       Kinetic energy    (eV) =      12.083363         12.013895
       Potential energy  (eV) =     -78.394319        -79.421308
       Total energy      (eV) =     -66.310957        -67.407413
       Temperature       (K)  =    3015.515235       2998.179015
       Pressure         (GPa) =      24.330290         22.024999
  ** Time :            1.82000 ps :
     Properties:                   Instantaneous       Averaged
       Kinetic energy    (eV) =      12.023269         12.013998
       Potential energy  (eV) =     -80.050961        -79.428227
       Total energy      (eV) =     -68.027692        -67.414229
       Temperature       (K)  =    3000.518231       2998.204721
       Pressure         (GPa) =      22.305287         22.028079
  ** Time :            1.84000 ps :
     Properties:                   Instantaneous       Averaged
       Kinetic energy    (eV) =      11.976322         12.013589
       Potential energy  (eV) =     -79.007208        -79.423651
       Total energy      (eV) =     -67.030886        -67.410062
       Temperature       (K)  =    2988.802176       2998.102519
       Pressure         (GPa) =      22.742167         22.035841
  ** Time :            1.86000 ps :
     Properties:                   Instantaneous       Averaged
       Kinetic energy    (eV) =      12.010826         12.013559
       Potential energy  (eV) =     -77.999141        -79.408334
       Total energy      (eV) =     -65.988315        -67.394775
       Temperature       (K)  =    2997.412896       2998.095104
       Pressure         (GPa) =      23.612551         22.052795
  ** Time :            1.88000 ps :
     Properties:                   Instantaneous       Averaged
       Kinetic energy    (eV) =      11.941932         12.012797
       Potential energy  (eV) =     -76.306368        -79.375334
       Total energy      (eV) =     -64.364436        -67.362537
       Temperature       (K)  =    2980.219994       2997.904943
       Pressure         (GPa) =      25.750897         22.092136
  ** Time :            1.90000 ps :
     Properties:                   Instantaneous       Averaged
       Kinetic energy    (eV) =      12.016596         12.012837
       Potential energy  (eV) =     -74.569528        -79.324747
       Total energy      (eV) =     -62.552932        -67.311910
       Temperature       (K)  =    2998.852920       2997.914922
       Pressure         (GPa) =      28.207236         22.156506
  ** Time :            1.92000 ps :
     Properties:                   Instantaneous       Averaged
       Kinetic energy    (eV) =      12.010137         12.012809
       Potential energy  (eV) =     -74.696794        -79.276539
       Total energy      (eV) =     -62.686658        -67.263730
       Temperature       (K)  =    2997.241024       2997.907902
       Pressure         (GPa) =      28.218497         22.219652
  ** Time :            1.94000 ps :
     Properties:                   Instantaneous       Averaged
       Kinetic energy    (eV) =      12.045684         12.013148
       Potential energy  (eV) =     -74.935545        -79.231786
       Total energy      (eV) =     -62.889862        -67.218638
       Temperature       (K)  =    3006.112065       2997.992481
       Pressure         (GPa) =      27.455441         22.273629
  ** Time :            1.96000 ps :
     Properties:                   Instantaneous       Averaged
       Kinetic energy    (eV) =      12.017968         12.013197
       Potential energy  (eV) =     -76.218483        -79.201038
       Total energy      (eV) =     -64.200515        -67.187841
       Temperature       (K)  =    2999.195373       2998.004755
       Pressure         (GPa) =      26.088463         22.312556
  ** Time :            1.98000 ps :
     Properties:                   Instantaneous       Averaged
       Kinetic energy    (eV) =      12.058745         12.013657
       Potential energy  (eV) =     -76.330676        -79.172045
       Total energy      (eV) =     -64.271932        -67.158388
       Temperature       (K)  =    3009.371601       2998.119572
       Pressure         (GPa) =      25.712626         22.346900
  ** Time :            2.00000 ps :
     Properties:                   Instantaneous       Averaged
       Kinetic energy    (eV) =      12.020806         12.013729
       Potential energy  (eV) =     -77.711742        -79.157442
       Total energy      (eV) =     -65.690936        -67.143713
       Temperature       (K)  =    2999.903661       2998.137413
       Pressure         (GPa) =      24.055312         22.363984
  ** Time :            2.02000 ps :
     Properties:                   Instantaneous       Averaged
       Kinetic energy    (eV) =      12.066673         12.014253
       Potential energy  (eV) =     -78.524007        -79.151170
       Total energy      (eV) =     -66.457334        -67.136917
       Temperature       (K)  =    3011.350131       2998.268232
       Pressure         (GPa) =      23.141765         22.371685
  ** Time :            2.04000 ps :
     Properties:                   Instantaneous       Averaged
       Kinetic energy    (eV) =      11.993352         12.014048
       Potential energy  (eV) =     -79.262789        -79.152264
       Total energy      (eV) =     -67.269437        -67.138216
       Temperature       (K)  =    2993.052337       2998.217096
       Pressure         (GPa) =      22.466688         22.372616
  ** Time :            2.06000 ps :
     Properties:                   Instantaneous       Averaged
       Kinetic energy    (eV) =      12.015937         12.014066
       Potential energy  (eV) =     -78.214893        -79.143164
       Total energy      (eV) =     -66.198956        -67.129097
       Temperature       (K)  =    2998.688596       2998.221673
       Pressure         (GPa) =      23.319074         22.381805
  ** Time :            2.08000 ps :
     Properties:                   Instantaneous       Averaged
       Kinetic energy    (eV) =      11.990827         12.013843
       Potential energy  (eV) =     -77.831741        -79.130554
       Total energy      (eV) =     -65.840914        -67.116711
       Temperature       (K)  =    2992.421968       2998.165907
       Pressure         (GPa) =      23.988715         22.397256
  ** Time :            2.10000 ps :
     Properties:                   Instantaneous       Averaged
       Kinetic energy    (eV) =      12.005062         12.013759
       Potential energy  (eV) =     -77.710665        -79.117031
       Total energy      (eV) =     -65.705603        -67.103272
       Temperature       (K)  =    2995.974495       2998.145036
       Pressure         (GPa) =      24.392434         22.416258
  ** Time :            2.12000 ps :
     Properties:                   Instantaneous       Averaged
       Kinetic energy    (eV) =      11.987491         12.013511
       Potential energy  (eV) =     -76.882365        -79.095949
       Total energy      (eV) =     -64.894874        -67.082438
       Temperature       (K)  =    2991.589605       2998.083193
       Pressure         (GPa) =      25.113273         22.441701
  ** Time :            2.14000 ps :
     Properties:                   Instantaneous       Averaged
       Kinetic energy    (eV) =      12.039239         12.013752
       Potential energy  (eV) =     -75.709149        -79.064297
       Total energy      (eV) =     -63.669910        -67.050545
       Temperature       (K)  =    3004.503800       2998.143198
       Pressure         (GPa) =      25.949341         22.474483
  ** Time :            2.16000 ps :
     Properties:                   Instantaneous       Averaged
       Kinetic energy    (eV) =      12.038878         12.013985
       Potential energy  (eV) =     -77.704809        -79.051709
       Total energy      (eV) =     -65.665931        -67.037725
       Temperature       (K)  =    3004.413751       2998.201259
       Pressure         (GPa) =      23.899737         22.487680
  ** Time :            2.18000 ps :
     Properties:                   Instantaneous       Averaged
       Kinetic energy    (eV) =      12.038536         12.014210
       Potential energy  (eV) =     -77.935256        -79.041467
       Total energy      (eV) =     -65.896720        -67.027257
       Temperature       (K)  =    3004.328211       2998.257470
       Pressure         (GPa) =      23.245133         22.494629
  ** Time :            2.20000 ps :
     Properties:                   Instantaneous       Averaged
       Kinetic energy    (eV) =      12.015629         12.014223
       Potential energy  (eV) =     -78.534772        -79.036860
       Total energy      (eV) =     -66.519143        -67.022638
       Temperature       (K)  =    2998.611710       2998.260690
       Pressure         (GPa) =      22.192603         22.491883
  ** Time :            2.22000 ps :
     Properties:                   Instantaneous       Averaged
       Kinetic energy    (eV) =      12.066505         12.014694
       Potential energy  (eV) =     -79.444338        -79.040531
       Total energy      (eV) =     -67.377833        -67.025837
       Temperature       (K)  =    3011.308203       2998.378235
       Pressure         (GPa) =      21.332984         22.481443
  ** Time :            2.24000 ps :
     Properties:                   Instantaneous       Averaged
       Kinetic energy    (eV) =      12.021893         12.014758
       Potential energy  (eV) =     -80.288967        -79.051678
       Total energy      (eV) =     -68.267074        -67.036920
       Temperature       (K)  =    3000.174975       2998.394277
       Pressure         (GPa) =      20.985201         22.468084
  ** Time :            2.26000 ps :
     Properties:                   Instantaneous       Averaged
       Kinetic energy    (eV) =      12.041979         12.014999
       Potential energy  (eV) =     -80.779518        -79.066969
       Total energy      (eV) =     -68.737539        -67.051970
       Temperature       (K)  =    3005.187494       2998.454394
       Pressure         (GPa) =      20.686455         22.452317
  ** Time :            2.28000 ps :
     Properties:                   Instantaneous       Averaged
       Kinetic energy    (eV) =      12.007690         12.014935
       Potential energy  (eV) =     -81.218022        -79.085837
       Total energy      (eV) =     -69.210332        -67.070903
       Temperature       (K)  =    2996.630303       2998.438394
       Pressure         (GPa) =      20.326447         22.433669
  ** Time :            2.30000 ps :
     Properties:                   Instantaneous       Averaged
       Kinetic energy    (eV) =      12.011236         12.014903
       Potential energy  (eV) =     -80.665781        -79.099576
       Total energy      (eV) =     -68.654545        -67.084673
       Temperature       (K)  =    2997.515366       2998.430367
       Pressure         (GPa) =      21.145814         22.422470
  ** Time :            2.32000 ps :
     Properties:                   Instantaneous       Averaged
       Kinetic energy    (eV) =      11.984470         12.014640
       Potential energy  (eV) =     -79.997558        -79.107317
       Total energy      (eV) =     -68.013089        -67.092677
       Temperature       (K)  =    2990.835546       2998.364895
       Pressure         (GPa) =      21.912303         22.418072
  ** Time :            2.34000 ps :
     Properties:                   Instantaneous       Averaged
       Kinetic energy    (eV) =      12.025384         12.014732
       Potential energy  (eV) =     -78.980060        -79.106230
       Total energy      (eV) =     -66.954676        -67.091498
       Temperature       (K)  =    3001.046086       2998.387811
       Pressure         (GPa) =      22.617402         22.419776
  ** Time :            2.36000 ps :
     Properties:                   Instantaneous       Averaged
       Kinetic energy    (eV) =      12.078122         12.015269
       Potential energy  (eV) =     -80.904298        -79.121468
       Total energy      (eV) =     -68.826176        -67.106198
       Temperature       (K)  =    3014.207473       2998.521876
       Pressure         (GPa) =      20.464193         22.403203
  ** Time :            2.38000 ps :
     Properties:                   Instantaneous       Averaged
       Kinetic energy    (eV) =      11.996973         12.015116
       Potential energy  (eV) =     -81.483675        -79.141318
       Total energy      (eV) =     -69.486702        -67.126202
       Temperature       (K)  =    2993.955933       2998.483507
       Pressure         (GPa) =      19.569911         22.379394
  ** Time :            2.40000 ps :
     Properties:                   Instantaneous       Averaged
       Kinetic energy    (eV) =      12.023427         12.015185
       Potential energy  (eV) =     -81.135241        -79.157934
       Total energy      (eV) =     -69.111814        -67.142749
       Temperature       (K)  =    3000.557677       2998.500791
       Pressure         (GPa) =      19.875403         22.358527
  ** Time :            2.42000 ps :
     Properties:                   Instantaneous       Averaged
       Kinetic energy    (eV) =      12.008794         12.015132
       Potential energy  (eV) =     -81.146131        -79.174365
       Total energy      (eV) =     -69.137338        -67.159233
       Temperature       (K)  =    2996.905799       2998.487610
       Pressure         (GPa) =      20.093367         22.339807
  ** Time :            2.44000 ps :
     Properties:                   Instantaneous       Averaged
       Kinetic energy    (eV) =      11.978191         12.014829
       Potential energy  (eV) =     -80.109705        -79.182032
       Total energy      (eV) =     -68.131514        -67.167203
       Temperature       (K)  =    2989.268768       2998.412045
       Pressure         (GPa) =      21.331517         22.331542
  ** Time :            2.46000 ps :
     Properties:                   Instantaneous       Averaged
       Kinetic energy    (eV) =      11.976163         12.014515
       Potential energy  (eV) =     -78.553390        -79.176921
       Total energy      (eV) =     -66.577227        -67.162406
       Temperature       (K)  =    2988.762440       2998.333593
       Pressure         (GPa) =      22.874376         22.335956
  ** Time :            2.48000 ps :
     Properties:                   Instantaneous       Averaged
       Kinetic energy    (eV) =      11.988278         12.014303
       Potential energy  (eV) =     -76.704252        -79.156980
       Total energy      (eV) =     -64.715974        -67.142677
       Temperature       (K)  =    2991.785855       2998.280789
       Pressure         (GPa) =      24.725346         22.355225
  ** Time :            2.50000 ps :
     Properties:                   Instantaneous       Averaged
       Kinetic energy    (eV) =      12.009911         12.014268
       Potential energy  (eV) =     -76.629503        -79.136761
       Total energy      (eV) =     -64.619591        -67.122492
       Temperature       (K)  =    2997.184731       2998.272020
       Pressure         (GPa) =      25.279439         22.378619
  ** Time :            2.52000 ps :
     Properties:                   Instantaneous       Averaged
       Kinetic energy    (eV) =      12.056690         12.014605
       Potential energy  (eV) =     -76.957291        -79.119463
       Total energy      (eV) =     -64.900601        -67.104858
       Temperature       (K)  =    3008.858813       2998.356043
       Pressure         (GPa) =      24.925273         22.398830
  ** Time :            2.54000 ps :
     Properties:                   Instantaneous       Averaged
       Kinetic energy    (eV) =      12.065730         12.015007
       Potential energy  (eV) =     -78.947032        -79.118105
       Total energy      (eV) =     -66.881301        -67.103098
       Temperature       (K)  =    3011.114925       2998.456506
       Pressure         (GPa) =      22.480481         22.399473
  ** Time :            2.56000 ps :
     Properties:                   Instantaneous       Averaged
       Kinetic energy    (eV) =      12.047706         12.015263
       Potential energy  (eV) =     -80.465961        -79.128636
       Total energy      (eV) =     -68.418255        -67.113373
       Temperature       (K)  =    3006.616725       2998.520258
       Pressure         (GPa) =      20.608782         22.385483
  ** Time :            2.58000 ps :
     Properties:                   Instantaneous       Averaged
       Kinetic energy    (eV) =      11.959893         12.014834
       Potential energy  (eV) =     -80.166819        -79.136683
       Total energy      (eV) =     -68.206925        -67.121850
       Temperature       (K)  =    2984.702311       2998.413142
       Pressure         (GPa) =      21.270649         22.376841
  ** Time :            2.60000 ps :
     Properties:                   Instantaneous       Averaged
       Kinetic energy    (eV) =      11.955811         12.014380
       Potential energy  (eV) =     -76.833315        -79.118965
       Total energy      (eV) =     -64.877505        -67.104586
       Temperature       (K)  =    2983.683399       2998.299836
       Pressure         (GPa) =      24.859584         22.395939
  ** Time :            2.62000 ps :
     Properties:                   Instantaneous       Averaged
       Kinetic energy    (eV) =      12.084890         12.014918
       Potential energy  (eV) =     -77.583915        -79.107247
       Total energy      (eV) =     -65.499025        -67.092330
       Temperature       (K)  =    3015.896335       2998.434161
       Pressure         (GPa) =      24.071574         22.408730
  ** Time :            2.64000 ps :
     Properties:                   Instantaneous       Averaged
       Kinetic energy    (eV) =      11.997913         12.014789
       Potential energy  (eV) =     -78.631513        -79.103643
       Total energy      (eV) =     -66.633600        -67.088854
       Temperature       (K)  =    2994.190559       2998.402012
       Pressure         (GPa) =      22.646149         22.410529
  ** Time :            2.66000 ps :
     Properties:                   Instantaneous       Averaged
       Kinetic energy    (eV) =      12.056452         12.015102
       Potential energy  (eV) =     -78.448325        -79.098716
       Total energy      (eV) =     -66.391873        -67.083614
       Temperature       (K)  =    3008.799458       2998.480189
       Pressure         (GPa) =      22.473459         22.411002
  ** Time :            2.68000 ps :
     Properties:                   Instantaneous       Averaged
       Kinetic energy    (eV) =      12.033281         12.015238
       Potential energy  (eV) =     -80.160960        -79.106643
       Total energy      (eV) =     -68.127679        -67.091405
       Temperature       (K)  =    3003.016945       2998.514045
       Pressure         (GPa) =      21.256562         22.402387
  ** Time :            2.70000 ps :
     Properties:                   Instantaneous       Averaged
       Kinetic energy    (eV) =      11.986093         12.015022
       Potential energy  (eV) =     -79.596239        -79.110270
       Total energy      (eV) =     -67.610147        -67.095248
       Temperature       (K)  =    2991.240554       2998.460167
       Pressure         (GPa) =      21.948886         22.399028
  ** Time :            2.72000 ps :
     Properties:                   Instantaneous       Averaged
       Kinetic energy    (eV) =      12.018904         12.015051
       Potential energy  (eV) =     -79.247151        -79.111276
       Total energy      (eV) =     -67.228247        -67.096226
       Temperature       (K)  =    2999.428953       2998.467291
       Pressure         (GPa) =      22.320426         22.398450
  ** Time :            2.74000 ps :
     Properties:                   Instantaneous       Averaged
       Kinetic energy    (eV) =      11.998456         12.014929
       Potential energy  (eV) =     -77.762712        -79.101433
       Total energy      (eV) =     -65.764256        -67.086503
       Temperature       (K)  =    2994.326025       2998.437062
       Pressure         (GPa) =      23.860347         22.409120
  ** Time :            2.76000 ps :
     Properties:                   Instantaneous       Averaged
       Kinetic energy    (eV) =      12.051219         12.015192
       Potential energy  (eV) =     -79.241135        -79.102445
       Total energy      (eV) =     -67.189916        -67.087253
       Temperature       (K)  =    3007.493427       2998.502688
       Pressure         (GPa) =      22.584302         22.410390
  ** Time :            2.78000 ps :
     Properties:                   Instantaneous       Averaged
       Kinetic energy    (eV) =      11.975429         12.014906
       Potential energy  (eV) =     -78.845591        -79.100597
       Total energy      (eV) =     -66.870162        -67.085691
       Temperature       (K)  =    2988.579461       2998.431298
       Pressure         (GPa) =      22.885230         22.413806
  ** Time :            2.80000 ps :
     Properties:                   Instantaneous       Averaged
       Kinetic energy    (eV) =      12.051270         12.015166
       Potential energy  (eV) =     -77.536332        -79.089424
       Total energy      (eV) =     -65.485062        -67.074258
       Temperature       (K)  =    3007.506172       2998.496119
       Pressure         (GPa) =      23.949087         22.424772
  ** Time :            2.82000 ps :
     Properties:                   Instantaneous       Averaged
       Kinetic energy    (eV) =      12.128641         12.015971
       Potential energy  (eV) =     -81.434153        -79.106053
       Total energy      (eV) =     -69.305512        -67.090082
       Temperature       (K)  =    3026.814948       2998.696961
       Pressure         (GPa) =      19.660302         22.405166
  ** Time :            2.84000 ps :
     Properties:                   Instantaneous       Averaged
       Kinetic energy    (eV) =      12.046084         12.016183
       Potential energy  (eV) =     -84.476423        -79.143873
       Total energy      (eV) =     -72.430340        -67.127690
       Temperature       (K)  =    3006.211868       2998.749883
       Pressure         (GPa) =      16.128339         22.360963
  ** Time :            2.86000 ps :
     Properties:                   Instantaneous       Averaged
       Kinetic energy    (eV) =      11.940625         12.015655
       Potential energy  (eV) =     -83.045975        -79.171160
       Total energy      (eV) =     -71.105350        -67.155506
       Temperature       (K)  =    2979.893608       2998.618021
       Pressure         (GPa) =      17.622825         22.327829
  ** Time :            2.88000 ps :
     Properties:                   Instantaneous       Averaged
       Kinetic energy    (eV) =      11.963264         12.015291
       Potential energy  (eV) =     -80.205122        -79.178340
       Total energy      (eV) =     -68.241858        -67.163050
       Temperature       (K)  =    2985.543401       2998.527225
       Pressure         (GPa) =      20.955023         22.318296
  ** Time :            2.90000 ps :
     Properties:                   Instantaneous       Averaged
       Kinetic energy    (eV) =      12.039094         12.015455
       Potential energy  (eV) =     -79.693330        -79.181892
       Total energy      (eV) =     -67.654236        -67.166437
       Temperature       (K)  =    3004.467532       2998.568193
       Pressure         (GPa) =      21.720536         22.314173
  ** Time :            2.92000 ps :
     Properties:                   Instantaneous       Averaged
       Kinetic energy    (eV) =      12.009893         12.015417
       Potential energy  (eV) =     -80.235232        -79.189107
       Total energy      (eV) =     -68.225340        -67.173690
       Temperature       (K)  =    2997.180063       2998.558685
       Pressure         (GPa) =      21.366207         22.307680
  ** Time :            2.94000 ps :
     Properties:                   Instantaneous       Averaged
       Kinetic energy    (eV) =      11.974585         12.015139
       Potential energy  (eV) =     -78.884492        -79.187035
       Total energy      (eV) =     -66.909907        -67.171896
       Temperature       (K)  =    2988.368705       2998.489366
       Pressure         (GPa) =      22.974673         22.312218
  ** Time :            2.96000 ps :
     Properties:                   Instantaneous       Averaged
       Kinetic energy    (eV) =      12.042171         12.015322
       Potential energy  (eV) =     -78.630975        -79.183277
       Total energy      (eV) =     -66.588805        -67.167956
       Temperature       (K)  =    3005.235417       2998.534947
       Pressure         (GPa) =      23.378036         22.319419
  ** Time :            2.98000 ps :
     Properties:                   Instantaneous       Averaged
       Kinetic energy    (eV) =      12.022833         12.015372
       Potential energy  (eV) =     -79.356446        -79.184440
       Total energy      (eV) =     -67.333613        -67.169068
       Temperature       (K)  =    3000.409405       2998.547527
       Pressure         (GPa) =      22.510985         22.320705
  ** Time :            3.00000 ps :
     Properties:                   Instantaneous       Averaged
       Kinetic energy    (eV) =      12.025642         12.015441
       Potential energy  (eV) =     -79.395012        -79.185843
       Total energy      (eV) =     -67.369370        -67.170403
       Temperature       (K)  =    3001.110373       2998.564613
       Pressure         (GPa) =      22.333458         22.320790
  ** Time :            3.02000 ps :
     Properties:                   Instantaneous       Averaged
       Kinetic energy    (eV) =      12.031691         12.015548
       Potential energy  (eV) =     -79.802072        -79.189924
       Total energy      (eV) =     -67.770381        -67.174376
       Temperature       (K)  =    3002.619968       2998.591470
       Pressure         (GPa) =      21.798317         22.317330
  ** Time :            3.04000 ps :
     Properties:                   Instantaneous       Averaged
       Kinetic energy    (eV) =      12.022693         12.015595
       Potential energy  (eV) =     -80.130867        -79.196115
       Total energy      (eV) =     -68.108174        -67.180520
       Temperature       (K)  =    3000.374547       2998.603200
       Pressure         (GPa) =      21.249295         22.310303
  ** Time :            3.06000 ps :
     Properties:                   Instantaneous       Averaged
       Kinetic energy    (eV) =      12.016228         12.015599
       Potential energy  (eV) =     -80.276963        -79.203179
       Total energy      (eV) =     -68.260735        -67.187580
       Temperature       (K)  =    2998.761106       2998.604232
       Pressure         (GPa) =      21.095447         22.302363
  ** Time :            3.08000 ps :
     Properties:                   Instantaneous       Averaged
       Kinetic energy    (eV) =      11.986445         12.015410
       Potential energy  (eV) =     -79.412831        -79.204541
       Total energy      (eV) =     -67.426387        -67.189131
       Temperature       (K)  =    2991.328466       2998.556987
       Pressure         (GPa) =      22.044047         22.300686
  ** Time :            3.10000 ps :
     Properties:                   Instantaneous       Averaged
       Kinetic energy    (eV) =      12.021917         12.015452
       Potential energy  (eV) =     -78.842561        -79.202205
       Total energy      (eV) =     -66.820645        -67.186753
       Temperature       (K)  =    3000.180765       2998.567463
       Pressure         (GPa) =      22.661499         22.303014
  ** Time :            3.12000 ps :
     Properties:                   Instantaneous       Averaged
       Kinetic energy    (eV) =      12.028873         12.015538
       Potential energy  (eV) =     -79.739722        -79.205651
       Total energy      (eV) =     -67.710850        -67.190113
       Temperature       (K)  =    3001.916731       2998.588933
       Pressure         (GPa) =      22.032494         22.301279
  ** Time :            3.14000 ps :
     Properties:                   Instantaneous       Averaged
       Kinetic energy    (eV) =      12.008126         12.015491
       Potential energy  (eV) =     -79.467795        -79.207321
       Total energy      (eV) =     -67.459668        -67.191830
       Temperature       (K)  =    2996.739309       2998.577152
       Pressure         (GPa) =      22.359047         22.301647
  ** Time :            3.16000 ps :
     Properties:                   Instantaneous       Averaged
       Kinetic energy    (eV) =      11.983370         12.015287
       Potential energy  (eV) =     -78.555241        -79.203193
       Total energy      (eV) =     -66.571871        -67.187906
       Temperature       (K)  =    2990.561035       2998.526417
       Pressure         (GPa) =      23.084518         22.306602
  ** Time :            3.18000 ps :
     Properties:                   Instantaneous       Averaged
       Kinetic energy    (eV) =      12.045829         12.015480
       Potential energy  (eV) =     -78.293535        -79.197472
       Total energy      (eV) =     -66.247706        -67.181993
       Temperature       (K)  =    3006.148412       2998.574354
       Pressure         (GPa) =      22.822177         22.309845
  ** Time :            3.20000 ps :
     Properties:                   Instantaneous       Averaged
       Kinetic energy    (eV) =      12.035499         12.015605
       Potential energy  (eV) =     -79.209345        -79.197547
       Total energy      (eV) =     -67.173845        -67.181942
       Temperature       (K)  =    3003.570507       2998.605580
       Pressure         (GPa) =      21.566885         22.305201
  ** Time :            3.22000 ps :
     Properties:                   Instantaneous       Averaged
       Kinetic energy    (eV) =      12.029708         12.015692
       Potential energy  (eV) =     -80.043934        -79.202804
       Total energy      (eV) =     -68.014226        -67.187111
       Temperature       (K)  =    3002.125207       2998.627441
       Pressure         (GPa) =      21.169665         22.298148
  ** Time :            3.24000 ps :
     Properties:                   Instantaneous       Averaged
       Kinetic energy    (eV) =      12.045733         12.015878
       Potential energy  (eV) =     -80.541163        -79.211065
       Total energy      (eV) =     -68.495431        -67.195187
       Temperature       (K)  =    3006.124301       2998.673718
       Pressure         (GPa) =      20.899696         22.289516
  ** Time :            3.26000 ps :
     Properties:                   Instantaneous       Averaged
       Kinetic energy    (eV) =      12.053763         12.016110
       Potential energy  (eV) =     -81.950402        -79.227871
       Total energy      (eV) =     -69.896639        -67.211761
       Temperature       (K)  =    3008.128255       2998.731721
       Pressure         (GPa) =      19.016189         22.269434
  ** Time :            3.28000 ps :
     Properties:                   Instantaneous       Averaged
       Kinetic energy    (eV) =      11.988394         12.015941
[...]
     Properties:                   Instantaneous       Averaged
       Kinetic energy    (eV) =      10.306442         12.605087
       Potential energy  (eV) =     -76.459721        -78.759359
       Total energy      (eV) =     -66.153278        -66.154272
       Temperature       (K)  =    2572.068276       3145.716340
       Pressure         (GPa) =      26.133644         23.052602
  ** Time :            9.16000 ps :
     Properties:                   Instantaneous       Averaged
       Kinetic energy    (eV) =      12.149380         12.604092
       Potential energy  (eV) =     -78.304126        -78.758365
       Total energy      (eV) =     -66.154746        -66.154273
       Temperature       (K)  =    3031.990525       3145.468031
       Pressure         (GPa) =      24.198555         23.055104
  ** Time :            9.18000 ps :
     Properties:                   Instantaneous       Averaged
       Kinetic energy    (eV) =      12.144386         12.603090
       Potential energy  (eV) =     -78.298239        -78.757362
       Total energy      (eV) =     -66.153853        -66.154272
       Temperature       (K)  =    3030.744106       3145.218087
       Pressure         (GPa) =      23.527264         23.056132
  ** Time :            9.20000 ps :
     Properties:                   Instantaneous       Averaged
       Kinetic energy    (eV) =      12.376345         12.602597
       Potential energy  (eV) =     -78.530251        -78.756868
       Total energy      (eV) =     -66.153907        -66.154271
       Temperature       (K)  =    3088.631573       3145.095073
       Pressure         (GPa) =      23.020151         23.056054
  ** Time :            9.22000 ps :
     Properties:                   Instantaneous       Averaged
       Kinetic energy    (eV) =      12.756709         12.602932
       Potential energy  (eV) =     -78.911598        -78.757204
       Total energy      (eV) =     -66.154890        -66.154272
       Temperature       (K)  =    3183.554959       3145.178500
       Pressure         (GPa) =      22.656557         23.055188
  ** Time :            9.24000 ps :
     Properties:                   Instantaneous       Averaged
       Kinetic energy    (eV) =      10.370172         12.598099
       Potential energy  (eV) =     -76.523852        -78.752370
       Total energy      (eV) =     -66.153680        -66.154271
       Temperature       (K)  =    2587.972564       3143.972427
       Pressure         (GPa) =      24.512146         23.058341
  ** Time :            9.26000 ps :
     Properties:                   Instantaneous       Averaged
       Kinetic energy    (eV) =       9.860565         12.592186
       Potential energy  (eV) =     -76.014454        -78.746457
       Total energy      (eV) =     -66.153889        -66.154270
       Temperature       (K)  =    2460.795327       3142.496882
       Pressure         (GPa) =      25.235462         23.063043
  ** Time :            9.28000 ps :
     Properties:                   Instantaneous       Averaged
       Kinetic energy    (eV) =      11.886290         12.590665
       Potential energy  (eV) =     -78.040528        -78.744935
       Total energy      (eV) =     -66.154238        -66.154270
       Temperature       (K)  =    2966.333790       3142.117220
       Pressure         (GPa) =      23.548717         23.064090
  ** Time :            9.30000 ps :
     Properties:                   Instantaneous       Averaged
       Kinetic energy    (eV) =      13.519860         12.592663
       Potential energy  (eV) =     -79.674190        -78.746934
       Total energy      (eV) =     -66.154330        -66.154270
       Temperature       (K)  =    3374.006457       3142.615907
       Pressure         (GPa) =      22.082496         23.061979
  ** Time :            9.32000 ps :
     Properties:                   Instantaneous       Averaged
       Kinetic energy    (eV) =      13.262613         12.594101
       Potential energy  (eV) =     -79.416742        -78.748371
       Total energy      (eV) =     -66.154130        -66.154270
       Temperature       (K)  =    3309.807988       3142.974688
       Pressure         (GPa) =      22.398372         23.060555
  ** Time :            9.34000 ps :
     Properties:                   Instantaneous       Averaged
       Kinetic energy    (eV) =      12.204824         12.593267
       Potential energy  (eV) =     -78.358711        -78.747536
       Total energy      (eV) =     -66.153887        -66.154269
       Temperature       (K)  =    3045.826995       3142.766663
       Pressure         (GPa) =      23.480475         23.061454
  ** Time :            9.36000 ps :
     Properties:                   Instantaneous       Averaged
       Kinetic energy    (eV) =      11.153572         12.590191
       Potential energy  (eV) =     -77.307648        -78.744460
       Total energy      (eV) =     -66.154076        -66.154269
       Temperature       (K)  =    2783.477335       3141.998951
       Pressure         (GPa) =      24.498980         23.064526
  ** Time :            9.38000 ps :
     Properties:                   Instantaneous       Averaged
       Kinetic energy    (eV) =      10.843173         12.586466
       Potential energy  (eV) =     -76.997100        -78.740734
       Total energy      (eV) =     -66.153927        -66.154268
       Temperature       (K)  =    2706.014480       3141.069347
       Pressure         (GPa) =      24.554751         23.067703
  ** Time :            9.40000 ps :
     Properties:                   Instantaneous       Averaged
       Kinetic energy    (eV) =      12.316627         12.585892
       Potential energy  (eV) =     -78.470590        -78.740159
       Total energy      (eV) =     -66.153963        -66.154267
       Temperature       (K)  =    3073.728457       3140.926068
       Pressure         (GPa) =      22.987653         23.067533
  ** Time :            9.42000 ps :
     Properties:                   Instantaneous       Averaged
       Kinetic energy    (eV) =      13.001415         12.586774
       Potential energy  (eV) =     -79.156388        -78.741043
       Total energy      (eV) =     -66.154972        -66.154269
       Temperature       (K)  =    3244.623778       3141.146233
       Pressure         (GPa) =      22.352712         23.066015
  ** Time :            9.44000 ps :
     Properties:                   Instantaneous       Averaged
       Kinetic energy    (eV) =      11.406469         12.584274
       Potential energy  (eV) =     -77.559467        -78.738540
       Total energy      (eV) =     -66.152998        -66.154266
       Temperature       (K)  =    2846.590179       3140.522174
       Pressure         (GPa) =      23.511247         23.066959
  ** Time :            9.46000 ps :
     Properties:                   Instantaneous       Averaged
       Kinetic energy    (eV) =      13.932946         12.587125
       Potential energy  (eV) =     -80.087990        -78.741393
       Total energy      (eV) =     -66.155044        -66.154268
       Temperature       (K)  =    3477.095857       3141.233746
       Pressure         (GPa) =      21.652849         23.063969
  ** Time :            9.48000 ps :
     Properties:                   Instantaneous       Averaged
       Kinetic energy    (eV) =      13.491058         12.589032
       Potential energy  (eV) =     -79.645564        -78.743300
       Total energy      (eV) =     -66.154506        -66.154268
       Temperature       (K)  =    3366.818723       3141.709664
       Pressure         (GPa) =      22.280217         23.062316
  ** Time :            9.50000 ps :
     Properties:                   Instantaneous       Averaged
       Kinetic energy    (eV) =      12.118266         12.588041
       Potential energy  (eV) =     -78.272120        -78.742308
       Total energy      (eV) =     -66.153855        -66.154267
       Temperature       (K)  =    3024.225595       3141.462329
       Pressure         (GPa) =      23.979710         23.064247
  ** Time :            9.52000 ps :
     Properties:                   Instantaneous       Averaged
       Kinetic energy    (eV) =      12.127828         12.587074
       Potential energy  (eV) =     -78.281894        -78.741341
       Total energy      (eV) =     -66.154066        -66.154267
       Temperature       (K)  =    3026.612013       3141.221047
       Pressure         (GPa) =      24.502593         23.067269
  ** Time :            9.54000 ps :
     Properties:                   Instantaneous       Averaged
       Kinetic energy    (eV) =      13.417356         12.588815
       Potential energy  (eV) =     -79.571724        -78.743082
       Total energy      (eV) =     -66.154368        -66.154267
       Temperature       (K)  =    3348.425695       3141.655438
       Pressure         (GPa) =      23.181082         23.067507
  ** Time :            9.56000 ps :
     Properties:                   Instantaneous       Averaged
       Kinetic energy    (eV) =      13.558509         12.590843
       Potential energy  (eV) =     -79.712760        -78.745110
       Total energy      (eV) =     -66.154250        -66.154267
       Temperature       (K)  =    3383.651672       3142.161706
       Pressure         (GPa) =      22.631112         23.066594
  ** Time :            9.58000 ps :
     Properties:                   Instantaneous       Averaged
       Kinetic energy    (eV) =      13.848241         12.593468
       Potential energy  (eV) =     -80.002893        -78.747736
       Total energy      (eV) =     -66.154652        -66.154268
       Temperature       (K)  =    3455.957042       3142.816811
       Pressure         (GPa) =      22.263233         23.064917
  ** Time :            9.60000 ps :
     Properties:                   Instantaneous       Averaged
       Kinetic energy    (eV) =      13.101876         12.594528
       Potential energy  (eV) =     -79.255895        -78.748795
       Total energy      (eV) =     -66.154019        -66.154267
       Temperature       (K)  =    3269.694770       3143.081140
       Pressure         (GPa) =      22.672383         23.064099
  ** Time :            9.62000 ps :
     Properties:                   Instantaneous       Averaged
       Kinetic energy    (eV) =      12.327034         12.593971
       Potential energy  (eV) =     -78.481387        -78.748239
       Total energy      (eV) =     -66.154353        -66.154268
       Temperature       (K)  =    3076.325718       3142.942356
       Pressure         (GPa) =      23.531756         23.065072
  ** Time :            9.64000 ps :
     Properties:                   Instantaneous       Averaged
       Kinetic energy    (eV) =      12.252704         12.593263
       Potential energy  (eV) =     -78.406702        -78.747530
       Total energy      (eV) =     -66.153999        -66.154267
       Temperature       (K)  =    3057.775796       3142.765661
       Pressure         (GPa) =      23.406586         23.065780
  ** Time :            9.66000 ps :
     Properties:                   Instantaneous       Averaged
       Kinetic energy    (eV) =      12.555164         12.593184
       Potential energy  (eV) =     -78.709341        -78.747451
       Total energy      (eV) =     -66.154177        -66.154267
       Temperature       (K)  =    3133.257519       3142.745976
       Pressure         (GPa) =      22.381771         23.064364
  ** Time :            9.68000 ps :
     Properties:                   Instantaneous       Averaged
       Kinetic energy    (eV) =      14.146847         12.596395
       Potential energy  (eV) =     -80.301411        -78.750662
       Total energy      (eV) =     -66.154564        -66.154267
       Temperature       (K)  =    3530.476800       3143.547073
       Pressure         (GPa) =      20.830886         23.059749
  ** Time :            9.70000 ps :
     Properties:                   Instantaneous       Averaged
       Kinetic energy    (eV) =      14.450389         12.600217
       Potential energy  (eV) =     -80.605319        -78.754486
       Total energy      (eV) =     -66.154930        -66.154269
       Temperature       (K)  =    3606.228530       3144.501055
       Pressure         (GPa) =      21.268510         23.056056
  ** Time :            9.72000 ps :
     Properties:                   Instantaneous       Averaged
       Kinetic energy    (eV) =      11.032221         12.596991
       Potential energy  (eV) =     -77.185665        -78.751258
       Total energy      (eV) =     -66.153444        -66.154267
       Temperature       (K)  =    2753.193157       3143.695895
       Pressure         (GPa) =      24.702012         23.059443
  ** Time :            9.74000 ps :
     Properties:                   Instantaneous       Averaged
       Kinetic energy    (eV) =      11.921382         12.595604
       Potential energy  (eV) =     -78.075620        -78.749871
       Total energy      (eV) =     -66.154238        -66.154267
       Temperature       (K)  =    2975.091397       3143.349684
       Pressure         (GPa) =      24.270780         23.061930
  ** Time :            9.76000 ps :
     Properties:                   Instantaneous       Averaged
       Kinetic energy    (eV) =      14.042693         12.598569
       Potential energy  (eV) =     -80.197727        -78.752838
       Total energy      (eV) =     -66.155034        -66.154269
       Temperature       (K)  =    3504.484203       3144.089714
       Pressure         (GPa) =      22.278333         23.060324
  ** Time :            9.78000 ps :
     Properties:                   Instantaneous       Averaged
       Kinetic energy    (eV) =      12.489050         12.598345
       Potential energy  (eV) =     -78.642797        -78.752613
       Total energy      (eV) =     -66.153746        -66.154268
       Temperature       (K)  =    3116.758367       3144.033822
       Pressure         (GPa) =      23.378709         23.060976
  ** Time :            9.80000 ps :
     Properties:                   Instantaneous       Averaged
       Kinetic energy    (eV) =      12.150861         12.597432
       Potential energy  (eV) =     -78.305123        -78.751699
       Total energy      (eV) =     -66.154261        -66.154268
       Temperature       (K)  =    3032.360164       3143.805916
       Pressure         (GPa) =      23.657649         23.062193
  ** Time :            9.82000 ps :
     Properties:                   Instantaneous       Averaged
       Kinetic energy    (eV) =      12.151886         12.596524
       Potential energy  (eV) =     -78.306492        -78.750793
       Total energy      (eV) =     -66.154606        -66.154268
       Temperature       (K)  =    3032.615852       3143.579460
       Pressure         (GPa) =      23.477086         23.063038
  ** Time :            9.84000 ps :
     Properties:                   Instantaneous       Averaged
       Kinetic energy    (eV) =      11.763943         12.594832
       Potential energy  (eV) =     -77.917971        -78.749100
       Total energy      (eV) =     -66.154027        -66.154268
       Temperature       (K)  =    2935.801175       3143.157146
       Pressure         (GPa) =      23.604395         23.064139
  ** Time :            9.86000 ps :
     Properties:                   Instantaneous       Averaged
       Kinetic energy    (eV) =      12.599980         12.594843
       Potential energy  (eV) =     -78.753859        -78.749109
       Total energy      (eV) =     -66.153878        -66.154267
       Temperature       (K)  =    3144.441976       3143.159752
       Pressure         (GPa) =      22.653562         23.063306
  ** Time :            9.88000 ps :
     Properties:                   Instantaneous       Averaged
       Kinetic energy    (eV) =      14.352147         12.598400
       Potential energy  (eV) =     -80.506977        -78.752668
       Total energy      (eV) =     -66.154829        -66.154268
       Temperature       (K)  =    3581.711448       3144.047509
       Pressure         (GPa) =      21.219997         23.059574
  ** Time :            9.90000 ps :
     Properties:                   Instantaneous       Averaged
       Kinetic energy    (eV) =      12.917342         12.599044
       Potential energy  (eV) =     -79.071370        -78.753312
       Total energy      (eV) =     -66.154028        -66.154268
       Temperature       (K)  =    3223.642584       3144.208307
       Pressure         (GPa) =      22.352102         23.058145
  ** Time :            9.92000 ps :
     Properties:                   Instantaneous       Averaged
       Kinetic energy    (eV) =      11.185106         12.596193
       Potential energy  (eV) =     -77.339134        -78.750461
       Total energy      (eV) =     -66.154029        -66.154267
       Temperature       (K)  =    2791.346814       3143.496893
       Pressure         (GPa) =      23.719815         23.059479
  ** Time :            9.94000 ps :
     Properties:                   Instantaneous       Averaged
       Kinetic energy    (eV) =      11.777954         12.594547
       Potential energy  (eV) =     -77.932648        -78.748815
       Total energy      (eV) =     -66.154694        -66.154268
       Temperature       (K)  =    2939.297586       3143.086029
       Pressure         (GPa) =      23.534714         23.060435
  ** Time :            9.96000 ps :
     Properties:                   Instantaneous       Averaged
       Kinetic energy    (eV) =      11.915761         12.593184
       Potential energy  (eV) =     -78.069644        -78.747451
       Total energy      (eV) =     -66.153883        -66.154267
       Temperature       (K)  =    2973.688779       3142.745874
       Pressure         (GPa) =      23.600952         23.061521
  ** Time :            9.98000 ps :
     Properties:                   Instantaneous       Averaged
       Kinetic energy    (eV) =      13.080540         12.594161
       Potential energy  (eV) =     -79.234940        -78.748428
       Total energy      (eV) =     -66.154400        -66.154268
       Temperature       (K)  =    3264.370043       3142.989610
       Pressure         (GPa) =      22.536314         23.060468
  ** Time :           10.00000 ps :
     Properties:                   Instantaneous       Averaged
       Kinetic energy    (eV) =      14.036003         12.597044
       Potential energy  (eV) =     -80.190374        -78.751312
       Total energy      (eV) =     -66.154371        -66.154268
       Temperature       (K)  =    3502.814794       3143.709260
       Pressure         (GPa) =      21.427127         23.057202

  Peak dynamic memory used =       0.57 MB 


  Timing analysis for GULP :

--------------------------------------------------------------------------------
  Task / Subroutine                                          Time (Seconds)
--------------------------------------------------------------------------------
  Calculation of real space energy and derivatives               21.0520
  Calculation of many-body energy and derivatives                11.2720
  Calculation of matrix inversion                                 0.0040
  Molecular dynamics - update of geometry                         0.0440
  Molecular dynamics - predictor                                  0.0080
  Molecular dynamics - corrector                                  0.0080
  Molecular dynamics - velocity correction                        0.0200
--------------------------------------------------------------------------------
  Total CPU time                                                 32.6960
--------------------------------------------------------------------------------


  Dump file written as Recovery_2_3000_0.001.res                               
  GULP ASCII trajectory file written as Trajectories_2_3000_0.001.trg           


  Job Finished at 17:40.07 17th May        2018                               

