********************************************************************************
*                       GENERAL UTILITY LATTICE PROGRAM                        *
*                                 Julian Gale                                  *
*                       Curtin Institute for Computation                       *
*                           Department of Chemistry                            *
*                    Curtin University, Western Australia                      *
********************************************************************************
* Version = 5.0.0 * Last modified =  18th April 2018                           *
********************************************************************************
*  single       - perform a single point run                                   *
*  md           - perform molecular dynamics run                               *
*  conv         - constant volume calculation                                  *
********************************************************************************
* molecular dynamics of silver                                                 *
********************************************************************************


  Job Started  at 17:42.17 17th May        2018                               

  Number of CPUs =     1


  Total number of configurations input =   1

********************************************************************************
*  Input for Configuration =   1                                               *
********************************************************************************

  Formula = Ag32                                                        

  Number of irreducible atoms/shells =      32


  Total number atoms/shells =      32

  Dimensionality = 3               :  Bulk   



  Supercell dimensions :  x =   2  y =   2  z =   2

  Cartesian lattice vectors (Angstroms) :

        8.170000    0.000000    0.000000
        0.000000    8.170000    0.000000
        0.000000    0.000000    8.170000

  Cell parameters (Angstroms/Degrees):

  a =       8.1700    alpha =  90.0000
  b =       8.1700    beta  =  90.0000
  c =       8.1700    gamma =  90.0000

  Initial cell volume =         545.338513 Angs**3

  Temperature of configuration =  3000.     K 

  Pressure of configuration =         0.000 GPa 

  Fractional coordinates of asymmetric unit :

--------------------------------------------------------------------------------
   No.  Atomic       x           y          z         Charge      Occupancy
        Label      (Frac)      (Frac)     (Frac)        (e)         (Frac)  
--------------------------------------------------------------------------------
      1 Ag    c    0.000000 *  0.000000 *  0.000000 *   0.00000    1.000000    
      2 Ag    c    0.000000 *  0.000000 *  0.500000 *   0.00000    1.000000    
      3 Ag    c    0.000000 *  0.500000 *  0.000000 *   0.00000    1.000000    
      4 Ag    c    0.000000 *  0.500000 *  0.500000 *   0.00000    1.000000    
      5 Ag    c    0.500000 *  0.000000 *  0.000000 *   0.00000    1.000000    
      6 Ag    c    0.500000 *  0.000000 *  0.500000 *   0.00000    1.000000    
      7 Ag    c    0.500000 *  0.500000 *  0.000000 *   0.00000    1.000000    
      8 Ag    c    0.500000 *  0.500000 *  0.500000 *   0.00000    1.000000    
      9 Ag    c    0.000000 *  0.250000 *  0.250000 *   0.00000    1.000000    
     10 Ag    c    0.000000 *  0.250000 *  0.750000 *   0.00000    1.000000    
     11 Ag    c    0.000000 *  0.750000 *  0.250000 *   0.00000    1.000000    
     12 Ag    c    0.000000 *  0.750000 *  0.750000 *   0.00000    1.000000    
     13 Ag    c    0.500000 *  0.250000 *  0.250000 *   0.00000    1.000000    
     14 Ag    c    0.500000 *  0.250000 *  0.750000 *   0.00000    1.000000    
     15 Ag    c    0.500000 *  0.750000 *  0.250000 *   0.00000    1.000000    
     16 Ag    c    0.500000 *  0.750000 *  0.750000 *   0.00000    1.000000    
     17 Ag    c    0.250000 *  0.000000 *  0.250000 *   0.00000    1.000000    
     18 Ag    c    0.250000 *  0.000000 *  0.750000 *   0.00000    1.000000    
     19 Ag    c    0.250000 *  0.500000 *  0.250000 *   0.00000    1.000000    
     20 Ag    c    0.250000 *  0.500000 *  0.750000 *   0.00000    1.000000    
     21 Ag    c    0.750000 *  0.000000 *  0.250000 *   0.00000    1.000000    
     22 Ag    c    0.750000 *  0.000000 *  0.750000 *   0.00000    1.000000    
     23 Ag    c    0.750000 *  0.500000 *  0.250000 *   0.00000    1.000000    
     24 Ag    c    0.750000 *  0.500000 *  0.750000 *   0.00000    1.000000    
     25 Ag    c    0.250000 *  0.250000 *  0.000000 *   0.00000    1.000000    
     26 Ag    c    0.250000 *  0.250000 *  0.500000 *   0.00000    1.000000    
     27 Ag    c    0.250000 *  0.750000 *  0.000000 *   0.00000    1.000000    
     28 Ag    c    0.250000 *  0.750000 *  0.500000 *   0.00000    1.000000    
     29 Ag    c    0.750000 *  0.250000 *  0.000000 *   0.00000    1.000000    
     30 Ag    c    0.750000 *  0.250000 *  0.500000 *   0.00000    1.000000    
     31 Ag    c    0.750000 *  0.750000 *  0.000000 *   0.00000    1.000000    
     32 Ag    c    0.750000 *  0.750000 *  0.500000 *   0.00000    1.000000    
--------------------------------------------------------------------------------



********************************************************************************
*  General input information                                                   *
********************************************************************************

  Species output for all configurations : 

--------------------------------------------------------------------------------
  Species    Type    Atomic    Atomic    Charge       Radii (Angs)     Library
                     Number     Mass       (e)     Cova   Ionic  VDW   Symbol
--------------------------------------------------------------------------------
    Ag       Core       47     107.87   0.000000   1.590  0.000  2.370          
--------------------------------------------------------------------------------


  Lattice summation method               =    Ewald          (3-D)
                                         =    Parry          (2-D)
                                         =    Saunders et al (1-D)
  Accuracy factor for lattice sums       =   12.000


  Time limit = Infinity

  Maximum range for interatomic potentials =    100000.000000 Angstroms

  General interatomic potentials :

--------------------------------------------------------------------------------
Atom  Types   Potential      Parameter       Value         Units   Cutoffs(Ang)
  1     2                                                            Min /  Max 
--------------------------------------------------------------------------------
Ag   c Ag   c Many-body                                             0.000  8.000
--------------------------------------------------------------------------------
Ag   c Ag   c Buckingham    Buckingham A     11454.950    eV        0.000 12.000
                            Buckingham rho  0.26432400    Ang       
                            Buckingham C     0.0000000    eV*Ang^6  
--------------------------------------------------------------------------------

  Embedded Atom Model Densities :

--------------------------------------------------------------------------------
  Atom(s)       Functional Form          A          B          C         n      
--------------------------------------------------------------------------------
  Ag   c        Exponential          1.388      2.173      2.889         0
--------------------------------------------------------------------------------


  Embedded Atom Model alloy parameters :

--------------------------------------------------------------------------------
  Atom(s)                          Scale factor 
--------------------------------------------------------------------------------
  Ag    c                            1.000000
--------------------------------------------------------------------------------

  Embedded Atom Model functional = Square Root

--------------------------------------------------------------------------------
  Atom                     A     
--------------------------------------------------------------------------------
  Ag    c               1.000000
--------------------------------------------------------------------------------


  Manybody second derivative cross term cutoffs to be scale by = 0.50000000

********************************************************************************
*  Output for configuration   1                                                *
********************************************************************************


  Components of energy : 

--------------------------------------------------------------------------------
  Interatomic potentials     =          39.71625760 eV    
  Many-body potentials       =        -134.45860512 eV    
  Monopole - monopole (real) =           0.00000000 eV    
  Monopole - monopole (recip)=           0.00000000 eV    
  Monopole - monopole (total)=           0.00000000 eV    
--------------------------------------------------------------------------------
  Total lattice energy       =         -94.74234752 eV    
--------------------------------------------------------------------------------
  Total lattice energy       =           -9141.1883 kJ/(mole unit cells)
--------------------------------------------------------------------------------

  Equations of motion will be integrated using the leapfrog Verlet algorithm.

********************************************************************************
*  Molecular Dynamics                                                          *
********************************************************************************

  Microcanonical ensemble (NVE) to be used

  No. of mobile ions        =                 32

  No. of degrees of freedom =                 93

  Time step                 =           0.006000 ps
  Equilibration time        =           5.000000 ps
  Production time           =          10.000000 ps
  Scaling time              =           4.998000 ps
  Scaling frequency         =           0.006000 ps
  Sampling frequency        =           0.018000 ps
  Write frequency           =           0.018000 ps
  TD-Force start time       =           0.000000 ps
  TD-Field start time       =           0.000000 ps



  Molecular dynamics equilibration :

  ** Time :            0.01800 ps :
     Properties:                   Instantaneous       Averaged
       Kinetic energy    (eV) =      11.573635         11.573635
       Potential energy  (eV) =     -93.883343        -93.883343
       Total energy      (eV) =     -82.309708        -82.309708
       Temperature       (K)  =    2888.307918       2888.307918
       Pressure         (GPa) =       3.499974          3.499974
  ** Time :            0.03600 ps :
     Properties:                   Instantaneous       Averaged
       Kinetic energy    (eV) =      10.756829         11.165232
       Potential energy  (eV) =     -89.034486        -91.458914
       Total energy      (eV) =     -78.277656        -80.293682
       Temperature       (K)  =    2684.466484       2786.387201
       Pressure         (GPa) =       9.682424          6.591199
  ** Time :            0.05400 ps :
     Properties:                   Instantaneous       Averaged
       Kinetic energy    (eV) =      11.099746         11.143403
       Potential energy  (eV) =     -82.397846        -88.438558
       Total energy      (eV) =     -71.298100        -77.295155
       Temperature       (K)  =    2770.044514       2780.939639
       Pressure         (GPa) =      17.660355         10.280918
  ** Time :            0.07200 ps :
     Properties:                   Instantaneous       Averaged
       Kinetic energy    (eV) =      12.006943         11.359288
       Potential energy  (eV) =     -81.439721        -86.688849
       Total energy      (eV) =     -69.432779        -75.329561
       Temperature       (K)  =    2996.443879       2834.815699
       Pressure         (GPa) =      19.438329         12.570271
  ** Time :            0.09000 ps :
     Properties:                   Instantaneous       Averaged
       Kinetic energy    (eV) =      11.666803         11.420791
       Potential energy  (eV) =     -80.965213        -85.544122
       Total energy      (eV) =     -69.298410        -74.123331
       Temperature       (K)  =    2911.558904       2850.164340
       Pressure         (GPa) =      19.814496         14.019116
  ** Time :            0.10800 ps :
     Properties:                   Instantaneous       Averaged
       Kinetic energy    (eV) =      11.763020         11.477829
       Potential energy  (eV) =     -79.658172        -84.563130
       Total energy      (eV) =     -67.895152        -73.085301
       Temperature       (K)  =    2935.570790       2864.398748
       Pressure         (GPa) =      21.319445         15.235837
  ** Time :            0.12600 ps :
     Properties:                   Instantaneous       Averaged
       Kinetic energy    (eV) =      11.636998         11.500568
       Potential energy  (eV) =     -78.587229        -83.709430
       Total energy      (eV) =     -66.950231        -72.208862
       Temperature       (K)  =    2904.120684       2870.073311
       Pressure         (GPa) =      22.852073         16.323871
  ** Time :            0.14400 ps :
     Properties:                   Instantaneous       Averaged
       Kinetic energy    (eV) =      11.527883         11.503982
       Potential energy  (eV) =     -76.342057        -82.788508
       Total energy      (eV) =     -64.814175        -71.284526
       Temperature       (K)  =    2876.890045       2870.925402
       Pressure         (GPa) =      25.136005         17.425388
  ** Time :            0.16200 ps :
     Properties:                   Instantaneous       Averaged
       Kinetic energy    (eV) =      12.235812         11.585297
       Potential energy  (eV) =     -76.532585        -82.093406
       Total energy      (eV) =     -64.296773        -70.508109
       Temperature       (K)  =    3053.560440       2891.218184
       Pressure         (GPa) =      25.028725         18.270203
  ** Time :            0.18000 ps :
     Properties:                   Instantaneous       Averaged
       Kinetic energy    (eV) =      12.242056         11.650972
       Potential energy  (eV) =     -79.185607        -81.802626
       Total energy      (eV) =     -66.943551        -70.151654
       Temperature       (K)  =    3055.118643       2907.608230
       Pressure         (GPa) =      22.336617         18.676844
  ** Time :            0.19800 ps :
     Properties:                   Instantaneous       Averaged
       Kinetic energy    (eV) =      11.869635         11.670851
       Potential energy  (eV) =     -79.702821        -81.611735
       Total energy      (eV) =     -67.833186        -69.940884
       Temperature       (K)  =    2962.177384       2912.569062
       Pressure         (GPa) =      21.543649         18.937463
  ** Time :            0.21600 ps :
     Properties:                   Instantaneous       Averaged
       Kinetic energy    (eV) =      11.869169         11.687377
       Potential energy  (eV) =     -79.198313        -81.410616
       Total energy      (eV) =     -67.329144        -69.723239
       Temperature       (K)  =    2962.061109       2916.693400
       Pressure         (GPa) =      21.902527         19.184552
  ** Time :            0.23400 ps :
     Properties:                   Instantaneous       Averaged
       Kinetic energy    (eV) =      12.033021         11.713965
       Potential energy  (eV) =     -79.452066        -81.259958
       Total energy      (eV) =     -67.419045        -69.545993
       Temperature       (K)  =    3002.952023       2923.328678
       Pressure         (GPa) =      21.598067         19.370207
  ** Time :            0.25200 ps :
     Properties:                   Instantaneous       Averaged
       Kinetic energy    (eV) =      12.051310         11.738061
       Potential energy  (eV) =     -80.291218        -81.190763
       Total energy      (eV) =     -68.239908        -69.452701
       Temperature       (K)  =    3007.516254       2929.342077
       Pressure         (GPa) =      20.775756         19.470603
  ** Time :            0.27000 ps :
     Properties:                   Instantaneous       Averaged
       Kinetic energy    (eV) =      11.845221         11.745205
       Potential energy  (eV) =     -80.304290        -81.131665
       Total energy      (eV) =     -68.459069        -69.386459
       Temperature       (K)  =    2956.084780       2931.124923
       Pressure         (GPa) =      20.601063         19.545967
  ** Time :            0.28800 ps :
     Properties:                   Instantaneous       Averaged
       Kinetic energy    (eV) =      11.998674         11.761047
       Potential energy  (eV) =     -80.411117        -81.086630
       Total energy      (eV) =     -68.412443        -69.325583
       Temperature       (K)  =    2994.380450       2935.078394
       Pressure         (GPa) =      20.554207         19.608982
  ** Time :            0.30600 ps :
     Properties:                   Instantaneous       Averaged
       Kinetic energy    (eV) =      11.575831         11.750152
       Potential energy  (eV) =     -79.801910        -81.011059
       Total energy      (eV) =     -68.226078        -69.260906
       Temperature       (K)  =    2888.856096       2932.359435
       Pressure         (GPa) =      21.505313         19.720531
  ** Time :            0.32400 ps :
     Properties:                   Instantaneous       Averaged
       Kinetic energy    (eV) =      11.574620         11.740400
       Potential energy  (eV) =     -77.248091        -80.802005
       Total energy      (eV) =     -65.673471        -69.061604
       Temperature       (K)  =    2888.553778       2929.925788
       Pressure         (GPa) =      24.284019         19.974058
  ** Time :            0.34200 ps :
     Properties:                   Instantaneous       Averaged
       Kinetic energy    (eV) =      12.198115         11.764491
       Potential energy  (eV) =     -77.866379        -80.647498
       Total energy      (eV) =     -65.668264        -68.883008
       Temperature       (K)  =    3044.152840       2935.937738
       Pressure         (GPa) =      23.830641         20.177036
  ** Time :            0.36000 ps :
     Properties:                   Instantaneous       Averaged
       Kinetic energy    (eV) =      11.560537         11.754293
       Potential energy  (eV) =     -77.776966        -80.503972
       Total energy      (eV) =     -66.216429        -68.749679
       Temperature       (K)  =    2885.039170       2933.392809
       Pressure         (GPa) =      23.573908         20.346880
  ** Time :            0.37800 ps :
     Properties:                   Instantaneous       Averaged
       Kinetic energy    (eV) =      12.034049         11.767615
       Potential energy  (eV) =     -76.791797        -80.327201
       Total energy      (eV) =     -64.757748        -68.559587
       Temperature       (K)  =    3003.208477       2936.717365
       Pressure         (GPa) =      24.493931         20.544358
  ** Time :            0.39600 ps :
     Properties:                   Instantaneous       Averaged
       Kinetic energy    (eV) =      11.973175         11.776958
       Potential energy  (eV) =     -78.244244        -80.232521
       Total energy      (eV) =     -66.271069        -68.455563
       Temperature       (K)  =    2988.016933       2939.049163
       Pressure         (GPa) =      23.424667         20.675281
  ** Time :            0.41400 ps :
     Properties:                   Instantaneous       Averaged
       Kinetic energy    (eV) =      11.771940         11.776740
       Potential energy  (eV) =     -77.459497        -80.111955
       Total energy      (eV) =     -65.687557        -68.335215
       Temperature       (K)  =    2937.796696       2938.994708
       Pressure         (GPa) =      24.200343         20.828545
  ** Time :            0.43200 ps :
     Properties:                   Instantaneous       Averaged
       Kinetic energy    (eV) =      12.162386         11.792809
       Potential energy  (eV) =     -78.381312        -80.039845
       Total energy      (eV) =     -66.218926        -68.247036
       Temperature       (K)  =    3035.236230       2943.004772
       Pressure         (GPa) =      22.903664         20.915008
  ** Time :            0.45000 ps :
     Properties:                   Instantaneous       Averaged
       Kinetic energy    (eV) =      11.993666         11.800843
       Potential energy  (eV) =     -79.620747        -80.023081
       Total energy      (eV) =     -67.627082        -68.222238
       Temperature       (K)  =    2993.130488       2945.009800
       Pressure         (GPa) =      21.070262         20.921218
  ** Time :            0.46800 ps :
     Properties:                   Instantaneous       Averaged
       Kinetic energy    (eV) =      11.914874         11.805229
       Potential energy  (eV) =     -79.636115        -80.008198
       Total energy      (eV) =     -67.721240        -68.202969
       Temperature       (K)  =    2973.467428       2946.104325
       Pressure         (GPa) =      20.981731         20.923546
  ** Time :            0.48600 ps :
     Properties:                   Instantaneous       Averaged
       Kinetic energy    (eV) =      11.726770         11.802323
       Potential energy  (eV) =     -79.218421        -79.978947
       Total energy      (eV) =     -67.491650        -68.176624
       Temperature       (K)  =    2926.524280       2945.379138
       Pressure         (GPa) =      21.779136         20.955234
  ** Time :            0.50400 ps :
     Properties:                   Instantaneous       Averaged
       Kinetic energy    (eV) =      12.109188         11.813282
       Potential energy  (eV) =     -78.844307        -79.938424
       Total energy      (eV) =     -66.735118        -68.125141
       Temperature       (K)  =    3021.960249       2948.114177
       Pressure         (GPa) =      22.018782         20.993218
  ** Time :            0.52200 ps :
     Properties:                   Instantaneous       Averaged
       Kinetic energy    (eV) =      12.156565         11.825120
       Potential energy  (eV) =     -81.158282        -79.980488
       Total energy      (eV) =     -69.001717        -68.155368
       Temperature       (K)  =    3033.783414       2951.068289
       Pressure         (GPa) =      19.618826         20.945825
  ** Time :            0.54000 ps :
     Properties:                   Instantaneous       Averaged
       Kinetic energy    (eV) =      11.821449         11.824997
       Potential energy  (eV) =     -80.933786        -80.012265
       Total energy      (eV) =     -69.112337        -68.187267
       Temperature       (K)  =    2950.152265       2951.037755
       Pressure         (GPa) =      19.760974         20.906330
  ** Time :            0.55800 ps :
     Properties:                   Instantaneous       Averaged
       Kinetic energy    (eV) =      12.087104         11.833452
       Potential energy  (eV) =     -81.463428        -80.059076
       Total energy      (eV) =     -69.376323        -68.225624
       Temperature       (K)  =    3016.448990       2953.147795
       Pressure         (GPa) =      19.445366         20.859202
  ** Time :            0.57600 ps :
     Properties:                   Instantaneous       Averaged
       Kinetic energy    (eV) =      11.830502         11.833360
       Potential energy  (eV) =     -81.626934        -80.108072
       Total energy      (eV) =     -69.796432        -68.274712
       Temperature       (K)  =    2952.411422       2953.124783
       Pressure         (GPa) =      19.126309         20.805050
  ** Time :            0.59400 ps :
     Properties:                   Instantaneous       Averaged
       Kinetic energy    (eV) =      12.069472         11.840515
       Potential energy  (eV) =     -81.632531        -80.154268
       Total energy      (eV) =     -69.563059        -68.313752
       Temperature       (K)  =    3012.048630       2954.910354
       Pressure         (GPa) =      19.061341         20.752210
  ** Time :            0.61200 ps :
     Properties:                   Instantaneous       Averaged
       Kinetic energy    (eV) =      11.537421         11.831601
       Potential energy  (eV) =     -81.528843        -80.194696
       Total energy      (eV) =     -69.991422        -68.363096
       Temperature       (K)  =    2879.270482       2952.685652
       Pressure         (GPa) =      19.248867         20.707994
  ** Time :            0.63000 ps :
     Properties:                   Instantaneous       Averaged
       Kinetic energy    (eV) =      11.712954         11.828211
       Potential energy  (eV) =     -79.061679        -80.162324
       Total energy      (eV) =     -67.348725        -68.334114
       Temperature       (K)  =    2923.076195       2951.839668
       Pressure         (GPa) =      21.922889         20.742705
  ** Time :            0.64800 ps :
     Properties:                   Instantaneous       Averaged
       Kinetic energy    (eV) =      11.589957         11.821593
       Potential energy  (eV) =     -77.987414        -80.101910
       Total energy      (eV) =     -66.397457        -68.280318
       Temperature       (K)  =    2892.381257       2950.188045
       Pressure         (GPa) =      23.356114         20.815300
  ** Time :            0.66600 ps :
     Properties:                   Instantaneous       Averaged
       Kinetic energy    (eV) =      12.291101         11.834282
       Potential energy  (eV) =     -78.439234        -80.056973
       Total energy      (eV) =     -66.148133        -68.222691
       Temperature       (K)  =    3067.358190       2953.354806
       Pressure         (GPa) =      22.468341         20.859977
  ** Time :            0.68400 ps :
     Properties:                   Instantaneous       Averaged
       Kinetic energy    (eV) =      12.286598         11.846185
       Potential energy  (eV) =     -81.366028        -80.091422
       Total energy      (eV) =     -69.079430        -68.245237
       Temperature       (K)  =    3066.234516       2956.325324
       Pressure         (GPa) =      18.972759         20.810313
  ** Time :            0.70200 ps :
     Properties:                   Instantaneous       Averaged
       Kinetic energy    (eV) =      11.872118         11.846850
       Potential energy  (eV) =     -82.368562        -80.149810
       Total energy      (eV) =     -70.496444        -68.302960
       Temperature       (K)  =    2962.797179       2956.491269
       Pressure         (GPa) =      17.878885         20.735148
  ** Time :            0.72000 ps :
     Properties:                   Instantaneous       Averaged
       Kinetic energy    (eV) =      11.621947         11.841227
       Potential energy  (eV) =     -80.708311        -80.163773
       Total energy      (eV) =     -69.086364        -68.322545
       Temperature       (K)  =    2900.364620       2955.088103
       Pressure         (GPa) =      19.821811         20.712315
  ** Time :            0.73800 ps :
     Properties:                   Instantaneous       Averaged
       Kinetic energy    (eV) =      11.775368         11.839621
       Potential energy  (eV) =     -79.809119        -80.155122
       Total energy      (eV) =     -68.033751        -68.315501
       Temperature       (K)  =    2938.652255       2954.687229
       Pressure         (GPa) =      21.409720         20.729325
  ** Time :            0.75600 ps :
     Properties:                   Instantaneous       Averaged
       Kinetic energy    (eV) =      11.906362         11.841210
       Potential energy  (eV) =     -79.135302        -80.130841
       Total energy      (eV) =     -67.228940        -68.289631
       Temperature       (K)  =    2971.343092       2955.083797
       Pressure         (GPa) =      22.561550         20.772949
  ** Time :            0.77400 ps :
     Properties:                   Instantaneous       Averaged
       Kinetic energy    (eV) =      12.099619         11.847220
       Potential energy  (eV) =     -80.060822        -80.129213
       Total energy      (eV) =     -67.961203        -68.281993
       Temperature       (K)  =    3019.572024       2956.583523
       Pressure         (GPa) =      21.930736         20.799874
  ** Time :            0.79200 ps :
     Properties:                   Instantaneous       Averaged
       Kinetic energy    (eV) =      12.004395         11.850792
       Potential energy  (eV) =     -80.759598        -80.143540
       Total energy      (eV) =     -68.755204        -68.292748
       Temperature       (K)  =    2995.808003       2957.474989
       Pressure         (GPa) =      20.958008         20.803468
  ** Time :            0.81000 ps :
     Properties:                   Instantaneous       Averaged
       Kinetic energy    (eV) =      11.907580         11.852054
       Potential energy  (eV) =     -80.871175        -80.159709
       Total energy      (eV) =     -68.963595        -68.307656
       Temperature       (K)  =    2971.646917       2957.789920
       Pressure         (GPa) =      20.492904         20.796567
  ** Time :            0.82800 ps :
     Properties:                   Instantaneous       Averaged
       Kinetic energy    (eV) =      12.066359         11.856713
       Potential energy  (eV) =     -81.213232        -80.182612
       Total energy      (eV) =     -69.146874        -68.325899
       Temperature       (K)  =    3011.271691       2958.952568
       Pressure         (GPa) =      20.099083         20.781404
  ** Time :            0.84600 ps :
     Properties:                   Instantaneous       Averaged
       Kinetic energy    (eV) =      11.910171         11.857850
       Potential energy  (eV) =     -81.665764        -80.214168
       Total energy      (eV) =     -69.755593        -68.356318
       Temperature       (K)  =    2972.293657       2959.236421
       Pressure         (GPa) =      19.606712         20.756411
  ** Time :            0.86400 ps :
     Properties:                   Instantaneous       Averaged
       Kinetic energy    (eV) =      11.814205         11.856941
       Potential energy  (eV) =     -81.015164        -80.230856
       Total energy      (eV) =     -69.200959        -68.373915
       Temperature       (K)  =    2948.344339       2959.009502
       Pressure         (GPa) =      20.027378         20.741223
  ** Time :            0.88200 ps :
     Properties:                   Instantaneous       Averaged
       Kinetic energy    (eV) =      11.737386         11.854501
       Potential energy  (eV) =     -80.297751        -80.232221
       Total energy      (eV) =     -68.560365        -68.377720
       Temperature       (K)  =    2929.173528       2958.400605
       Pressure         (GPa) =      20.698355         20.740348
  ** Time :            0.90000 ps :
     Properties:                   Instantaneous       Averaged
       Kinetic energy    (eV) =      11.535588         11.848123
       Potential energy  (eV) =     -78.579869        -80.199174
       Total energy      (eV) =     -67.044281        -68.351051
       Temperature       (K)  =    2878.812982       2956.808852
       Pressure         (GPa) =      22.461554         20.774772
  ** Time :            0.91800 ps :
     Properties:                   Instantaneous       Averaged
       Kinetic energy    (eV) =      11.990132         11.850907
       Potential energy  (eV) =     -77.460232        -80.145469
       Total energy      (eV) =     -65.470099        -68.294562
       Temperature       (K)  =    2992.248746       2957.503752
       Pressure         (GPa) =      23.793585         20.833964
  ** Time :            0.93600 ps :
     Properties:                   Instantaneous       Averaged
       Kinetic energy    (eV) =      11.927143         11.852373
       Potential energy  (eV) =     -78.206435        -80.108180
       Total energy      (eV) =     -66.279292        -68.255807
       Temperature       (K)  =    2976.529031       2957.869623
       Pressure         (GPa) =      23.257462         20.880570
  ** Time :            0.95400 ps :
     Properties:                   Instantaneous       Averaged
       Kinetic energy    (eV) =      11.889690         11.853077
       Potential energy  (eV) =     -78.072315        -80.069768
       Total energy      (eV) =     -66.182626        -68.216690
       Temperature       (K)  =    2967.182297       2958.045334
       Pressure         (GPa) =      23.551476         20.930964
  ** Time :            0.97200 ps :
     Properties:                   Instantaneous       Averaged
       Kinetic energy    (eV) =      11.835972         11.852760
       Potential energy  (eV) =     -77.734191        -80.026516
       Total energy      (eV) =     -65.898219        -68.173756
       Temperature       (K)  =    2953.776531       2957.966282
       Pressure         (GPa) =      24.219736         20.991868
  ** Time :            0.99000 ps :
     Properties:                   Instantaneous       Averaged
       Kinetic energy    (eV) =      12.161756         11.858379
       Potential energy  (eV) =     -77.921538        -79.988244
       Total energy      (eV) =     -65.759782        -68.129865
       Temperature       (K)  =    3035.078956       2959.368331
       Pressure         (GPa) =      24.177335         21.049785
  ** Time :            1.00800 ps :
     Properties:                   Instantaneous       Averaged
       Kinetic energy    (eV) =      12.076904         11.862281
       Potential energy  (eV) =     -79.893702        -79.986556
       Total energy      (eV) =     -67.816798        -68.124275
       Temperature       (K)  =    3013.903415       2960.342171
       Pressure         (GPa) =      22.047277         21.067598
  ** Time :            1.02600 ps :
     Properties:                   Instantaneous       Averaged
       Kinetic energy    (eV) =      11.729565         11.859952
       Potential energy  (eV) =     -79.338394        -79.975184
       Total energy      (eV) =     -67.608828        -68.115232
       Temperature       (K)  =    2927.221841       2959.761113
       Pressure         (GPa) =      22.269647         21.088686
  ** Time :            1.04400 ps :
     Properties:                   Instantaneous       Averaged
       Kinetic energy    (eV) =      11.815448         11.859185
       Potential energy  (eV) =     -78.334508        -79.946897
       Total energy      (eV) =     -66.519060        -68.087712
       Temperature       (K)  =    2948.654599       2959.569621
       Pressure         (GPa) =      23.393004         21.128416
  ** Time :            1.06200 ps :
     Properties:                   Instantaneous       Averaged
       Kinetic energy    (eV) =      12.064105         11.862658
       Potential energy  (eV) =     -78.628950        -79.924559
       Total energy      (eV) =     -66.564845        -68.061900
       Temperature       (K)  =    3010.709361       2960.436397
       Pressure         (GPa) =      23.217625         21.163826
  ** Time :            1.08000 ps :
     Properties:                   Instantaneous       Averaged
       Kinetic energy    (eV) =      12.078422         11.866254
       Potential energy  (eV) =     -79.672724        -79.920361
       Total energy      (eV) =     -67.594302        -68.054107
       Temperature       (K)  =    3014.282166       2961.333826
       Pressure         (GPa) =      21.958320         21.177068
  ** Time :            1.09800 ps :
     Properties:                   Instantaneous       Averaged
       Kinetic energy    (eV) =      11.943922         11.867528
       Potential energy  (eV) =     -80.206672        -79.925055
       Total energy      (eV) =     -68.262749        -68.057527
       Temperature       (K)  =    2980.716598       2961.651576
       Pressure         (GPa) =      21.237071         21.178051
  ** Time :            1.11600 ps :
     Properties:                   Instantaneous       Averaged
       Kinetic energy    (eV) =      11.825200         11.866845
       Potential energy  (eV) =     -79.840110        -79.923685
       Total energy      (eV) =     -68.014911        -68.056840
       Temperature       (K)  =    2951.088207       2961.481199
       Pressure         (GPa) =      21.819735         21.188401
  ** Time :            1.13400 ps :
     Properties:                   Instantaneous       Averaged
       Kinetic energy    (eV) =      11.866673         11.866842
       Potential energy  (eV) =     -79.331780        -79.914290
       Total energy      (eV) =     -67.465107        -68.047447
       Temperature       (K)  =    2961.438325       2961.480519
       Pressure         (GPa) =      22.550468         21.210021
  ** Time :            1.15200 ps :
     Properties:                   Instantaneous       Averaged
       Kinetic energy    (eV) =      11.979483         11.868602
       Potential energy  (eV) =     -79.449869        -79.907033
       Total energy      (eV) =     -67.470386        -68.038431
       Temperature       (K)  =    2989.591019       2961.919745
       Pressure         (GPa) =      22.290607         21.226905
  ** Time :            1.17000 ps :
     Properties:                   Instantaneous       Averaged
       Kinetic energy    (eV) =      12.051094         11.871410
       Potential energy  (eV) =     -80.164287        -79.910991
       Total energy      (eV) =     -68.113193        -68.039581
       Temperature       (K)  =    3007.462205       2962.620399
       Pressure         (GPa) =      21.363582         21.229008
  ** Time :            1.18800 ps :
     Properties:                   Instantaneous       Averaged
       Kinetic energy    (eV) =      11.803793         11.870385
       Potential energy  (eV) =     -80.134977        -79.914385
       Total energy      (eV) =     -68.331184        -68.043999
       Temperature       (K)  =    2945.746101       2962.364728
       Pressure         (GPa) =      21.383533         21.231349
  ** Time :            1.20600 ps :
     Properties:                   Instantaneous       Averaged
       Kinetic energy    (eV) =      11.768044         11.868858
       Potential energy  (eV) =     -79.100149        -79.902232
       Total energy      (eV) =     -67.332104        -68.033374
       Temperature       (K)  =    2936.824632       2961.983532
       Pressure         (GPa) =      22.811367         21.254932
  ** Time :            1.22400 ps :
     Properties:                   Instantaneous       Averaged
       Kinetic energy    (eV) =      11.731660         11.866840
       Potential energy  (eV) =     -78.100716        -79.875739
       Total energy      (eV) =     -66.369055        -68.008899
       Temperature       (K)  =    2927.744664       2961.480019
       Pressure         (GPa) =      24.314480         21.299925
  ** Time :            1.24200 ps :
     Properties:                   Instantaneous       Averaged
       Kinetic energy    (eV) =      12.065808         11.869724
       Potential energy  (eV) =     -77.567119        -79.842281
       Total energy      (eV) =     -65.501310        -67.972557
       Temperature       (K)  =    3011.134405       2962.199648
       Pressure         (GPa) =      24.881475         21.351832
  ** Time :            1.26000 ps :
     Properties:                   Instantaneous       Averaged
       Kinetic energy    (eV) =      12.395512         11.877235
       Potential energy  (eV) =     -80.036679        -79.845058
       Total energy      (eV) =     -67.641167        -67.967823
       Temperature       (K)  =    3093.414947       2964.074152
       Pressure         (GPa) =      22.351838         21.366117
  ** Time :            1.27800 ps :
     Properties:                   Instantaneous       Averaged
       Kinetic energy    (eV) =      12.026775         11.879341
       Potential energy  (eV) =     -81.663608        -79.870671
       Total energy      (eV) =     -69.636832        -67.991330
       Temperature       (K)  =    3001.393343       2964.599775
       Pressure         (GPa) =      20.548262         21.354598
  ** Time :            1.29600 ps :
     Properties:                   Instantaneous       Averaged
       Kinetic energy    (eV) =      11.524855         11.874418
       Potential energy  (eV) =     -80.577010        -79.880481
       Total energy      (eV) =     -69.052155        -68.006064
       Temperature       (K)  =    2876.134531       2963.371091
       Pressure         (GPa) =      21.766991         21.360326
  ** Time :            1.31400 ps :
     Properties:                   Instantaneous       Averaged
       Kinetic energy    (eV) =      11.609421         11.870788
       Potential energy  (eV) =     -77.947883        -79.854007
       Total energy      (eV) =     -66.338463        -67.983220
       Temperature       (K)  =    2897.238556       2962.465166
       Pressure         (GPa) =      24.535390         21.403820
  ** Time :            1.33200 ps :
     Properties:                   Instantaneous       Averaged
       Kinetic energy    (eV) =      11.934086         11.871643
       Potential energy  (eV) =     -77.610304        -79.823687
       Total energy      (eV) =     -65.676218        -67.952044
       Temperature       (K)  =    2978.261824       2962.678634
       Pressure         (GPa) =      24.834835         21.450185
  ** Time :            1.35000 ps :
     Properties:                   Instantaneous       Averaged
       Kinetic energy    (eV) =      11.727171         11.869717
       Potential energy  (eV) =     -76.911704        -79.784861
       Total energy      (eV) =     -65.184534        -67.915144
       Temperature       (K)  =    2926.624221       2962.197909
       Pressure         (GPa) =      24.942153         21.496745
  ** Time :            1.36800 ps :
     Properties:                   Instantaneous       Averaged
       Kinetic energy    (eV) =      12.025752         11.871770
       Potential energy  (eV) =     -76.809317        -79.745709
       Total energy      (eV) =     -64.783565        -67.873939
       Temperature       (K)  =    3001.138001       2962.710278
       Pressure         (GPa) =      24.883482         21.541307
  ** Time :            1.38600 ps :
     Properties:                   Instantaneous       Averaged
       Kinetic energy    (eV) =      12.149327         11.875375
       Potential energy  (eV) =     -77.954155        -79.722442
       Total energy      (eV) =     -65.804828        -67.847067
       Temperature       (K)  =    3031.977209       2963.609849
       Pressure         (GPa) =      23.652878         21.568730
  ** Time :            1.40400 ps :
     Properties:                   Instantaneous       Averaged
       Kinetic energy    (eV) =      12.066715         11.877828
       Potential energy  (eV) =     -79.379324        -79.718043
       Total energy      (eV) =     -67.312609        -67.840215
       Temperature       (K)  =    3011.360573       2964.222037
       Pressure         (GPa) =      22.097262         21.575506
  ** Time :            1.42200 ps :
     Properties:                   Instantaneous       Averaged
       Kinetic energy    (eV) =      11.779011         11.876577
       Potential energy  (eV) =     -79.021301        -79.709223
       Total energy      (eV) =     -67.242290        -67.832647
       Temperature       (K)  =    2939.561512       2963.909879
       Pressure         (GPa) =      22.279417         21.584416
  ** Time :            1.44000 ps :
     Properties:                   Instantaneous       Averaged
       Kinetic energy    (eV) =      12.250579         11.881252
       Potential energy  (eV) =     -79.693743        -79.709030
       Total energy      (eV) =     -67.443164        -67.827778
       Temperature       (K)  =    3057.245569       2965.076575
       Pressure         (GPa) =      21.548267         21.583964
  ** Time :            1.45800 ps :
     Properties:                   Instantaneous       Averaged
       Kinetic energy    (eV) =      12.085947         11.883779
       Potential energy  (eV) =     -81.675119        -79.733303
       Total energy      (eV) =     -69.589172        -67.849524
       Temperature       (K)  =    3016.160187       2965.707237
       Pressure         (GPa) =      19.434837         21.557432
  ** Time :            1.47600 ps :
     Properties:                   Instantaneous       Averaged
       Kinetic energy    (eV) =      11.656904         11.881012
       Potential energy  (eV) =     -81.009227        -79.748863
       Total energy      (eV) =     -69.352322        -67.867851
       Temperature       (K)  =    2909.088594       2965.016766
       Pressure         (GPa) =      19.930824         21.537595
  ** Time :            1.49400 ps :
     Properties:                   Instantaneous       Averaged
       Kinetic energy    (eV) =      11.759619         11.879550
       Potential energy  (eV) =     -79.616738        -79.747271
       Total energy      (eV) =     -67.857120        -67.867721
       Temperature       (K)  =    2934.721910       2964.651767
       Pressure         (GPa) =      21.434902         21.536358
  ** Time :            1.51200 ps :
     Properties:                   Instantaneous       Averaged
       Kinetic energy    (eV) =      12.222038         11.883627
       Potential energy  (eV) =     -80.215365        -79.752843
       Total energy      (eV) =     -67.993327        -67.869217
       Temperature       (K)  =    3050.122953       2965.669282
       Pressure         (GPa) =      21.055776         21.530637
  ** Time :            1.53000 ps :
     Properties:                   Instantaneous       Averaged
       Kinetic energy    (eV) =      11.971442         11.884660
       Potential energy  (eV) =     -81.498204        -79.773377
       Total energy      (eV) =     -69.526762        -67.888717
       Temperature       (K)  =    2987.584323       2965.927106
       Pressure         (GPa) =      19.798650         21.510260
  ** Time :            1.54800 ps :
     Properties:                   Instantaneous       Averaged
       Kinetic energy    (eV) =      11.626382         11.881657
       Potential energy  (eV) =     -80.507497        -79.781913
       Total energy      (eV) =     -68.881116        -67.900257
       Temperature       (K)  =    2901.471348       2965.177620
       Pressure         (GPa) =      20.671794         21.500511
  ** Time :            1.56600 ps :
     Properties:                   Instantaneous       Averaged
       Kinetic energy    (eV) =      11.885595         11.881702
       Potential energy  (eV) =     -79.139972        -79.774535
       Total energy      (eV) =     -67.254377        -67.892833
       Temperature       (K)  =    2966.160564       2965.188918
       Pressure         (GPa) =      21.960194         21.505795
  ** Time :            1.58400 ps :
     Properties:                   Instantaneous       Averaged
       Kinetic energy    (eV) =      12.187759         11.885180
       Potential energy  (eV) =     -80.339666        -79.780957
       Total energy      (eV) =     -68.151907        -67.895777
       Temperature       (K)  =    3041.568255       2966.056865
       Pressure         (GPa) =      20.867686         21.498543
  ** Time :            1.60200 ps :
     Properties:                   Instantaneous       Averaged
       Kinetic energy    (eV) =      11.729245         11.883428
       Potential energy  (eV) =     -80.514973        -79.789204
       Total energy      (eV) =     -68.785727        -67.905776
       Temperature       (K)  =    2927.141947       2965.619619
       Pressure         (GPa) =      20.612725         21.488590
  ** Time :            1.62000 ps :
     Properties:                   Instantaneous       Averaged
       Kinetic energy    (eV) =      11.839379         11.882938
       Potential energy  (eV) =     -79.106408        -79.781617
       Total energy      (eV) =     -67.267030        -67.898679
       Temperature       (K)  =    2954.626741       2965.497476
       Pressure         (GPa) =      21.799687         21.492047
  ** Time :            1.63800 ps :
     Properties:                   Instantaneous       Averaged
       Kinetic energy    (eV) =      12.197933         11.886400
       Potential energy  (eV) =     -80.734107        -79.792084
       Total energy      (eV) =     -68.536174        -67.905684
       Temperature       (K)  =    3044.107392       2966.361321
       Pressure         (GPa) =      20.606640         21.482317
  ** Time :            1.65600 ps :
     Properties:                   Instantaneous       Averaged
       Kinetic energy    (eV) =      11.717424         11.884563
       Potential energy  (eV) =     -80.709215        -79.802053
       Total energy      (eV) =     -68.991790        -67.917490
       Temperature       (K)  =    2924.191928       2965.902958
       Pressure         (GPa) =      20.905892         21.476052
  ** Time :            1.67400 ps :
     Properties:                   Instantaneous       Averaged
       Kinetic energy    (eV) =      12.014993         11.885966
       Potential energy  (eV) =     -80.065212        -79.804883
       Total energy      (eV) =     -68.050219        -67.918917
       Temperature       (K)  =    2998.452940       2966.252958
       Pressure         (GPa) =      21.632565         21.477735
  ** Time :            1.69200 ps :
     Properties:                   Instantaneous       Averaged
       Kinetic energy    (eV) =      11.965467         11.886811
       Potential energy  (eV) =     -80.869609        -79.816210
       Total energy      (eV) =     -68.904142        -67.929398
       Temperature       (K)  =    2986.093201       2966.464024
       Pressure         (GPa) =      20.647875         21.468906
  ** Time :            1.71000 ps :
     Properties:                   Instantaneous       Averaged
       Kinetic energy    (eV) =      12.124727         11.889316
       Potential energy  (eV) =     -81.245029        -79.831250
       Total energy      (eV) =     -69.120302        -67.941934
       Temperature       (K)  =    3025.838144       2967.089015
       Pressure         (GPa) =      20.015529         21.453608
  ** Time :            1.72800 ps :
     Properties:                   Instantaneous       Averaged
       Kinetic energy    (eV) =      12.070963         11.891208
       Potential energy  (eV) =     -82.532259        -79.859385
       Total energy      (eV) =     -70.461296        -67.968177
       Temperature       (K)  =    3012.420790       2967.561221
       Pressure         (GPa) =      18.671896         21.424631
  ** Time :            1.74600 ps :
     Properties:                   Instantaneous       Averaged
       Kinetic energy    (eV) =      11.604602         11.888253
       Potential energy  (eV) =     -81.803726        -79.879430
       Total energy      (eV) =     -70.199123        -67.991177
       Temperature       (K)  =    2896.036121       2966.823849
       Pressure         (GPa) =      19.500633         21.404796
  ** Time :            1.76400 ps :
     Properties:                   Instantaneous       Averaged
       Kinetic energy    (eV) =      11.700952         11.886342
       Potential energy  (eV) =     -79.455443        -79.875104
       Total energy      (eV) =     -67.754491        -67.988762
       Temperature       (K)  =    2920.081062       2966.346882
       Pressure         (GPa) =      22.147705         21.412377
  ** Time :            1.78200 ps :
     Properties:                   Instantaneous       Averaged
       Kinetic energy    (eV) =      12.048300         11.887978
       Potential energy  (eV) =     -79.793009        -79.874274
       Total energy      (eV) =     -67.744708        -67.986296
       Temperature       (K)  =    3006.765078       2966.755146
       Pressure         (GPa) =      22.178847         21.420119
  ** Time :            1.80000 ps :
     Properties:                   Instantaneous       Averaged
       Kinetic energy    (eV) =      11.853237         11.887631
       Potential energy  (eV) =     -79.644775        -79.871979
       Total energy      (eV) =     -67.791538        -67.984349
       Temperature       (K)  =    2958.085233       2966.668447
       Pressure         (GPa) =      22.075721         21.426675
  ** Time :            1.81800 ps :
     Properties:                   Instantaneous       Averaged
       Kinetic energy    (eV) =      11.762044         11.886387
       Potential energy  (eV) =     -79.062913        -79.863969
       Total energy      (eV) =     -67.300869        -67.977582
       Temperature       (K)  =    2935.327227       2966.358138
       Pressure         (GPa) =      22.415812         21.436469
  ** Time :            1.83600 ps :
     Properties:                   Instantaneous       Averaged
       Kinetic energy    (eV) =      11.761979         11.885167
       Potential energy  (eV) =     -77.759260        -79.843334
       Total energy      (eV) =     -65.997281        -67.958167
       Temperature       (K)  =    2935.310832       2966.053753
       Pressure         (GPa) =      23.366988         21.455395
  ** Time :            1.85400 ps :
     Properties:                   Instantaneous       Averaged
       Kinetic energy    (eV) =      12.085705         11.887114
       Potential energy  (eV) =     -77.806290        -79.823557
       Total energy      (eV) =     -65.720586        -67.936443
       Temperature       (K)  =    3016.099690       2966.539636
       Pressure         (GPa) =      23.307350         21.473376
  ** Time :            1.87200 ps :
     Properties:                   Instantaneous       Averaged
       Kinetic energy    (eV) =      11.884708         11.887091
       Potential energy  (eV) =     -78.510693        -79.810934
       Total energy      (eV) =     -66.625985        -67.923842
       Temperature       (K)  =    2965.939071       2966.533861
       Pressure         (GPa) =      23.028709         21.488331
  ** Time :            1.89000 ps :
     Properties:                   Instantaneous       Averaged
       Kinetic energy    (eV) =      11.897510         11.887190
       Potential energy  (eV) =     -77.798733        -79.791770
       Total energy      (eV) =     -65.901223        -67.904579
       Temperature       (K)  =    2969.134050       2966.558625
       Pressure         (GPa) =      24.088968         21.513099
  ** Time :            1.90800 ps :
     Properties:                   Instantaneous       Averaged
       Kinetic energy    (eV) =      12.037472         11.888608
       Potential energy  (eV) =     -78.645623        -79.780957
       Total energy      (eV) =     -66.608151        -67.892349
       Temperature       (K)  =    3004.062815       2966.912438
       Pressure         (GPa) =      23.477783         21.531633
  ** Time :            1.92600 ps :
     Properties:                   Instantaneous       Averaged
       Kinetic energy    (eV) =      11.805118         11.887828
       Potential energy  (eV) =     -78.364869        -79.767723
       Total energy      (eV) =     -66.559751        -67.879895
       Temperature       (K)  =    2946.076731       2966.717711
       Pressure         (GPa) =      23.418156         21.549264
  ** Time :            1.94400 ps :
     Properties:                   Instantaneous       Averaged
       Kinetic energy    (eV) =      12.133411         11.890102
       Potential energy  (eV) =     -78.879444        -79.759498
       Total energy      (eV) =     -66.746033        -67.869396
       Temperature       (K)  =    3028.005154       2967.285188
       Pressure         (GPa) =      22.618063         21.559161
  ** Time :            1.96200 ps :
     Properties:                   Instantaneous       Averaged
       Kinetic energy    (eV) =      11.675798         11.888136
       Potential energy  (eV) =     -79.030352        -79.752808
       Total energy      (eV) =     -67.354554        -67.864673
       Temperature       (K)  =    2913.803668       2966.794532
       Pressure         (GPa) =      22.375438         21.566650
  ** Time :            1.98000 ps :
     Properties:                   Instantaneous       Averaged
       Kinetic energy    (eV) =      11.513995         11.884735
       Potential energy  (eV) =     -76.666472        -79.724751
       Total energy      (eV) =     -65.152477        -67.840016
       Temperature       (K)  =    2873.424344       2965.945712
       Pressure         (GPa) =      24.585223         21.594091
  ** Time :            1.99800 ps :
     Properties:                   Instantaneous       Averaged
       Kinetic energy    (eV) =      12.417731         11.889536
       Potential energy  (eV) =     -77.530893        -79.704986
       Total energy      (eV) =     -65.113162        -67.815450
       Temperature       (K)  =    3098.959819       2967.144037
       Pressure         (GPa) =      23.799601         21.613961
  ** Time :            2.01600 ps :
     Properties:                   Instantaneous       Averaged
       Kinetic energy    (eV) =      12.189154         11.892211
       Potential energy  (eV) =     -80.310509        -79.710393
       Total energy      (eV) =     -68.121354        -67.818181
       Temperature       (K)  =    3041.916541       2967.811649
       Pressure         (GPa) =      20.779109         21.606507
  ** Time :            2.03400 ps :
     Properties:                   Instantaneous       Averaged
       Kinetic energy    (eV) =      11.991588         11.893091
       Potential energy  (eV) =     -81.282091        -79.724302
       Total energy      (eV) =     -69.290502        -67.831211
       Temperature       (K)  =    2992.612056       2968.031121
       Pressure         (GPa) =      19.765407         21.590214
  ** Time :            2.05200 ps :
     Properties:                   Instantaneous       Averaged
       Kinetic energy    (eV) =      11.674789         11.891176
       Potential energy  (eV) =     -80.543313        -79.731486
       Total energy      (eV) =     -68.868524        -67.840310
       Temperature       (K)  =    2913.551874       2967.553233
       Pressure         (GPa) =      20.533849         21.580947
  ** Time :            2.07000 ps :
     Properties:                   Instantaneous       Averaged
       Kinetic energy    (eV) =      11.817315         11.890534
       Potential energy  (eV) =     -79.166527        -79.726573
       Total energy      (eV) =     -67.349213        -67.836040
       Temperature       (K)  =    2949.120427       2967.392948
       Pressure         (GPa) =      21.862340         21.583394
  ** Time :            2.08800 ps :
     Properties:                   Instantaneous       Averaged
       Kinetic energy    (eV) =      11.961296         11.891144
       Potential energy  (eV) =     -79.366218        -79.723467
       Total energy      (eV) =     -67.404922        -67.832323
       Temperature       (K)  =    2985.052319       2967.545184
       Pressure         (GPa) =      21.852034         21.585710
  ** Time :            2.10600 ps :
     Properties:                   Instantaneous       Averaged
       Kinetic energy    (eV) =      11.771706         11.890123
       Potential energy  (eV) =     -78.907052        -79.716489
       Total energy      (eV) =     -67.135346        -67.826366
       Temperature       (K)  =    2937.738443       2967.290425
       Pressure         (GPa) =      22.457612         21.593162
  ** Time :            2.12400 ps :
     Properties:                   Instantaneous       Averaged
       Kinetic energy    (eV) =      12.021315         11.891235
       Potential energy  (eV) =     -78.647401        -79.707429
       Total energy      (eV) =     -66.626086        -67.816194
       Temperature       (K)  =    3000.030604       2967.567885
       Pressure         (GPa) =      22.976323         21.604884
  ** Time :            2.14200 ps :
     Properties:                   Instantaneous       Averaged
       Kinetic energy    (eV) =      11.962412         11.891833
       Potential energy  (eV) =     -79.579777        -79.706356
       Total energy      (eV) =     -67.617364        -67.814523
       Temperature       (K)  =    2985.330890       2967.717153
       Pressure         (GPa) =      22.252345         21.610325
  ** Time :            2.16000 ps :
     Properties:                   Instantaneous       Averaged
       Kinetic energy    (eV) =      11.495597         11.888531
       Potential energy  (eV) =     -78.200783        -79.693810
       Total energy      (eV) =     -66.705186        -67.805279
       Temperature       (K)  =    2868.832895       2966.893118
       Pressure         (GPa) =      23.675604         21.627535
  ** Time :            2.17800 ps :
     Properties:                   Instantaneous       Averaged
       Kinetic energy    (eV) =      11.769971         11.887551
       Potential energy  (eV) =     -76.108187        -79.664176
       Total energy      (eV) =     -64.338215        -67.776625
       Temperature       (K)  =    2937.305489       2966.648592
       Pressure         (GPa) =      26.097605         21.664478
  ** Time :            2.19600 ps :
     Properties:                   Instantaneous       Averaged
       Kinetic energy    (eV) =      12.148783         11.889692
       Potential energy  (eV) =     -76.978175        -79.642160
       Total energy      (eV) =     -64.829392        -67.752468
       Temperature       (K)  =    3031.841547       2967.182961
       Pressure         (GPa) =      25.390966         21.695023
  ** Time :            2.21400 ps :
     Properties:                   Instantaneous       Averaged
       Kinetic energy    (eV) =      11.936526         11.890073
       Potential energy  (eV) =     -78.178787        -79.630263
       Total energy      (eV) =     -66.242260        -67.740190
       Temperature       (K)  =    2978.870853       2967.277984
       Pressure         (GPa) =      23.817225         21.712277
  ** Time :            2.23200 ps :
     Properties:                   Instantaneous       Averaged
       Kinetic energy    (eV) =      11.549674         11.887328
       Potential energy  (eV) =     -77.149488        -79.610256
       Total energy      (eV) =     -65.599814        -67.722929
       Temperature       (K)  =    2882.328252       2966.592906
       Pressure         (GPa) =      24.431404         21.734205
  ** Time :            2.25000 ps :
     Properties:                   Instantaneous       Averaged
       Kinetic energy    (eV) =      11.783736         11.886499
       Potential energy  (eV) =     -74.950371        -79.572977
       Total energy      (eV) =     -63.166635        -67.686478
       Temperature       (K)  =    2940.740501       2966.386086
       Pressure         (GPa) =      26.121425         21.769303
  ** Time :            2.26800 ps :
     Properties:                   Instantaneous       Averaged
       Kinetic energy    (eV) =      12.430453         11.890816
       Potential energy  (eV) =     -77.786169        -79.558796
       Total energy      (eV) =     -65.355716        -67.667980
       Temperature       (K)  =    3102.134804       2967.463457
       Pressure         (GPa) =      23.671000         21.784396
  ** Time :            2.28600 ps :
     Properties:                   Instantaneous       Averaged
       Kinetic energy    (eV) =      11.732735         11.889571
       Potential energy  (eV) =     -78.758201        -79.552492
       Total energy      (eV) =     -67.025466        -67.662921
       Temperature       (K)  =    2928.012758       2967.152822
       Pressure         (GPa) =      22.774848         21.792195
  ** Time :            2.30400 ps :
     Properties:                   Instantaneous       Averaged
       Kinetic energy    (eV) =      11.869869         11.889418
       Potential energy  (eV) =     -78.025917        -79.540566
       Total energy      (eV) =     -66.156048        -67.651148
       Temperature       (K)  =    2962.235772       2967.114407
       Pressure         (GPa) =      23.639036         21.806623
  ** Time :            2.32200 ps :
     Properties:                   Instantaneous       Averaged
       Kinetic energy    (eV) =      11.968539         11.890031
       Potential energy  (eV) =     -78.312891        -79.531049
       Total energy      (eV) =     -66.344352        -67.641018
       Temperature       (K)  =    2986.859943       2967.267473
       Pressure         (GPa) =      23.368727         21.818732
  ** Time :            2.34000 ps :
     Properties:                   Instantaneous       Averaged
       Kinetic energy    (eV) =      11.964726         11.890605
       Potential energy  (eV) =     -78.979011        -79.526803
       Total energy      (eV) =     -67.014285        -67.636197
       Temperature       (K)  =    2985.908291       2967.410864
       Pressure         (GPa) =      22.669864         21.825280
  ** Time :            2.35800 ps :
     Properties:                   Instantaneous       Averaged
       Kinetic energy    (eV) =      11.624445         11.888574
       Potential energy  (eV) =     -77.936438        -79.514663
       Total energy      (eV) =     -66.311993        -67.626089
       Temperature       (K)  =    2900.988036       2966.903820
       Pressure         (GPa) =      23.439204         21.837600
  ** Time :            2.37600 ps :
     Properties:                   Instantaneous       Averaged
       Kinetic energy    (eV) =      11.791131         11.887836
       Potential energy  (eV) =     -77.117211        -79.496500
       Total energy      (eV) =     -65.326080        -67.608665
       Temperature       (K)  =    2942.586109       2966.719595
       Pressure         (GPa) =      24.346763         21.856608
  ** Time :            2.39400 ps :
     Properties:                   Instantaneous       Averaged
       Kinetic energy    (eV) =      11.777977         11.887009
       Potential energy  (eV) =     -76.117049        -79.471091
       Total energy      (eV) =     -64.339072        -67.584081
       Temperature       (K)  =    2939.303409       2966.513458
       Pressure         (GPa) =      25.453516         21.883653
  ** Time :            2.41200 ps :
     Properties:                   Instantaneous       Averaged
       Kinetic energy    (eV) =      12.201820         11.889359
       Potential energy  (eV) =     -76.787030        -79.451060
       Total energy      (eV) =     -64.585210        -67.561701
       Temperature       (K)  =    3045.077250       2967.099755
       Pressure         (GPa) =      24.767859         21.905177
  ** Time :            2.43000 ps :
     Properties:                   Instantaneous       Averaged
       Kinetic energy    (eV) =      12.415355         11.893255
       Potential energy  (eV) =     -79.865262        -79.454128
       Total energy      (eV) =     -67.449907        -67.560873
       Temperature       (K)  =    3098.366927       2968.072104
       Pressure         (GPa) =      21.402861         21.901456
  ** Time :            2.44800 ps :
     Properties:                   Instantaneous       Averaged
       Kinetic energy    (eV) =      11.624988         11.891283
       Potential energy  (eV) =     -80.491933        -79.461759
       Total energy      (eV) =     -68.866944        -67.570477
       Temperature       (K)  =    2901.123685       2967.579837
       Pressure         (GPa) =      20.517311         21.891278
  ** Time :            2.46600 ps :
     Properties:                   Instantaneous       Averaged
       Kinetic energy    (eV) =      11.755373         11.890291
       Potential energy  (eV) =     -78.167899        -79.452315
       Total energy      (eV) =     -66.412527        -67.562025
       Temperature       (K)  =    2933.662270       2967.332263
       Pressure         (GPa) =      23.005788         21.899413
  ** Time :            2.48400 ps :
     Properties:                   Instantaneous       Averaged
       Kinetic energy    (eV) =      12.304104         11.893289
       Potential energy  (eV) =     -80.139825        -79.457297
       Total energy      (eV) =     -67.835721        -67.564008
       Temperature       (K)  =    3070.603238       2968.080604
       Pressure         (GPa) =      21.861665         21.899140
  ** Time :            2.50200 ps :
     Properties:                   Instantaneous       Averaged
       Kinetic energy    (eV) =      11.687048         11.891805
       Potential energy  (eV) =     -80.243554        -79.462954
       Total energy      (eV) =     -68.556505        -67.571148
       Temperature       (K)  =    2916.611266       2967.710321
       Pressure         (GPa) =      22.012684         21.899957
  ** Time :            2.52000 ps :
     Properties:                   Instantaneous       Averaged
       Kinetic energy    (eV) =      11.998405         11.892567
       Potential energy  (eV) =     -79.747583        -79.464987
       Total energy      (eV) =     -67.749178        -67.572420
       Temperature       (K)  =    2994.313265       2967.900342
       Pressure         (GPa) =      22.742085         21.905972
  ** Time :            2.53800 ps :
     Properties:                   Instantaneous       Averaged
       Kinetic energy    (eV) =      11.951877         11.892987
       Potential energy  (eV) =     -80.053015        -79.469157
       Total energy      (eV) =     -68.101138        -67.576170
       Temperature       (K)  =    2982.701711       2968.005316
       Pressure         (GPa) =      22.212377         21.908145
  ** Time :            2.55600 ps :
     Properties:                   Instantaneous       Averaged
       Kinetic energy    (eV) =      12.112340         11.894532
       Potential energy  (eV) =     -80.619308        -79.477257
       Total energy      (eV) =     -68.506968        -67.582725
       Temperature       (K)  =    3022.746763       2968.390819
       Pressure         (GPa) =      21.115973         21.902566
  ** Time :            2.57400 ps :
     Properties:                   Instantaneous       Averaged
       Kinetic energy    (eV) =      11.887722         11.894485
       Potential energy  (eV) =     -81.181685        -79.489176
       Total energy      (eV) =     -69.293963        -67.594691
       Temperature       (K)  =    2966.691296       2968.378934
       Pressure         (GPa) =      20.107327         21.890012
  ** Time :            2.59200 ps :
     Properties:                   Instantaneous       Averaged
       Kinetic energy    (eV) =      11.607441         11.892491
       Potential energy  (eV) =     -79.822839        -79.491493
       Total energy      (eV) =     -68.215399        -67.599002
       Temperature       (K)  =    2896.744474       2967.881473
       Pressure         (GPa) =      21.349412         21.886258
  ** Time :            2.61000 ps :
     Properties:                   Instantaneous       Averaged
       Kinetic energy    (eV) =      11.862751         11.892286
       Potential energy  (eV) =     -78.486544        -79.484562
       Total energy      (eV) =     -66.623793        -67.592276
       Temperature       (K)  =    2960.459640       2967.830288
       Pressure         (GPa) =      22.909247         21.893313
  ** Time :            2.62800 ps :
     Properties:                   Instantaneous       Averaged
       Kinetic energy    (eV) =      11.921782         11.892488
       Potential energy  (eV) =     -78.902809        -79.480578
       Total energy      (eV) =     -66.981027        -67.588090
       Temperature       (K)  =    2975.191159       2967.880705
       Pressure         (GPa) =      22.991290         21.900834
  ** Time :            2.64600 ps :
     Properties:                   Instantaneous       Averaged
       Kinetic energy    (eV) =      11.763317         11.891609
       Potential energy  (eV) =     -78.121070        -79.471329
       Total energy      (eV) =     -66.357753        -67.579720
       Temperature       (K)  =    2935.644851       2967.661413
       Pressure         (GPa) =      23.852310         21.914109
  ** Time :            2.66400 ps :
     Properties:                   Instantaneous       Averaged
       Kinetic energy    (eV) =      12.266787         11.894144
       Potential energy  (eV) =     -78.758164        -79.466511
       Total energy      (eV) =     -66.491377        -67.572366
       Temperature       (K)  =    3061.290544       2968.294042
       Pressure         (GPa) =      23.027066         21.921629
  ** Time :            2.68200 ps :
     Properties:                   Instantaneous       Averaged
       Kinetic energy    (eV) =      12.161011         11.895935
       Potential energy  (eV) =     -80.924734        -79.476297
       Total energy      (eV) =     -68.763723        -67.580362
       Temperature       (K)  =    3034.893150       2968.741016
       Pressure         (GPa) =      20.491069         21.912028
  ** Time :            2.70000 ps :
     Properties:                   Instantaneous       Averaged
       Kinetic energy    (eV) =      11.718024         11.894749
       Potential energy  (eV) =     -80.767164        -79.484903
       Total energy      (eV) =     -69.049140        -67.590154
       Temperature       (K)  =    2924.341648       2968.445020
       Pressure         (GPa) =      20.582466         21.903164
  ** Time :            2.71800 ps :
     Properties:                   Instantaneous       Averaged
       Kinetic energy    (eV) =      11.787373         11.894038
       Potential energy  (eV) =     -79.412797        -79.484426
       Total energy      (eV) =     -67.625423        -67.590387
       Temperature       (K)  =    2941.648330       2968.267559
       Pressure         (GPa) =      22.213452         21.905219
  ** Time :            2.73600 ps :
     Properties:                   Instantaneous       Averaged
       Kinetic energy    (eV) =      11.857287         11.893797
       Potential energy  (eV) =     -79.185961        -79.482462
       Total energy      (eV) =     -67.328674        -67.588666
       Temperature       (K)  =    2959.095901       2968.207219
       Pressure         (GPa) =      22.500880         21.909138
  ** Time :            2.75400 ps :
     Properties:                   Instantaneous       Averaged
       Kinetic energy    (eV) =      12.046835         11.894797
       Potential energy  (eV) =     -79.033032        -79.479525
       Total energy      (eV) =     -66.986197        -67.584728
       Temperature       (K)  =    3006.399418       2968.456841
       Pressure         (GPa) =      22.378847         21.912208
  ** Time :            2.77200 ps :
     Properties:                   Instantaneous       Averaged
       Kinetic energy    (eV) =      12.079196         11.895994
       Potential energy  (eV) =     -80.551977        -79.486489
       Total energy      (eV) =     -68.472781        -67.590494
       Temperature       (K)  =    3014.475391       2968.755663
       Pressure         (GPa) =      20.954608         21.905990
  ** Time :            2.79000 ps :
     Properties:                   Instantaneous       Averaged
       Kinetic energy    (eV) =      11.621960         11.894226
       Potential energy  (eV) =     -79.638161        -79.487467
       Total energy      (eV) =     -68.016201        -67.593241
       Temperature       (K)  =    2900.367782       2968.314451
       Pressure         (GPa) =      21.729801         21.904853
  ** Time :            2.80800 ps :
     Properties:                   Instantaneous       Averaged
       Kinetic energy    (eV) =      11.931334         11.894464
       Potential energy  (eV) =     -79.159658        -79.485366
       Total energy      (eV) =     -67.228324        -67.590902
       Temperature       (K)  =    2977.575133       2968.373814
       Pressure         (GPa) =      22.317720         21.907500
  ** Time :            2.82600 ps :
     Properties:                   Instantaneous       Averaged
       Kinetic energy    (eV) =      11.715615         11.893325
       Potential energy  (eV) =     -78.397014        -79.478434
       Total energy      (eV) =     -66.681400        -67.585109
       Temperature       (K)  =    2923.740344       2968.089525
       Pressure         (GPa) =      22.946035         21.914114
  ** Time :            2.84400 ps :
     Properties:                   Instantaneous       Averaged
       Kinetic energy    (eV) =      12.133316         11.894844
       Potential energy  (eV) =     -78.607260        -79.472920
       Total energy      (eV) =     -66.473944        -67.578076
       Temperature       (K)  =    3027.981410       2968.468587
       Pressure         (GPa) =      22.883297         21.920248
  ** Time :            2.86200 ps :
     Properties:                   Instantaneous       Averaged
       Kinetic energy    (eV) =      11.853180         11.894582
       Potential energy  (eV) =     -79.254172        -79.471544
       Total energy      (eV) =     -67.400992        -67.576962
       Temperature       (K)  =    2958.071063       2968.403194
       Pressure         (GPa) =      22.245815         21.922296
  ** Time :            2.88000 ps :
     Properties:                   Instantaneous       Averaged
       Kinetic energy    (eV) =      12.016096         11.895341
       Potential energy  (eV) =     -78.871665        -79.467795
       Total energy      (eV) =     -66.855569        -67.572454
       Temperature       (K)  =    2998.728253       2968.592726
       Pressure         (GPa) =      22.549809         21.926218
  ** Time :            2.89800 ps :
     Properties:                   Instantaneous       Averaged
       Kinetic energy    (eV) =      11.803253         11.894769
       Potential energy  (eV) =     -79.280948        -79.466634
       Total energy      (eV) =     -67.477695        -67.571865
       Temperature       (K)  =    2945.611162       2968.449983
       Pressure         (GPa) =      22.213847         21.928005
  ** Time :            2.91600 ps :
     Properties:                   Instantaneous       Averaged
       Kinetic energy    (eV) =      11.739193         11.893809
       Potential energy  (eV) =     -77.873273        -79.456799
       Total energy      (eV) =     -66.134081        -67.562990
       Temperature       (K)  =    2929.624404       2968.210319
       Pressure         (GPa) =      23.513963         21.937794
  ** Time :            2.93400 ps :
     Properties:                   Instantaneous       Averaged
       Kinetic energy    (eV) =      11.604105         11.892032
       Potential energy  (eV) =     -76.881604        -79.441000
       Total energy      (eV) =     -65.277499        -67.548968
       Temperature       (K)  =    2895.911911       2967.766770
       Pressure         (GPa) =      24.568248         21.953932
  ** Time :            2.95200 ps :
     Properties:                   Instantaneous       Averaged
       Kinetic energy    (eV) =      12.268401         11.894327
[...]
       Pressure         (GPa) =      21.576332         21.566396
  ** Time :            9.21600 ps :
     Properties:                   Instantaneous       Averaged
       Kinetic energy    (eV) =      12.802310         11.973225
       Potential energy  (eV) =     -80.697547        -79.865631
       Total energy      (eV) =     -67.895238        -67.892406
       Temperature       (K)  =    3194.935105       2988.029272
       Pressure         (GPa) =      20.332016         21.563985
  ** Time :            9.23400 ps :
     Properties:                   Instantaneous       Averaged
       Kinetic energy    (eV) =      13.854687         11.976892
       Potential energy  (eV) =     -81.726812        -79.869259
       Total energy      (eV) =     -67.872126        -67.892367
       Temperature       (K)  =    3457.565623       2988.944548
       Pressure         (GPa) =      19.311993         21.559596
  ** Time :            9.25200 ps :
     Properties:                   Instantaneous       Averaged
       Kinetic energy    (eV) =      15.220496         11.983203
       Potential energy  (eV) =     -83.132668        -79.875608
       Total energy      (eV) =     -67.912172        -67.892405
       Temperature       (K)  =    3798.416047       2990.519395
       Pressure         (GPa) =      18.371193         21.553392
  ** Time :            9.27000 ps :
     Properties:                   Instantaneous       Averaged
       Kinetic energy    (eV) =      13.128836         11.985427
       Potential energy  (eV) =     -81.020660        -79.877832
       Total energy      (eV) =     -67.891824        -67.892404
       Temperature       (K)  =    3276.422871       2991.074547
       Pressure         (GPa) =      20.417230         21.551186
  ** Time :            9.28800 ps :
     Properties:                   Instantaneous       Averaged
       Kinetic energy    (eV) =      10.680078         11.982898
       Potential energy  (eV) =     -78.525014        -79.875210
       Total energy      (eV) =     -67.844937        -67.892312
       Temperature       (K)  =    2665.312444       2990.443225
       Pressure         (GPa) =      22.580283         21.553181
  ** Time :            9.30600 ps :
     Properties:                   Instantaneous       Averaged
       Kinetic energy    (eV) =      12.425380         11.983753
       Potential energy  (eV) =     -80.343528        -79.876116
       Total energy      (eV) =     -67.918148        -67.892362
       Temperature       (K)  =    3100.868876       2990.656815
       Pressure         (GPa) =      21.337014         21.552763
  ** Time :            9.32400 ps :
     Properties:                   Instantaneous       Averaged
       Kinetic energy    (eV) =      12.296693         11.984358
       Potential energy  (eV) =     -80.183333        -79.876709
       Total energy      (eV) =     -67.886641        -67.892351
       Temperature       (K)  =    3068.753707       2990.807581
       Pressure         (GPa) =      21.714075         21.553074
  ** Time :            9.34200 ps :
     Properties:                   Instantaneous       Averaged
       Kinetic energy    (eV) =      11.456311         11.983340
       Potential energy  (eV) =     -79.348555        -79.875691
       Total energy      (eV) =     -67.892243        -67.892351
       Temperature       (K)  =    2859.028760       2990.553672
       Pressure         (GPa) =      22.607603         21.555106
  ** Time :            9.36000 ps :
     Properties:                   Instantaneous       Averaged
       Kinetic energy    (eV) =      10.718423         11.980908
       Potential energy  (eV) =     -78.586210        -79.873211
       Total energy      (eV) =     -67.867787        -67.892304
       Temperature       (K)  =    2674.881775       2989.946610
       Pressure         (GPa) =      23.002091         21.557888
  ** Time :            9.37800 ps :
     Properties:                   Instantaneous       Averaged
       Kinetic energy    (eV) =      11.608062         11.980192
       Potential energy  (eV) =     -79.487351        -79.872471
       Total energy      (eV) =     -67.879289        -67.892279
       Temperature       (K)  =    2896.899503       2989.768017
       Pressure         (GPa) =      22.047757         21.558829
  ** Time :            9.39600 ps :
     Properties:                   Instantaneous       Averaged
       Kinetic energy    (eV) =      12.441361         11.981075
       Potential energy  (eV) =     -80.350765        -79.873387
       Total energy      (eV) =     -67.909404        -67.892311
       Temperature       (K)  =    3104.856923       2989.988494
       Pressure         (GPa) =      21.218118         21.558176
  ** Time :            9.41400 ps :
     Properties:                   Instantaneous       Averaged
       Kinetic energy    (eV) =      10.806928         11.978830
       Potential energy  (eV) =     -78.666573        -79.871079
       Total energy      (eV) =     -67.859646        -67.892249
       Temperature       (K)  =    2696.968986       2989.428227
       Pressure         (GPa) =      22.311097         21.559616
  ** Time :            9.43200 ps :
     Properties:                   Instantaneous       Averaged
       Kinetic energy    (eV) =      11.475372         11.977870
       Potential energy  (eV) =     -79.372116        -79.870127
       Total energy      (eV) =     -67.896743        -67.892258
       Temperature       (K)  =    2863.785628       2989.188451
       Pressure         (GPa) =      21.634803         21.559759
  ** Time :            9.45000 ps :
     Properties:                   Instantaneous       Averaged
       Kinetic energy    (eV) =      11.915675         11.977751
       Potential energy  (eV) =     -79.805250        -79.870004
       Total energy      (eV) =     -67.889575        -67.892252
       Temperature       (K)  =    2973.667138       2989.158887
       Pressure         (GPa) =      21.184082         21.559044
  ** Time :            9.46800 ps :
     Properties:                   Instantaneous       Averaged
       Kinetic energy    (eV) =      11.175863         11.976227
       Potential energy  (eV) =     -79.068053        -79.868479
       Total energy      (eV) =     -67.892190        -67.892252
       Temperature       (K)  =    2789.040346       2988.778433
       Pressure         (GPa) =      21.943203         21.559774
  ** Time :            9.48600 ps :
     Properties:                   Instantaneous       Averaged
       Kinetic energy    (eV) =      10.041170         11.972555
       Potential energy  (eV) =     -77.915321        -79.864773
       Total energy      (eV) =     -67.874151        -67.892218
       Temperature       (K)  =    2505.867004       2987.862093
       Pressure         (GPa) =      23.017885         21.562541
  ** Time :            9.50400 ps :
     Properties:                   Instantaneous       Averaged
       Kinetic energy    (eV) =      10.137775         11.969080
       Potential energy  (eV) =     -78.025553        -79.861290
       Total energy      (eV) =     -67.887778        -67.892210
       Temperature       (K)  =    2529.975819       2986.994884
       Pressure         (GPa) =      23.023684         21.565308
  ** Time :            9.52200 ps :
     Properties:                   Instantaneous       Averaged
       Kinetic energy    (eV) =      10.581404         11.966457
       Potential energy  (eV) =     -78.474996        -79.858669
       Total energy      (eV) =     -67.893592        -67.892212
       Temperature       (K)  =    2640.687475       2986.340239
       Pressure         (GPa) =      22.567079         21.567202
  ** Time :            9.54000 ps :
     Properties:                   Instantaneous       Averaged
       Kinetic energy    (eV) =      10.642938         11.963959
       Potential energy  (eV) =     -78.535070        -79.856172
       Total energy      (eV) =     -67.892133        -67.892212
       Temperature       (K)  =    2656.043778       2985.717038
       Pressure         (GPa) =      22.375182         21.568726
  ** Time :            9.55800 ps :
     Properties:                   Instantaneous       Averaged
       Kinetic energy    (eV) =      10.664845         11.961513
       Potential energy  (eV) =     -78.548543        -79.853709
       Total energy      (eV) =     -67.883698        -67.892196
       Temperature       (K)  =    2661.510957       2985.106480
       Pressure         (GPa) =      22.425041         21.570339
  ** Time :            9.57600 ps :
     Properties:                   Instantaneous       Averaged
       Kinetic energy    (eV) =      10.737815         11.959213
       Potential energy  (eV) =     -78.643838        -79.851435
       Total energy      (eV) =     -67.906022        -67.892222
       Temperature       (K)  =    2679.721398       2984.532448
       Pressure         (GPa) =      22.829158         21.572705
  ** Time :            9.59400 ps :
     Properties:                   Instantaneous       Averaged
       Kinetic energy    (eV) =       9.354686         11.954326
       Potential energy  (eV) =     -77.233060        -79.846522
       Total energy      (eV) =     -67.878374        -67.892196
       Temperature       (K)  =    2334.548527       2983.312966
       Pressure         (GPa) =      24.401835         21.578013
  ** Time :            9.61200 ps :
     Properties:                   Instantaneous       Averaged
       Kinetic energy    (eV) =       9.163294         11.949100
       Potential energy  (eV) =     -77.034639        -79.841257
       Total energy      (eV) =     -67.871345        -67.892157
       Temperature       (K)  =    2286.785003       2982.008606
       Pressure         (GPa) =      24.453866         21.583398
  ** Time :            9.63000 ps :
     Properties:                   Instantaneous       Averaged
       Kinetic energy    (eV) =      11.423654         11.948117
       Potential energy  (eV) =     -79.319509        -79.840281
       Total energy      (eV) =     -67.895855        -67.892164
       Temperature       (K)  =    2850.878797       2981.763504
       Pressure         (GPa) =      21.995991         21.584170
  ** Time :            9.64800 ps :
     Properties:                   Instantaneous       Averaged
       Kinetic energy    (eV) =      12.773649         11.949658
       Potential energy  (eV) =     -80.687000        -79.841861
       Total energy      (eV) =     -67.913351        -67.892203
       Temperature       (K)  =    3187.782502       2982.147868
       Pressure         (GPa) =      20.431558         21.582019
  ** Time :            9.66600 ps :
     Properties:                   Instantaneous       Averaged
       Kinetic energy    (eV) =      12.665687         11.950991
       Potential energy  (eV) =     -80.555202        -79.843189
       Total energy      (eV) =     -67.889515        -67.892198
       Temperature       (K)  =    3160.839613       2982.480627
       Pressure         (GPa) =      20.674389         21.580329
  ** Time :            9.68400 ps :
     Properties:                   Instantaneous       Averaged
       Kinetic energy    (eV) =      12.384187         11.951796
       Potential energy  (eV) =     -80.293030        -79.844026
       Total energy      (eV) =     -67.908843        -67.892229
       Temperature       (K)  =    3090.588830       2982.681572
       Pressure         (GPa) =      21.689089         21.580531
  ** Time :            9.70200 ps :
     Properties:                   Instantaneous       Averaged
       Kinetic energy    (eV) =      10.333997         11.948795
       Potential energy  (eV) =     -78.188870        -79.840955
       Total energy      (eV) =     -67.854873        -67.892160
       Temperature       (K)  =    2578.944764       2981.932524
       Pressure         (GPa) =      23.793227         21.584636
  ** Time :            9.72000 ps :
     Properties:                   Instantaneous       Averaged
       Kinetic energy    (eV) =      12.433053         11.949691
       Potential energy  (eV) =     -80.346369        -79.841891
       Total energy      (eV) =     -67.913316        -67.892199
       Temperature       (K)  =    3102.783683       2982.156322
       Pressure         (GPa) =      21.996338         21.585399
  ** Time :            9.73800 ps :
     Properties:                   Instantaneous       Averaged
       Kinetic energy    (eV) =      12.649418         11.950985
       Potential energy  (eV) =     -80.569667        -79.843236
       Total energy      (eV) =     -67.920248        -67.892251
       Temperature       (K)  =    3156.779617       2982.479101
       Pressure         (GPa) =      21.525904         21.585289
  ** Time :            9.75600 ps :
     Properties:                   Instantaneous       Averaged
       Kinetic energy    (eV) =       9.690207         11.946814
       Potential energy  (eV) =     -77.544026        -79.838994
       Total energy      (eV) =     -67.853819        -67.892180
       Temperature       (K)  =    2418.280981       2981.438145
       Pressure         (GPa) =      23.813095         21.589399
  ** Time :            9.77400 ps :
     Properties:                   Instantaneous       Averaged
       Kinetic energy    (eV) =      10.448499         11.944054
       Potential energy  (eV) =     -78.347934        -79.836248
       Total energy      (eV) =     -67.899435        -67.892194
       Temperature       (K)  =    2607.519830       2980.749529
       Pressure         (GPa) =      23.321308         21.592589
  ** Time :            9.79200 ps :
     Properties:                   Instantaneous       Averaged
       Kinetic energy    (eV) =      11.156231         11.942606
       Potential energy  (eV) =     -79.067440        -79.834835
       Total energy      (eV) =     -67.911209        -67.892229
       Temperature       (K)  =    2784.141030       2980.388117
       Pressure         (GPa) =      22.591277         21.594425
  ** Time :            9.81000 ps :
     Properties:                   Instantaneous       Averaged
       Kinetic energy    (eV) =      11.290922         11.941410
       Potential energy  (eV) =     -79.183191        -79.833639
       Total energy      (eV) =     -67.892269        -67.892229
       Temperature       (K)  =    2817.754285       2980.089706
       Pressure         (GPa) =      22.322641         21.595761
  ** Time :            9.82800 ps :
     Properties:                   Instantaneous       Averaged
       Kinetic energy    (eV) =      12.857899         11.943089
       Potential energy  (eV) =     -80.768599        -79.835351
       Total energy      (eV) =     -67.910701        -67.892262
       Temperature       (K)  =    3208.807851       2980.508604
       Pressure         (GPa) =      20.948863         21.594576
  ** Time :            9.84600 ps :
     Properties:                   Instantaneous       Averaged
       Kinetic energy    (eV) =      12.579800         11.944253
       Potential energy  (eV) =     -80.478421        -79.836527
       Total energy      (eV) =     -67.898622        -67.892274
       Temperature       (K)  =    3139.405662       2980.799092
       Pressure         (GPa) =      20.968599         21.593432
  ** Time :            9.86400 ps :
     Properties:                   Instantaneous       Averaged
       Kinetic energy    (eV) =      10.981091         11.942495
       Potential energy  (eV) =     -78.871131        -79.834765
       Total energy      (eV) =     -67.890040        -67.892270
       Temperature       (K)  =    2740.433017       2980.360468
       Pressure         (GPa) =      22.272413         21.594671
  ** Time :            9.88200 ps :
     Properties:                   Instantaneous       Averaged
       Kinetic energy    (eV) =       9.969238         11.938901
       Potential energy  (eV) =     -77.831944        -79.831117
       Total energy      (eV) =     -67.862706        -67.892216
       Temperature       (K)  =    2487.915900       2979.463483
       Pressure         (GPa) =      23.034643         21.597293
  ** Time :            9.90000 ps :
     Properties:                   Instantaneous       Averaged
       Kinetic energy    (eV) =      12.380427         11.939704
       Potential energy  (eV) =     -80.296161        -79.831963
       Total energy      (eV) =     -67.915734        -67.892259
       Temperature       (K)  =    3089.650371       2979.663823
       Pressure         (GPa) =      20.988541         21.596187
  ** Time :            9.91800 ps :
     Properties:                   Instantaneous       Averaged
       Kinetic energy    (eV) =      12.988669         11.941608
       Potential energy  (eV) =     -80.910760        -79.833921
       Total energy      (eV) =     -67.922091        -67.892313
       Temperature       (K)  =    3241.442815       2980.138921
       Pressure         (GPa) =      20.727073         21.594609
  ** Time :            9.93600 ps :
     Properties:                   Instantaneous       Averaged
       Kinetic energy    (eV) =       9.132576         11.936519
       Potential energy  (eV) =     -77.013493        -79.828811
       Total energy      (eV) =     -67.880918        -67.892292
       Temperature       (K)  =    2279.118933       2978.868957
       Pressure         (GPa) =      24.390158         21.599674
  ** Time :            9.95400 ps :
     Properties:                   Instantaneous       Averaged
       Kinetic energy    (eV) =       7.749838         11.928948
       Potential energy  (eV) =     -75.601680        -79.821167
       Total energy      (eV) =     -67.851842        -67.892219
       Temperature       (K)  =    1934.043962       2976.979581
       Pressure         (GPa) =      25.396579         21.606540
  ** Time :            9.97200 ps :
     Properties:                   Instantaneous       Averaged
       Kinetic energy    (eV) =      10.843105         11.926988
       Potential energy  (eV) =     -78.788297        -79.819303
       Total energy      (eV) =     -67.945193        -67.892315
       Temperature       (K)  =    2705.997297       2976.490443
       Pressure         (GPa) =      22.497466         21.608148
  ** Time :            9.99000 ps :
     Properties:                   Instantaneous       Averaged
       Kinetic energy    (eV) =      10.077496         11.923655
       Potential energy  (eV) =     -77.960912        -79.815954
       Total energy      (eV) =     -67.883416        -67.892299
       Temperature       (K)  =    2514.932518       2975.658807
       Pressure         (GPa) =      22.907079         21.610488

  Peak dynamic memory used =       0.57 MB 


  Timing analysis for GULP :

--------------------------------------------------------------------------------
  Task / Subroutine                                          Time (Seconds)
--------------------------------------------------------------------------------
  Calculation of real space energy and derivatives                3.5560
  Calculation of many-body energy and derivatives                 1.8880
  Molecular dynamics - update of geometry                         0.0040
  Molecular dynamics - predictor                                  0.0040
  Molecular dynamics - corrector                                  0.0080
  Molecular dynamics - velocity correction                        0.0040
--------------------------------------------------------------------------------
  Total CPU time                                                  5.7240
--------------------------------------------------------------------------------


  Dump file written as Recovery_2_3000_0.006.res                               
  GULP ASCII trajectory file written as Trajectories_2_3000_0.006.trg           


  Job Finished at 17:42.22 17th May        2018                               

