********************************************************************************
*                       GENERAL UTILITY LATTICE PROGRAM                        *
*                                 Julian Gale                                  *
*                       Curtin Institute for Computation                       *
*                           Department of Chemistry                            *
*                    Curtin University, Western Australia                      *
********************************************************************************
* Version = 5.0.0 * Last modified =  18th April 2018                           *
********************************************************************************
*  single       - perform a single point run                                   *
*  md           - perform molecular dynamics run                               *
*  conv         - constant volume calculation                                  *
********************************************************************************
* molecular dynamics of silver                                                 *
********************************************************************************


  Job Started  at 17:42.32 17th May        2018                               

  Number of CPUs =     1


  Total number of configurations input =   1

********************************************************************************
*  Input for Configuration =   1                                               *
********************************************************************************

  Formula = Ag32                                                        

  Number of irreducible atoms/shells =      32


  Total number atoms/shells =      32

  Dimensionality = 3               :  Bulk   



  Supercell dimensions :  x =   2  y =   2  z =   2

  Cartesian lattice vectors (Angstroms) :

        8.170000    0.000000    0.000000
        0.000000    8.170000    0.000000
        0.000000    0.000000    8.170000

  Cell parameters (Angstroms/Degrees):

  a =       8.1700    alpha =  90.0000
  b =       8.1700    beta  =  90.0000
  c =       8.1700    gamma =  90.0000

  Initial cell volume =         545.338513 Angs**3

  Temperature of configuration =  3000.     K 

  Pressure of configuration =         0.000 GPa 

  Fractional coordinates of asymmetric unit :

--------------------------------------------------------------------------------
   No.  Atomic       x           y          z         Charge      Occupancy
        Label      (Frac)      (Frac)     (Frac)        (e)         (Frac)  
--------------------------------------------------------------------------------
      1 Ag    c    0.000000 *  0.000000 *  0.000000 *   0.00000    1.000000    
      2 Ag    c    0.000000 *  0.000000 *  0.500000 *   0.00000    1.000000    
      3 Ag    c    0.000000 *  0.500000 *  0.000000 *   0.00000    1.000000    
      4 Ag    c    0.000000 *  0.500000 *  0.500000 *   0.00000    1.000000    
      5 Ag    c    0.500000 *  0.000000 *  0.000000 *   0.00000    1.000000    
      6 Ag    c    0.500000 *  0.000000 *  0.500000 *   0.00000    1.000000    
      7 Ag    c    0.500000 *  0.500000 *  0.000000 *   0.00000    1.000000    
      8 Ag    c    0.500000 *  0.500000 *  0.500000 *   0.00000    1.000000    
      9 Ag    c    0.000000 *  0.250000 *  0.250000 *   0.00000    1.000000    
     10 Ag    c    0.000000 *  0.250000 *  0.750000 *   0.00000    1.000000    
     11 Ag    c    0.000000 *  0.750000 *  0.250000 *   0.00000    1.000000    
     12 Ag    c    0.000000 *  0.750000 *  0.750000 *   0.00000    1.000000    
     13 Ag    c    0.500000 *  0.250000 *  0.250000 *   0.00000    1.000000    
     14 Ag    c    0.500000 *  0.250000 *  0.750000 *   0.00000    1.000000    
     15 Ag    c    0.500000 *  0.750000 *  0.250000 *   0.00000    1.000000    
     16 Ag    c    0.500000 *  0.750000 *  0.750000 *   0.00000    1.000000    
     17 Ag    c    0.250000 *  0.000000 *  0.250000 *   0.00000    1.000000    
     18 Ag    c    0.250000 *  0.000000 *  0.750000 *   0.00000    1.000000    
     19 Ag    c    0.250000 *  0.500000 *  0.250000 *   0.00000    1.000000    
     20 Ag    c    0.250000 *  0.500000 *  0.750000 *   0.00000    1.000000    
     21 Ag    c    0.750000 *  0.000000 *  0.250000 *   0.00000    1.000000    
     22 Ag    c    0.750000 *  0.000000 *  0.750000 *   0.00000    1.000000    
     23 Ag    c    0.750000 *  0.500000 *  0.250000 *   0.00000    1.000000    
     24 Ag    c    0.750000 *  0.500000 *  0.750000 *   0.00000    1.000000    
     25 Ag    c    0.250000 *  0.250000 *  0.000000 *   0.00000    1.000000    
     26 Ag    c    0.250000 *  0.250000 *  0.500000 *   0.00000    1.000000    
     27 Ag    c    0.250000 *  0.750000 *  0.000000 *   0.00000    1.000000    
     28 Ag    c    0.250000 *  0.750000 *  0.500000 *   0.00000    1.000000    
     29 Ag    c    0.750000 *  0.250000 *  0.000000 *   0.00000    1.000000    
     30 Ag    c    0.750000 *  0.250000 *  0.500000 *   0.00000    1.000000    
     31 Ag    c    0.750000 *  0.750000 *  0.000000 *   0.00000    1.000000    
     32 Ag    c    0.750000 *  0.750000 *  0.500000 *   0.00000    1.000000    
--------------------------------------------------------------------------------



********************************************************************************
*  General input information                                                   *
********************************************************************************

  Species output for all configurations : 

--------------------------------------------------------------------------------
  Species    Type    Atomic    Atomic    Charge       Radii (Angs)     Library
                     Number     Mass       (e)     Cova   Ionic  VDW   Symbol
--------------------------------------------------------------------------------
    Ag       Core       47     107.87   0.000000   1.590  0.000  2.370          
--------------------------------------------------------------------------------


  Lattice summation method               =    Ewald          (3-D)
                                         =    Parry          (2-D)
                                         =    Saunders et al (1-D)
  Accuracy factor for lattice sums       =   12.000


  Time limit = Infinity

  Maximum range for interatomic potentials =    100000.000000 Angstroms

  General interatomic potentials :

--------------------------------------------------------------------------------
Atom  Types   Potential      Parameter       Value         Units   Cutoffs(Ang)
  1     2                                                            Min /  Max 
--------------------------------------------------------------------------------
Ag   c Ag   c Many-body                                             0.000  8.000
--------------------------------------------------------------------------------
Ag   c Ag   c Buckingham    Buckingham A     11454.950    eV        0.000 12.000
                            Buckingham rho  0.26432400    Ang       
                            Buckingham C     0.0000000    eV*Ang^6  
--------------------------------------------------------------------------------

  Embedded Atom Model Densities :

--------------------------------------------------------------------------------
  Atom(s)       Functional Form          A          B          C         n      
--------------------------------------------------------------------------------
  Ag   c        Exponential          1.388      2.173      2.889         0
--------------------------------------------------------------------------------


  Embedded Atom Model alloy parameters :

--------------------------------------------------------------------------------
  Atom(s)                          Scale factor 
--------------------------------------------------------------------------------
  Ag    c                            1.000000
--------------------------------------------------------------------------------

  Embedded Atom Model functional = Square Root

--------------------------------------------------------------------------------
  Atom                     A     
--------------------------------------------------------------------------------
  Ag    c               1.000000
--------------------------------------------------------------------------------


  Manybody second derivative cross term cutoffs to be scale by = 0.50000000

********************************************************************************
*  Output for configuration   1                                                *
********************************************************************************


  Components of energy : 

--------------------------------------------------------------------------------
  Interatomic potentials     =          39.71625760 eV    
  Many-body potentials       =        -134.45860512 eV    
  Monopole - monopole (real) =           0.00000000 eV    
  Monopole - monopole (recip)=           0.00000000 eV    
  Monopole - monopole (total)=           0.00000000 eV    
--------------------------------------------------------------------------------
  Total lattice energy       =         -94.74234752 eV    
--------------------------------------------------------------------------------
  Total lattice energy       =           -9141.1883 kJ/(mole unit cells)
--------------------------------------------------------------------------------

  Equations of motion will be integrated using the leapfrog Verlet algorithm.

********************************************************************************
*  Molecular Dynamics                                                          *
********************************************************************************

  Microcanonical ensemble (NVE) to be used

  No. of mobile ions        =                 32

  No. of degrees of freedom =                 93

  Time step                 =           0.009000 ps
  Equilibration time        =           5.000000 ps
  Production time           =          10.000000 ps
  Scaling time              =           5.004000 ps
  Scaling frequency         =           0.009000 ps
  Sampling frequency        =           0.018000 ps
  Write frequency           =           0.018000 ps
  TD-Force start time       =           0.000000 ps
  TD-Field start time       =           0.000000 ps



  Molecular dynamics equilibration :

  ** Time :            0.01800 ps :
     Properties:                   Instantaneous       Averaged
       Kinetic energy    (eV) =      11.529014         11.529014
       Potential energy  (eV) =     -94.258577        -94.258577
       Total energy      (eV) =     -82.729562        -82.729562
       Temperature       (K)  =    2877.172426       2877.172426
       Pressure         (GPa) =       2.953237          2.953237
  ** Time :            0.03600 ps :
     Properties:                   Instantaneous       Averaged
       Kinetic energy    (eV) =      10.346047         10.937530
       Potential energy  (eV) =     -90.226814        -92.242695
       Total energy      (eV) =     -79.880767        -81.305165
       Temperature       (K)  =    2581.951893       2729.562159
       Pressure         (GPa) =       8.121451          5.537344
  ** Time :            0.05400 ps :
     Properties:                   Instantaneous       Averaged
       Kinetic energy    (eV) =      10.287846         10.720969
       Potential energy  (eV) =     -83.812901        -89.432764
       Total energy      (eV) =     -73.525055        -78.711795
       Temperature       (K)  =    2567.427425       2675.517248
       Pressure         (GPa) =      15.825010          8.966566
  ** Time :            0.07200 ps :
     Properties:                   Instantaneous       Averaged
       Kinetic energy    (eV) =      11.835483         10.999598
       Potential energy  (eV) =     -81.989306        -87.571899
       Total energy      (eV) =     -70.153823        -76.572302
       Temperature       (K)  =    2953.654593       2745.051584
       Pressure         (GPa) =      18.689540         11.397310
  ** Time :            0.09000 ps :
     Properties:                   Instantaneous       Averaged
       Kinetic energy    (eV) =      11.443250         11.088328
       Potential energy  (eV) =     -81.621531        -86.381826
       Total energy      (eV) =     -70.178281        -75.293498
       Temperature       (K)  =    2855.769143       2767.195096
       Pressure         (GPa) =      19.037432         12.925334
  ** Time :            0.10800 ps :
     Properties:                   Instantaneous       Averaged
       Kinetic energy    (eV) =      11.489325         11.155161
       Potential energy  (eV) =     -80.082441        -85.331928
       Total energy      (eV) =     -68.593116        -74.176767
       Temperature       (K)  =    2867.267505       2783.873831
       Pressure         (GPa) =      20.701258         14.221321
  ** Time :            0.12600 ps :
     Properties:                   Instantaneous       Averaged
       Kinetic energy    (eV) =      11.439286         11.195750
       Potential energy  (eV) =     -79.096747        -84.441188
       Total energy      (eV) =     -67.657460        -73.245438
       Temperature       (K)  =    2854.780029       2794.003288
       Pressure         (GPa) =      22.186489         15.359203
  ** Time :            0.14400 ps :
     Properties:                   Instantaneous       Averaged
       Kinetic energy    (eV) =      11.111242         11.185187
       Potential energy  (eV) =     -76.936510        -83.503103
       Total energy      (eV) =     -65.825269        -72.317917
       Temperature       (K)  =    2772.913428       2791.367055
       Pressure         (GPa) =      24.460626         16.496880
  ** Time :            0.16200 ps :
     Properties:                   Instantaneous       Averaged
       Kinetic energy    (eV) =      12.042366         11.280429
       Potential energy  (eV) =     -76.357470        -82.709144
       Total energy      (eV) =     -64.315104        -71.428715
       Temperature       (K)  =    3005.284011       2815.135606
       Pressure         (GPa) =      25.150077         17.458347
  ** Time :            0.18000 ps :
     Properties:                   Instantaneous       Averaged
       Kinetic energy    (eV) =      12.348952         11.387281
       Potential energy  (eV) =     -78.873105        -82.325540
       Total energy      (eV) =     -66.524153        -70.938259
       Temperature       (K)  =    3081.795483       2841.801593
       Pressure         (GPa) =      22.678840         17.980396
  ** Time :            0.19800 ps :
     Properties:                   Instantaneous       Averaged
       Kinetic energy    (eV) =      11.759439         11.421114
       Potential energy  (eV) =     -79.691217        -82.086056
       Total energy      (eV) =     -67.931779        -70.664943
       Temperature       (K)  =    2934.676994       2850.244812
       Pressure         (GPa) =      21.571324         18.306844
  ** Time :            0.21600 ps :
     Properties:                   Instantaneous       Averaged
       Kinetic energy    (eV) =      11.681435         11.442807
       Potential energy  (eV) =     -79.194856        -81.845123
       Total energy      (eV) =     -67.513421        -70.402316
       Temperature       (K)  =    2915.210358       2855.658607
       Pressure         (GPa) =      21.918735         18.607835
  ** Time :            0.23400 ps :
     Properties:                   Instantaneous       Averaged
       Kinetic energy    (eV) =      11.949322         11.481770
       Potential energy  (eV) =     -79.319187        -81.650820
       Total energy      (eV) =     -67.369864        -70.169050
       Temperature       (K)  =    2982.064200       2865.382114
       Pressure         (GPa) =      21.734087         18.848316
  ** Time :            0.25200 ps :
     Properties:                   Instantaneous       Averaged
       Kinetic energy    (eV) =      12.061755         11.523197
       Potential energy  (eV) =     -80.188165        -81.546345
       Total energy      (eV) =     -68.126410        -70.023147
       Temperature       (K)  =    3010.122869       2875.720740
       Pressure         (GPa) =      20.847421         18.991109
  ** Time :            0.27000 ps :
     Properties:                   Instantaneous       Averaged
       Kinetic energy    (eV) =      11.727479         11.536816
       Potential energy  (eV) =     -80.538531        -81.479157
       Total energy      (eV) =     -68.811052        -69.942341
       Temperature       (K)  =    2926.701021       2879.119425
       Pressure         (GPa) =      20.366077         19.082774
  ** Time :            0.28800 ps :
     Properties:                   Instantaneous       Averaged
       Kinetic energy    (eV) =      11.820970         11.554576
       Potential energy  (eV) =     -80.292596        -81.404997
       Total energy      (eV) =     -68.471625        -69.850421
       Temperature       (K)  =    2950.032750       2883.551508
       Pressure         (GPa) =      20.556512         19.174882
  ** Time :            0.30600 ps :
     Properties:                   Instantaneous       Averaged
       Kinetic energy    (eV) =      11.450658         11.548463
       Potential energy  (eV) =     -80.037911        -81.324580
       Total energy      (eV) =     -68.587253        -69.776117
       Temperature       (K)  =    2857.617966       2882.026006
       Pressure         (GPa) =      21.140061         19.290481
  ** Time :            0.32400 ps :
     Properties:                   Instantaneous       Averaged
       Kinetic energy    (eV) =      11.261000         11.532493
       Potential energy  (eV) =     -77.937612        -81.136415
       Total energy      (eV) =     -66.676613        -69.603923
       Temperature       (K)  =    2810.286872       2878.040498
       Pressure         (GPa) =      23.451648         19.521657
  ** Time :            0.34200 ps :
     Properties:                   Instantaneous       Averaged
       Kinetic energy    (eV) =      12.123204         11.563583
       Potential energy  (eV) =     -78.088693        -80.976009
       Total energy      (eV) =     -65.965489        -69.412426
       Temperature       (K)  =    3025.457952       2885.799311
       Pressure         (GPa) =      23.518529         19.732019
  ** Time :            0.36000 ps :
     Properties:                   Instantaneous       Averaged
       Kinetic energy    (eV) =      11.393886         11.555098
       Potential energy  (eV) =     -78.406637        -80.847540
       Total energy      (eV) =     -67.012752        -69.292442
       Temperature       (K)  =    2843.449831       2883.681837
       Pressure         (GPa) =      22.941133         19.892474
  ** Time :            0.37800 ps :
     Properties:                   Instantaneous       Averaged
       Kinetic energy    (eV) =      11.654051         11.559810
       Potential energy  (eV) =     -76.814291        -80.655481
       Total energy      (eV) =     -65.160240        -69.095671
       Temperature       (K)  =    2908.376489       2884.857773
       Pressure         (GPa) =      24.384004         20.106357
  ** Time :            0.39600 ps :
     Properties:                   Instantaneous       Averaged
       Kinetic energy    (eV) =      11.822414         11.571746
       Potential energy  (eV) =     -77.779513        -80.524755
       Total energy      (eV) =     -65.957099        -68.953008
       Temperature       (K)  =    2950.393070       2887.836650
       Pressure         (GPa) =      23.744377         20.271721
  ** Time :            0.41400 ps :
     Properties:                   Instantaneous       Averaged
       Kinetic energy    (eV) =      11.750716         11.579528
       Potential energy  (eV) =     -77.502818        -80.393366
       Total energy      (eV) =     -65.752102        -68.813839
       Temperature       (K)  =    2932.500223       2889.778545
       Pressure         (GPa) =      24.044338         20.435748
  ** Time :            0.43200 ps :
     Properties:                   Instantaneous       Averaged
       Kinetic energy    (eV) =      12.003518         11.597194
       Potential energy  (eV) =     -78.615071        -80.319271
       Total energy      (eV) =     -66.611553        -68.722077
       Temperature       (K)  =    2995.589303       2894.187326
       Pressure         (GPa) =      22.631976         20.527258
  ** Time :            0.45000 ps :
     Properties:                   Instantaneous       Averaged
       Kinetic energy    (eV) =      11.926696         11.610374
       Potential energy  (eV) =     -79.645408        -80.292316
       Total energy      (eV) =     -67.718712        -68.681942
       Temperature       (K)  =    2976.417590       2897.476537
       Pressure         (GPa) =      21.152834         20.552281
  ** Time :            0.46800 ps :
     Properties:                   Instantaneous       Averaged
       Kinetic energy    (eV) =      11.590519         11.609610
       Potential energy  (eV) =     -79.350599        -80.256096
       Total energy      (eV) =     -67.760080        -68.646486
       Temperature       (K)  =    2892.521594       2897.285962
       Pressure         (GPa) =      21.271608         20.579947
  ** Time :            0.48600 ps :
     Properties:                   Instantaneous       Averaged
       Kinetic energy    (eV) =      11.690476         11.612606
       Potential energy  (eV) =     -79.157662        -80.215414
       Total energy      (eV) =     -67.467186        -68.602808
       Temperature       (K)  =    2917.466710       2898.033397
       Pressure         (GPa) =      21.808665         20.625455
  ** Time :            0.50400 ps :
     Properties:                   Instantaneous       Averaged
       Kinetic energy    (eV) =      12.120136         11.630732
       Potential energy  (eV) =     -79.324879        -80.183609
       Total energy      (eV) =     -67.204743        -68.552877
       Temperature       (K)  =    3024.692359       2902.556932
       Pressure         (GPa) =      21.513836         20.657183
  ** Time :            0.52200 ps :
     Properties:                   Instantaneous       Averaged
       Kinetic energy    (eV) =      12.256437         11.652308
       Potential energy  (eV) =     -81.855838        -80.241272
       Total energy      (eV) =     -69.599401        -68.588964
       Temperature       (K)  =    3058.707412       2907.941431
       Pressure         (GPa) =      18.783131         20.592561
  ** Time :            0.54000 ps :
     Properties:                   Instantaneous       Averaged
       Kinetic energy    (eV) =      11.482637         11.646652
       Potential energy  (eV) =     -81.453705        -80.281686
       Total energy      (eV) =     -69.971068        -68.635034
       Temperature       (K)  =    2865.598464       2906.529999
       Pressure         (GPa) =      18.856644         20.534697
  ** Time :            0.55800 ps :
     Properties:                   Instantaneous       Averaged
       Kinetic energy    (eV) =      11.980988         11.657437
       Potential energy  (eV) =     -81.565580        -80.323102
       Total energy      (eV) =     -69.584592        -68.665665
       Temperature       (K)  =    2989.966613       2909.221503
       Pressure         (GPa) =      18.975882         20.484412
  ** Time :            0.57600 ps :
     Properties:                   Instantaneous       Averaged
       Kinetic energy    (eV) =      11.689894         11.658451
       Potential energy  (eV) =     -81.563132        -80.361853
       Total energy      (eV) =     -69.873238        -68.703402
       Temperature       (K)  =    2917.321360       2909.474623
       Pressure         (GPa) =      18.913848         20.435332
  ** Time :            0.59400 ps :
     Properties:                   Instantaneous       Averaged
       Kinetic energy    (eV) =      12.141771         11.673097
       Potential energy  (eV) =     -82.030596        -80.412421
       Total energy      (eV) =     -69.888825        -68.739324
       Temperature       (K)  =    3030.091469       2913.129679
       Pressure         (GPa) =      18.450174         20.375176
  ** Time :            0.61200 ps :
     Properties:                   Instantaneous       Averaged
       Kinetic energy    (eV) =      11.600413         11.670960
       Potential energy  (eV) =     -82.666735        -80.478724
       Total energy      (eV) =     -71.066322        -68.807765
       Temperature       (K)  =    2894.990761       2912.596181
       Pressure         (GPa) =      17.951670         20.303896
  ** Time :            0.63000 ps :
     Properties:                   Instantaneous       Averaged
       Kinetic energy    (eV) =      11.118399         11.655172
       Potential energy  (eV) =     -80.350088        -80.475049
       Total energy      (eV) =     -69.231689        -68.819877
       Temperature       (K)  =    2774.699610       2908.656279
       Pressure         (GPa) =      20.689388         20.314910
  ** Time :            0.64800 ps :
     Properties:                   Instantaneous       Averaged
       Kinetic energy    (eV) =      11.263176         11.644283
       Potential energy  (eV) =     -78.231269        -80.412722
       Total energy      (eV) =     -66.968093        -68.768439
       Temperature       (K)  =    2810.830121       2905.938886
       Pressure         (GPa) =      23.546637         20.404681
  ** Time :            0.66600 ps :
     Properties:                   Instantaneous       Averaged
       Kinetic energy    (eV) =      11.544547         11.641588
       Potential energy  (eV) =     -76.539559        -80.308042
       Total energy      (eV) =     -64.995012        -68.666454
       Temperature       (K)  =    2881.048644       2905.266177
       Pressure         (GPa) =      25.342636         20.538139
  ** Time :            0.68400 ps :
     Properties:                   Instantaneous       Averaged
       Kinetic energy    (eV) =      12.339095         11.659943
       Potential energy  (eV) =     -77.990915        -80.247065
       Total energy      (eV) =     -65.651819        -68.587122
       Temperature       (K)  =    3079.335665       2909.846953
       Pressure         (GPa) =      23.722141         20.621928
  ** Time :            0.70200 ps :
     Properties:                   Instantaneous       Averaged
       Kinetic energy    (eV) =      12.012376         11.668980
       Potential energy  (eV) =     -79.429528        -80.226102
       Total energy      (eV) =     -67.417152        -68.557122
       Temperature       (K)  =    2997.799913       2912.102157
       Pressure         (GPa) =      21.725213         20.650218
  ** Time :            0.72000 ps :
     Properties:                   Instantaneous       Averaged
       Kinetic energy    (eV) =      11.905591         11.674895
       Potential energy  (eV) =     -80.112331        -80.223258
       Total energy      (eV) =     -68.206740        -68.548363
       Temperature       (K)  =    2971.150663       2913.578370
       Pressure         (GPa) =      20.980668         20.658479
  ** Time :            0.73800 ps :
     Properties:                   Instantaneous       Averaged
       Kinetic energy    (eV) =      11.527138         11.671291
       Potential energy  (eV) =     -79.475805        -80.205027
       Total energy      (eV) =     -67.948667        -68.533736
       Temperature       (K)  =    2876.704187       2912.678999
       Pressure         (GPa) =      22.010740         20.691461
  ** Time :            0.75600 ps :
     Properties:                   Instantaneous       Averaged
       Kinetic energy    (eV) =      11.278457         11.661938
       Potential energy  (eV) =     -77.957226        -80.151508
       Total energy      (eV) =     -66.678768        -68.489570
       Temperature       (K)  =    2814.643611       2910.344823
       Pressure         (GPa) =      24.261072         20.776452
  ** Time :            0.77400 ps :
     Properties:                   Instantaneous       Averaged
       Kinetic energy    (eV) =      11.376081         11.655290
       Potential energy  (eV) =     -75.821643        -80.050814
       Total energy      (eV) =     -64.445562        -68.395523
       Temperature       (K)  =    2839.006538       2908.685793
       Pressure         (GPa) =      26.571800         20.911227
  ** Time :            0.79200 ps :
     Properties:                   Instantaneous       Averaged
       Kinetic energy    (eV) =      12.134733         11.666187
       Potential energy  (eV) =     -76.939277        -79.980097
       Total energy      (eV) =     -64.804544        -68.313910
       Temperature       (K)  =    3028.335203       2911.405098
       Pressure         (GPa) =      25.292523         21.010802
  ** Time :            0.81000 ps :
     Properties:                   Instantaneous       Averaged
       Kinetic energy    (eV) =      12.027432         11.674214
       Potential energy  (eV) =     -77.825620        -79.932220
       Total energy      (eV) =     -65.798187        -68.258005
       Temperature       (K)  =    3001.557257       2913.408480
       Pressure         (GPa) =      23.859595         21.074109
  ** Time :            0.82800 ps :
     Properties:                   Instantaneous       Averaged
       Kinetic energy    (eV) =      12.397776         11.689944
       Potential energy  (eV) =     -80.389145        -79.942153
       Total energy      (eV) =     -67.991369        -68.252209
       Temperature       (K)  =    3093.979979       2917.333947
       Pressure         (GPa) =      21.197133         21.076783
  ** Time :            0.84600 ps :
     Properties:                   Instantaneous       Averaged
       Kinetic energy    (eV) =      11.717048         11.690521
       Potential energy  (eV) =     -81.214264        -79.969219
       Total energy      (eV) =     -69.497216        -68.278698
       Temperature       (K)  =    2924.098029       2917.477864
       Pressure         (GPa) =      20.172337         21.057540
  ** Time :            0.86400 ps :
     Properties:                   Instantaneous       Averaged
       Kinetic energy    (eV) =      11.506612         11.686689
       Potential energy  (eV) =     -80.036913        -79.970629
       Total energy      (eV) =     -68.530300        -68.283940
       Temperature       (K)  =    2871.581836       2916.521696
       Pressure         (GPa) =      21.180818         21.060108
  ** Time :            0.88200 ps :
     Properties:                   Instantaneous       Averaged
       Kinetic energy    (eV) =      11.801652         11.689035
       Potential energy  (eV) =     -79.636038        -79.963801
       Total energy      (eV) =     -67.834386        -68.274766
       Temperature       (K)  =    2945.211589       2917.107204
       Pressure         (GPa) =      21.595688         21.071038
  ** Time :            0.90000 ps :
     Properties:                   Instantaneous       Averaged
       Kinetic energy    (eV) =      11.204379         11.679342
       Potential energy  (eV) =     -78.830065        -79.941126
       Total energy      (eV) =     -67.625686        -68.261784
       Temperature       (K)  =    2796.156673       2914.688194
       Pressure         (GPa) =      22.566343         21.100944
  ** Time :            0.91800 ps :
     Properties:                   Instantaneous       Averaged
       Kinetic energy    (eV) =      11.193218         11.669810
       Potential energy  (eV) =     -75.997180        -79.863794
       Total energy      (eV) =     -64.803962        -68.193984
       Temperature       (K)  =    2793.371354       2912.309432
       Pressure         (GPa) =      25.278429         21.182856
  ** Time :            0.93600 ps :
     Properties:                   Instantaneous       Averaged
       Kinetic energy    (eV) =      12.529275         11.686339
       Potential energy  (eV) =     -78.159271        -79.831015
       Total energy      (eV) =     -65.629995        -68.144676
       Temperature       (K)  =    3126.796893       2916.434191
       Pressure         (GPa) =      23.330438         21.224155
  ** Time :            0.95400 ps :
     Properties:                   Instantaneous       Averaged
       Kinetic energy    (eV) =      11.574647         11.684231
       Potential energy  (eV) =     -79.053077        -79.816337
       Total energy      (eV) =     -67.478430        -68.132105
       Temperature       (K)  =    2888.560432       2915.908271
       Pressure         (GPa) =      22.141909         21.241471
  ** Time :            0.97200 ps :
     Properties:                   Instantaneous       Averaged
       Kinetic energy    (eV) =      11.916514         11.688533
       Potential energy  (eV) =     -78.518281        -79.792299
       Total energy      (eV) =     -66.601766        -68.103766
       Temperature       (K)  =    2973.876623       2916.981759
       Pressure         (GPa) =      22.648225         21.267522
  ** Time :            0.99000 ps :
     Properties:                   Instantaneous       Averaged
       Kinetic energy    (eV) =      11.983902         11.693903
       Potential energy  (eV) =     -79.666785        -79.790017
       Total energy      (eV) =     -67.682883        -68.096113
       Temperature       (K)  =    2990.693908       2918.321980
       Pressure         (GPa) =      21.620634         21.273943
  ** Time :            1.00800 ps :
     Properties:                   Instantaneous       Averaged
       Kinetic energy    (eV) =      11.680171         11.693658
       Potential energy  (eV) =     -79.665982        -79.787802
       Total energy      (eV) =     -67.985811        -68.094144
       Temperature       (K)  =    2914.895066       2918.260785
       Pressure         (GPa) =      21.757391         21.282576
  ** Time :            1.02600 ps :
     Properties:                   Instantaneous       Averaged
       Kinetic energy    (eV) =      11.633431         11.692601
       Potential energy  (eV) =     -79.146703        -79.776554
       Total energy      (eV) =     -67.513272        -68.083953
       Temperature       (K)  =    2903.230516       2917.997096
       Pressure         (GPa) =      22.364260         21.301553
  ** Time :            1.04400 ps :
     Properties:                   Instantaneous       Averaged
       Kinetic energy    (eV) =      11.881010         11.695850
       Potential energy  (eV) =     -79.287933        -79.768130
       Total energy      (eV) =     -67.406923        -68.072280
       Temperature       (K)  =    2965.016159       2918.807770
       Pressure         (GPa) =      22.312228         21.318978
  ** Time :            1.06200 ps :
     Properties:                   Instantaneous       Averaged
       Kinetic energy    (eV) =      11.953448         11.700216
       Potential energy  (eV) =     -79.585443        -79.765033
       Total energy      (eV) =     -67.631995        -68.064818
       Temperature       (K)  =    2983.093859       2919.897364
       Pressure         (GPa) =      21.994343         21.330425
  ** Time :            1.08000 ps :
     Properties:                   Instantaneous       Averaged
       Kinetic energy    (eV) =      11.642540         11.699255
       Potential energy  (eV) =     -80.090369        -79.770456
       Total energy      (eV) =     -68.447829        -68.071201
       Temperature       (K)  =    2905.503856       2919.657473
       Pressure         (GPa) =      21.733022         21.337135
  ** Time :            1.09800 ps :
     Properties:                   Instantaneous       Averaged
       Kinetic energy    (eV) =      11.498303         11.695960
       Potential energy  (eV) =     -78.974782        -79.757412
       Total energy      (eV) =     -67.476479        -68.061452
       Temperature       (K)  =    2869.508026       2918.835350
       Pressure         (GPa) =      23.007148         21.364512
  ** Time :            1.11600 ps :
     Properties:                   Instantaneous       Averaged
       Kinetic energy    (eV) =      11.725043         11.696429
       Potential energy  (eV) =     -78.230986        -79.732792
       Total energy      (eV) =     -66.505943        -68.036363
       Temperature       (K)  =    2926.093226       2918.952413
       Pressure         (GPa) =      23.581731         21.400274
  ** Time :            1.13400 ps :
     Properties:                   Instantaneous       Averaged
       Kinetic energy    (eV) =      11.731836         11.696991
       Potential energy  (eV) =     -78.395615        -79.711567
       Total energy      (eV) =     -66.663779        -68.014576
       Temperature       (K)  =    2927.788580       2919.092670
       Pressure         (GPa) =      23.246231         21.429575
  ** Time :            1.15200 ps :
     Properties:                   Instantaneous       Averaged
       Kinetic energy    (eV) =      11.745840         11.697755
       Potential energy  (eV) =     -77.923870        -79.683634
       Total energy      (eV) =     -66.178031        -67.985880
       Temperature       (K)  =    2931.283212       2919.283147
       Pressure         (GPa) =      23.554390         21.462775
  ** Time :            1.17000 ps :
     Properties:                   Instantaneous       Averaged
       Kinetic energy    (eV) =      12.320715         11.707339
       Potential energy  (eV) =     -78.812123        -79.670226
       Total energy      (eV) =     -66.491408        -67.962888
       Temperature       (K)  =    3074.748601       2921.674923
       Pressure         (GPa) =      22.623399         21.480631
  ** Time :            1.18800 ps :
     Properties:                   Instantaneous       Averaged
       Kinetic energy    (eV) =      12.247035         11.715516
       Potential energy  (eV) =     -81.344845        -79.695599
       Total energy      (eV) =     -69.097810        -67.980084
       Temperature       (K)  =    3056.361184       2923.715624
       Pressure         (GPa) =      19.876805         21.456330
  ** Time :            1.20600 ps :
     Properties:                   Instantaneous       Averaged
       Kinetic energy    (eV) =      11.743181         11.715929
       Potential energy  (eV) =     -81.492685        -79.722422
       Total energy      (eV) =     -69.749504        -68.006493
       Temperature       (K)  =    2930.619724       2923.818670
       Pressure         (GPa) =      19.451341         21.426405
  ** Time :            1.22400 ps :
     Properties:                   Instantaneous       Averaged
       Kinetic energy    (eV) =      11.796694         11.717116
       Potential energy  (eV) =     -81.365590        -79.746586
       Total energy      (eV) =     -69.568896        -68.029469
       Temperature       (K)  =    2943.974269       2924.115076
       Pressure         (GPa) =      19.643226         21.400182
  ** Time :            1.24200 ps :
     Properties:                   Instantaneous       Averaged
       Kinetic energy    (eV) =      11.775586         11.717964
       Potential energy  (eV) =     -81.043063        -79.765375
       Total energy      (eV) =     -69.267477        -68.047412
       Temperature       (K)  =    2938.706688       2924.326549
       Pressure         (GPa) =      19.957587         21.379275
  ** Time :            1.26000 ps :
     Properties:                   Instantaneous       Averaged
       Kinetic energy    (eV) =      12.020849         11.722291
       Potential energy  (eV) =     -81.529343        -79.790575
       Total energy      (eV) =     -69.508494        -68.068284
       Temperature       (K)  =    2999.914400       2925.406375
       Pressure         (GPa) =      19.690102         21.355144
  ** Time :            1.27800 ps :
     Properties:                   Instantaneous       Averaged
       Kinetic energy    (eV) =      11.833511         11.723857
       Potential energy  (eV) =     -81.997531        -79.821659
       Total energy      (eV) =     -70.164020        -68.097802
       Temperature       (K)  =    2953.162357       2925.797304
       Pressure         (GPa) =      19.651253         21.331145
  ** Time :            1.29600 ps :
     Properties:                   Instantaneous       Averaged
       Kinetic energy    (eV) =      11.253372         11.717323
       Potential energy  (eV) =     -80.734329        -79.834335
       Total energy      (eV) =     -69.480957        -68.117012
       Temperature       (K)  =    2808.383283       2924.166554
       Pressure         (GPa) =      21.336382         21.331218
  ** Time :            1.31400 ps :
     Properties:                   Instantaneous       Averaged
       Kinetic energy    (eV) =      11.270177         11.711197
       Potential energy  (eV) =     -78.437997        -79.815207
       Total energy      (eV) =     -67.167821        -68.104009
       Temperature       (K)  =    2812.577066       2922.637931
       Pressure         (GPa) =      23.654171         21.363039
  ** Time :            1.33200 ps :
     Properties:                   Instantaneous       Averaged
       Kinetic energy    (eV) =      11.368441         11.706566
       Potential energy  (eV) =     -76.689198        -79.772963
       Total energy      (eV) =     -65.320757        -68.066398
       Temperature       (K)  =    2837.099893       2921.482012
       Pressure         (GPa) =      24.975725         21.411859
  ** Time :            1.35000 ps :
     Properties:                   Instantaneous       Averaged
       Kinetic energy    (eV) =      11.671950         11.706104
       Potential energy  (eV) =     -76.665896        -79.731536
       Total energy      (eV) =     -64.993946        -68.025432
       Temperature       (K)  =    2912.843474       2921.366831
       Pressure         (GPa) =      25.038799         21.460218
  ** Time :            1.36800 ps :
     Properties:                   Instantaneous       Averaged
       Kinetic energy    (eV) =      11.189991         11.699313
       Potential energy  (eV) =     -74.494436        -79.662627
       Total energy      (eV) =     -63.304445        -67.963314
       Temperature       (K)  =    2792.565983       2919.672083
       Pressure         (GPa) =      27.041355         21.533654
  ** Time :            1.38600 ps :
     Properties:                   Instantaneous       Averaged
       Kinetic energy    (eV) =      12.276870         11.706814
       Potential energy  (eV) =     -75.908573        -79.613873
       Total energy      (eV) =     -63.631702        -67.907059
       Temperature       (K)  =    3063.806870       2921.543963
       Pressure         (GPa) =      25.831841         21.589475
  ** Time :            1.40400 ps :
     Properties:                   Instantaneous       Averaged
       Kinetic energy    (eV) =      12.509121         11.717100
       Potential energy  (eV) =     -79.010946        -79.606143
       Total energy      (eV) =     -66.501825        -67.889043
       Temperature       (K)  =    3121.767276       2924.110929
       Pressure         (GPa) =      22.352690         21.599260
  ** Time :            1.42200 ps :
     Properties:                   Instantaneous       Averaged
       Kinetic energy    (eV) =      12.026143         11.721012
       Potential energy  (eV) =     -80.872788        -79.622176
       Total energy      (eV) =     -68.846645        -67.901165
       Temperature       (K)  =    3001.235607       2925.087191
       Pressure         (GPa) =      20.446565         21.584669
  ** Time :            1.44000 ps :
     Properties:                   Instantaneous       Averaged
       Kinetic energy    (eV) =      11.742433         11.721280
       Potential energy  (eV) =     -80.871628        -79.637795
       Total energy      (eV) =     -69.129195        -67.916515
       Temperature       (K)  =    2930.433091       2925.154014
       Pressure         (GPa) =      20.661403         21.573128
  ** Time :            1.45800 ps :
     Properties:                   Instantaneous       Averaged
       Kinetic energy    (eV) =      11.646893         11.720361
       Potential energy  (eV) =     -80.265818        -79.645548
       Total energy      (eV) =     -68.618925        -67.925187
       Temperature       (K)  =    2906.590082       2924.924830
       Pressure         (GPa) =      21.536467         21.572675
  ** Time :            1.47600 ps :
     Properties:                   Instantaneous       Averaged
       Kinetic energy    (eV) =      11.454943         11.717124
       Potential energy  (eV) =     -78.977713        -79.637404
       Total energy      (eV) =     -67.522771        -67.920279
       Temperature       (K)  =    2858.687217       2924.117054
       Pressure         (GPa) =      23.031748         21.590469
  ** Time :            1.49400 ps :
     Properties:                   Instantaneous       Averaged
       Kinetic energy    (eV) =      11.776204         11.717836
       Potential energy  (eV) =     -78.226207        -79.620401
       Total energy      (eV) =     -66.450003        -67.902565
       Temperature       (K)  =    2938.860837       2924.294690
       Pressure         (GPa) =      24.023197         21.619779
  ** Time :            1.51200 ps :
     Properties:                   Instantaneous       Averaged
       Kinetic energy    (eV) =      11.876767         11.719728
       Potential energy  (eV) =     -78.414901        -79.606050
       Total energy      (eV) =     -66.538135        -67.886322
       Temperature       (K)  =    2963.957292       2924.766864
       Pressure         (GPa) =      23.765841         21.645327
  ** Time :            1.53000 ps :
     Properties:                   Instantaneous       Averaged
       Kinetic energy    (eV) =      11.618161         11.718533
       Potential energy  (eV) =     -78.257411        -79.590184
       Total energy      (eV) =     -66.639250        -67.871650
       Temperature       (K)  =    2899.419739       2924.468663
       Pressure         (GPa) =      23.713542         21.669659
  ** Time :            1.54800 ps :
     Properties:                   Instantaneous       Averaged
       Kinetic energy    (eV) =      11.556516         11.716649
       Potential energy  (eV) =     -77.363120        -79.564288
       Total energy      (eV) =     -65.806605        -67.847638
       Temperature       (K)  =    2884.035635       2923.998511
       Pressure         (GPa) =      24.539561         21.703030
  ** Time :            1.56600 ps :
     Properties:                   Instantaneous       Averaged
       Kinetic energy    (eV) =      11.678557         11.716212
       Potential energy  (eV) =     -76.613550        -79.530371
       Total energy      (eV) =     -64.934992        -67.814160
       Temperature       (K)  =    2914.492323       2923.889245
       Pressure         (GPa) =      25.383136         21.745330
  ** Time :            1.58400 ps :
     Properties:                   Instantaneous       Averaged
       Kinetic energy    (eV) =      12.124801         11.720855
       Potential energy  (eV) =     -77.258439        -79.504554
       Total energy      (eV) =     -65.133638        -67.783699
       Temperature       (K)  =    3025.856428       2925.047963
       Pressure         (GPa) =      25.034843         21.782711
  ** Time :            1.60200 ps :
     Properties:                   Instantaneous       Averaged
       Kinetic energy    (eV) =      11.947679         11.723403
       Potential energy  (eV) =     -78.536515        -79.493677
       Total energy      (eV) =     -66.588836        -67.770274
       Temperature       (K)  =    2981.654137       2925.683987
       Pressure         (GPa) =      24.043475         21.808113
  ** Time :            1.62000 ps :
     Properties:                   Instantaneous       Averaged
       Kinetic energy    (eV) =      11.616003         11.722210
       Potential energy  (eV) =     -78.448572        -79.482065
       Total energy      (eV) =     -66.832569        -67.759855
       Temperature       (K)  =    2898.881346       2925.386180
       Pressure         (GPa) =      24.170420         21.834361
  ** Time :            1.63800 ps :
     Properties:                   Instantaneous       Averaged
       Kinetic energy    (eV) =      11.828848         11.723382
       Potential energy  (eV) =     -77.961754        -79.465358
       Total energy      (eV) =     -66.132906        -67.741976
       Temperature       (K)  =    2951.998717       2925.678625
       Pressure         (GPa) =      24.256582         21.860978
  ** Time :            1.65600 ps :
     Properties:                   Instantaneous       Averaged
       Kinetic energy    (eV) =      12.151344         11.728033
       Potential energy  (eV) =     -79.374075        -79.464366
       Total energy      (eV) =     -67.222731        -67.736332
       Temperature       (K)  =    3032.480484       2926.839515
       Pressure         (GPa) =      22.343561         21.866224
  ** Time :            1.67400 ps :
     Properties:                   Instantaneous       Averaged
       Kinetic energy    (eV) =      12.250706         11.733654
       Potential energy  (eV) =     -81.062125        -79.481546
       Total energy      (eV) =     -68.811419        -67.747892
       Temperature       (K)  =    3057.277288       2928.242072
       Pressure         (GPa) =      20.236434         21.848699
  ** Time :            1.69200 ps :
     Properties:                   Instantaneous       Averaged
       Kinetic energy    (eV) =      11.493094         11.731094
       Potential energy  (eV) =     -81.468316        -79.502682
       Total energy      (eV) =     -69.975222        -67.771587
       Temperature       (K)  =    2868.208110       2927.603413
       Pressure         (GPa) =      19.833839         21.827265
  ** Time :            1.71000 ps :
     Properties:                   Instantaneous       Averaged
       Kinetic energy    (eV) =      11.136335         11.724834
       Potential energy  (eV) =     -78.761581        -79.494881
       Total energy      (eV) =     -67.625247        -67.770047
       Temperature       (K)  =    2779.175647       2926.041015
       Pressure         (GPa) =      22.898804         21.838544
  ** Time :            1.72800 ps :
     Properties:                   Instantaneous       Averaged
       Kinetic energy    (eV) =      12.015653         11.727863
       Potential energy  (eV) =     -78.433271        -79.483822
       Total energy      (eV) =     -66.417618        -67.755959
       Temperature       (K)  =    2998.617539       2926.797021
       Pressure         (GPa) =      24.016940         21.861236
  ** Time :            1.74600 ps :
     Properties:                   Instantaneous       Averaged
       Kinetic energy    (eV) =      11.914117         11.729783
       Potential energy  (eV) =     -79.214388        -79.481045
       Total energy      (eV) =     -67.300271        -67.751261
       Temperature       (K)  =    2973.278437       2927.276210
       Pressure         (GPa) =      23.121687         21.874230
  ** Time :            1.76400 ps :
     Properties:                   Instantaneous       Averaged
       Kinetic energy    (eV) =      12.203397         11.734616
       Potential energy  (eV) =     -80.275818        -79.489154
       Total energy      (eV) =     -68.072421        -67.754538
       Temperature       (K)  =    3045.470864       2928.482278
       Pressure         (GPa) =      21.381297         21.869200
  ** Time :            1.78200 ps :
     Properties:                   Instantaneous       Averaged
       Kinetic energy    (eV) =      12.051165         11.737814
       Potential energy  (eV) =     -81.772532        -79.512219
       Total energy      (eV) =     -69.721366        -67.774405
       Temperature       (K)  =    3007.480090       2929.280236
       Pressure         (GPa) =      19.281417         21.843061
  ** Time :            1.80000 ps :
     Properties:                   Instantaneous       Averaged
       Kinetic energy    (eV) =      11.498364         11.735419
       Potential energy  (eV) =     -81.466590        -79.531763
       Total energy      (eV) =     -69.968226        -67.796344
       Temperature       (K)  =    2869.523380       2928.682668
       Pressure         (GPa) =      19.524742         21.819878
  ** Time :            1.81800 ps :
     Properties:                   Instantaneous       Averaged
       Kinetic energy    (eV) =      11.380554         11.731906
       Potential energy  (eV) =     -79.886256        -79.535272
       Total energy      (eV) =     -68.505702        -67.803367
       Temperature       (K)  =    2840.122814       2927.805837
       Pressure         (GPa) =      21.355699         21.815282
  ** Time :            1.83600 ps :
     Properties:                   Instantaneous       Averaged
       Kinetic energy    (eV) =      11.930528         11.733853
       Potential energy  (eV) =     -80.155555        -79.541354
       Total energy      (eV) =     -68.225027        -67.807501
       Temperature       (K)  =    2977.373946       2928.291799
       Pressure         (GPa) =      21.353232         21.810752
  ** Time :            1.85400 ps :
     Properties:                   Instantaneous       Averaged
       Kinetic energy    (eV) =      11.582547         11.732384
       Potential energy  (eV) =     -79.917482        -79.545005
       Total energy      (eV) =     -68.334934        -67.812621
       Temperature       (K)  =    2890.532124       2927.925200
       Pressure         (GPa) =      21.242536         21.805235
  ** Time :            1.87200 ps :
     Properties:                   Instantaneous       Averaged
       Kinetic energy    (eV) =      11.792644         11.732963
       Potential energy  (eV) =     -79.522668        -79.544791
       Total energy      (eV) =     -67.730024        -67.811827
       Temperature       (K)  =    2942.963764       2928.069802
       Pressure         (GPa) =      21.523951         21.802531
  ** Time :            1.89000 ps :
     Properties:                   Instantaneous       Averaged
       Kinetic energy    (eV) =      12.048330         11.735967
       Potential energy  (eV) =     -80.062093        -79.549717
       Total energy      (eV) =     -68.013763        -67.813750
       Temperature       (K)  =    3006.772376       2928.819350
       Pressure         (GPa) =      20.912011         21.794049
  ** Time :            1.90800 ps :
     Properties:                   Instantaneous       Averaged
       Kinetic energy    (eV) =      11.831650         11.736869
       Potential energy  (eV) =     -81.287384        -79.566110
       Total energy      (eV) =     -69.455734        -67.829241
       Temperature       (K)  =    2952.698037       2929.044621
       Pressure         (GPa) =      19.708195         21.774372
  ** Time :            1.92600 ps :
     Properties:                   Instantaneous       Averaged
       Kinetic energy    (eV) =      11.406302         11.733780
       Potential energy  (eV) =     -80.102102        -79.571120
       Total energy      (eV) =     -68.695800        -67.837340
       Temperature       (K)  =    2846.548332       2928.273628
       Pressure         (GPa) =      20.707903         21.764405
  ** Time :            1.94400 ps :
     Properties:                   Instantaneous       Averaged
       Kinetic energy    (eV) =      12.074779         11.736937
       Potential energy  (eV) =     -79.980823        -79.574913
       Total energy      (eV) =     -67.906045        -67.837976
       Temperature       (K)  =    3013.372974       2929.061584
       Pressure         (GPa) =      20.851020         21.755947
  ** Time :            1.96200 ps :
     Properties:                   Instantaneous       Averaged
       Kinetic energy    (eV) =      11.631784         11.735973
       Potential energy  (eV) =     -80.863671        -79.586737
       Total energy      (eV) =     -69.231886        -67.850764
       Temperature       (K)  =    2902.819636       2928.820833
       Pressure         (GPa) =      20.093353         21.740694
  ** Time :            1.98000 ps :
     Properties:                   Instantaneous       Averaged
       Kinetic energy    (eV) =      11.579617         11.734551
       Potential energy  (eV) =     -79.883612        -79.589436
       Total energy      (eV) =     -68.303995        -67.854884
       Temperature       (K)  =    2889.800817       2928.466105
       Pressure         (GPa) =      21.580075         21.739234
  ** Time :            1.99800 ps :
     Properties:                   Instantaneous       Averaged
       Kinetic energy    (eV) =      11.264594         11.730317
       Potential energy  (eV) =     -78.165223        -79.576605
       Total energy      (eV) =     -66.900629        -67.846287
       Temperature       (K)  =    2811.183951       2927.409509
       Pressure         (GPa) =      23.756351         21.757406
  ** Time :            2.01600 ps :
     Properties:                   Instantaneous       Averaged
       Kinetic energy    (eV) =      12.238453         11.734854
       Potential energy  (eV) =     -78.482968        -79.566840
       Total energy      (eV) =     -66.244515        -67.831986
       Temperature       (K)  =    3054.219432       2928.541741
       Pressure         (GPa) =      23.483959         21.772822
  ** Time :            2.03400 ps :
     Properties:                   Instantaneous       Averaged
       Kinetic energy    (eV) =      12.013628         11.737321
       Potential energy  (eV) =     -80.151202        -79.572011
       Total energy      (eV) =     -68.137574        -67.834690
       Temperature       (K)  =    2998.112183       2929.157408
       Pressure         (GPa) =      21.320770         21.768821
  ** Time :            2.05200 ps :
     Properties:                   Instantaneous       Averaged
       Kinetic energy    (eV) =      11.659663         11.736640
       Potential energy  (eV) =     -80.407276        -79.579338
       Total energy      (eV) =     -68.747613        -67.842698
       Temperature       (K)  =    2909.777008       2928.987405
       Pressure         (GPa) =      20.961738         21.761742
  ** Time :            2.07000 ps :
     Properties:                   Instantaneous       Averaged
       Kinetic energy    (eV) =      11.249836         11.732407
       Potential energy  (eV) =     -78.555468        -79.570435
       Total energy      (eV) =     -67.305632        -67.838028
       Temperature       (K)  =    2807.500848       2927.931000
       Pressure         (GPa) =      22.978250         21.772320
  ** Time :            2.08800 ps :
     Properties:                   Instantaneous       Averaged
       Kinetic energy    (eV) =      11.667472         11.731847
       Potential energy  (eV) =     -77.642913        -79.553819
       Total energy      (eV) =     -65.975441        -67.821971
       Temperature       (K)  =    2911.725863       2927.791301
       Pressure         (GPa) =      24.404287         21.795009
  ** Time :            2.10600 ps :
     Properties:                   Instantaneous       Averaged
       Kinetic energy    (eV) =      11.401925         11.729027
       Potential energy  (eV) =     -76.757715        -79.529920
       Total energy      (eV) =     -65.355790        -67.800893
       Temperature       (K)  =    2845.456199       2927.087582
       Pressure         (GPa) =      25.514803         21.826803
  ** Time :            2.12400 ps :
     Properties:                   Instantaneous       Averaged
       Kinetic energy    (eV) =      11.670803         11.728534
       Potential energy  (eV) =     -76.132463        -79.501128
       Total energy      (eV) =     -64.461659        -67.772594
       Temperature       (K)  =    2912.557196       2926.964443
       Pressure         (GPa) =      26.338718         21.865039
  ** Time :            2.14200 ps :
     Properties:                   Instantaneous       Averaged
       Kinetic energy    (eV) =      11.954108         11.730430
       Potential energy  (eV) =     -76.981453        -79.479955
       Total energy      (eV) =     -65.027345        -67.749525
       Temperature       (K)  =    2983.258486       2927.437502
       Pressure         (GPa) =      25.318595         21.894061
  ** Time :            2.16000 ps :
     Properties:                   Instantaneous       Averaged
       Kinetic energy    (eV) =      11.008262         11.724412
       Potential energy  (eV) =     -75.688321        -79.448358
       Total energy      (eV) =     -64.680059        -67.723946
       Temperature       (K)  =    2747.213807       2925.935638
       Pressure         (GPa) =      25.838369         21.926930
  ** Time :            2.17800 ps :
     Properties:                   Instantaneous       Averaged
       Kinetic energy    (eV) =      12.582228         11.731501
       Potential energy  (eV) =     -77.399865        -79.431428
       Total energy      (eV) =     -64.817638        -67.699927
       Temperature       (K)  =    3140.011563       2927.704860
       Pressure         (GPa) =      24.661100         21.949526
  ** Time :            2.19600 ps :
     Properties:                   Instantaneous       Averaged
       Kinetic energy    (eV) =      12.004026         11.733735
       Potential energy  (eV) =     -79.169656        -79.429282
       Total energy      (eV) =     -67.165630        -67.695547
       Temperature       (K)  =    2995.715980       2928.262329
       Pressure         (GPa) =      22.666952         21.955407
  ** Time :            2.21400 ps :
     Properties:                   Instantaneous       Averaged
       Kinetic energy    (eV) =      11.956733         11.735548
       Potential energy  (eV) =     -80.375037        -79.436971
       Total energy      (eV) =     -68.418304        -67.701423
       Temperature       (K)  =    2983.913526       2928.714777
       Pressure         (GPa) =      21.131709         21.948710
  ** Time :            2.23200 ps :
     Properties:                   Instantaneous       Averaged
       Kinetic energy    (eV) =      11.814243         11.736182
       Potential energy  (eV) =     -80.088451        -79.442225
       Total energy      (eV) =     -68.274208        -67.706043
       Temperature       (K)  =    2948.353935       2928.873158
       Pressure         (GPa) =      21.057926         21.941526
  ** Time :            2.25000 ps :
     Properties:                   Instantaneous       Averaged
       Kinetic energy    (eV) =      11.818250         11.736839
       Potential energy  (eV) =     -80.412045        -79.449984
       Total energy      (eV) =     -68.593795        -67.713145
       Temperature       (K)  =    2949.353836       2929.037003
       Pressure         (GPa) =      20.905717         21.933240
  ** Time :            2.26800 ps :
     Properties:                   Instantaneous       Averaged
       Kinetic energy    (eV) =      11.349516         11.733765
       Potential energy  (eV) =     -79.102351        -79.447225
       Total energy      (eV) =     -67.752835        -67.713460
       Temperature       (K)  =    2832.376929       2928.269860
       Pressure         (GPa) =      22.274902         21.935951
  ** Time :            2.28600 ps :
     Properties:                   Instantaneous       Averaged
       Kinetic energy    (eV) =      11.923252         11.735257
       Potential energy  (eV) =     -78.313333        -79.438296
       Total energy      (eV) =     -66.390081        -67.703039
       Temperature       (K)  =    2975.558148       2928.642208
       Pressure         (GPa) =      22.954046         21.943968
  ** Time :            2.30400 ps :
     Properties:                   Instantaneous       Averaged
       Kinetic energy    (eV) =      11.403109         11.732662
       Potential energy  (eV) =     -78.343988        -79.429747
       Total energy      (eV) =     -66.940880        -67.697085
       Temperature       (K)  =    2845.751507       2927.994625
       Pressure         (GPa) =      22.693581         21.949824
  ** Time :            2.32200 ps :
     Properties:                   Instantaneous       Averaged
       Kinetic energy    (eV) =      11.931913         11.734207
       Potential energy  (eV) =     -77.125758        -79.411887
       Total energy      (eV) =     -65.193845        -67.677680
       Temperature       (K)  =    2977.719437       2928.380088
       Pressure         (GPa) =      23.752899         21.963802
  ** Time :            2.34000 ps :
     Properties:                   Instantaneous       Averaged
       Kinetic energy    (eV) =      12.266255         11.738299
       Potential energy  (eV) =     -79.646616        -79.413692
       Total energy      (eV) =     -67.380362        -67.675393
       Temperature       (K)  =    3061.157577       2929.401454
       Pressure         (GPa) =      21.581851         21.960864
  ** Time :            2.35800 ps :
     Properties:                   Instantaneous       Averaged
       Kinetic energy    (eV) =      11.976916         11.740121
       Potential energy  (eV) =     -80.466817        -79.421731
       Total energy      (eV) =     -68.489901        -67.681611
       Temperature       (K)  =    2988.950442       2929.856026
       Pressure         (GPa) =      20.881259         21.952622
  ** Time :            2.37600 ps :
     Properties:                   Instantaneous       Averaged
       Kinetic energy    (eV) =      11.937835         11.741619
       Potential energy  (eV) =     -81.396775        -79.436694
       Total energy      (eV) =     -69.458941        -67.695075
       Temperature       (K)  =    2979.197375       2930.229824
       Pressure         (GPa) =      19.998935         21.937822
  ** Time :            2.39400 ps :
     Properties:                   Instantaneous       Averaged
       Kinetic energy    (eV) =      11.778044         11.741893
       Potential energy  (eV) =     -81.118346        -79.449338
       Total energy      (eV) =     -69.340302        -67.707445
       Temperature       (K)  =    2939.320103       2930.298172
       Pressure         (GPa) =      19.873678         21.922302
  ** Time :            2.41200 ps :
     Properties:                   Instantaneous       Averaged
       Kinetic energy    (eV) =      11.890422         11.743001
       Potential energy  (eV) =     -81.346819        -79.463498
       Total energy      (eV) =     -69.456397        -67.720497
       Temperature       (K)  =    2967.365083       2930.574791
       Pressure         (GPa) =      19.684644         21.905603
  ** Time :            2.43000 ps :
     Properties:                   Instantaneous       Averaged
       Kinetic energy    (eV) =      11.792749         11.743369
       Potential energy  (eV) =     -81.247721        -79.476715
       Total energy      (eV) =     -69.454971        -67.733345
       Temperature       (K)  =    2942.989967       2930.666755
       Pressure         (GPa) =      20.005119         21.891525
  ** Time :            2.44800 ps :
     Properties:                   Instantaneous       Averaged
       Kinetic energy    (eV) =      11.654979         11.742720
       Potential energy  (eV) =     -80.817131        -79.486571
       Total energy      (eV) =     -69.162152        -67.743851
       Temperature       (K)  =    2908.608195       2930.504560
       Pressure         (GPa) =      20.723511         21.882937
  ** Time :            2.46600 ps :
     Properties:                   Instantaneous       Averaged
       Kinetic energy    (eV) =      11.214561         11.738864
       Potential energy  (eV) =     -79.106487        -79.483796
       Total energy      (eV) =     -67.891927        -67.744932
       Temperature       (K)  =    2798.697677       2929.542466
       Pressure         (GPa) =      22.535448         21.887700
  ** Time :            2.48400 ps :
     Properties:                   Instantaneous       Averaged
       Kinetic energy    (eV) =      11.904113         11.740062
       Potential energy  (eV) =     -78.085133        -79.473661
       Total energy      (eV) =     -66.181020        -67.733599
       Temperature       (K)  =    2970.781672       2929.841301
       Pressure         (GPa) =      23.539324         21.899668
  ** Time :            2.50200 ps :
     Properties:                   Instantaneous       Averaged
       Kinetic energy    (eV) =      11.480168         11.738192
       Potential energy  (eV) =     -78.121446        -79.463933
       Total energy      (eV) =     -66.641279        -67.725741
       Temperature       (K)  =    2864.982295       2929.374689
       Pressure         (GPa) =      23.270886         21.909533
  ** Time :            2.52000 ps :
     Properties:                   Instantaneous       Averaged
       Kinetic energy    (eV) =      12.030282         11.740278
       Potential energy  (eV) =     -78.959425        -79.460329
       Total energy      (eV) =     -66.929144        -67.720051
       Temperature       (K)  =    3002.268358       2929.895358
       Pressure         (GPa) =      22.879261         21.916459
  ** Time :            2.53800 ps :
     Properties:                   Instantaneous       Averaged
       Kinetic energy    (eV) =      11.301570         11.737167
       Potential energy  (eV) =     -78.334593        -79.452345
       Total energy      (eV) =     -67.033023        -67.715178
       Temperature       (K)  =    2820.411485       2929.118877
       Pressure         (GPa) =      23.532988         21.927924
  ** Time :            2.55600 ps :
     Properties:                   Instantaneous       Averaged
       Kinetic energy    (eV) =      12.050778         11.739376
       Potential energy  (eV) =     -78.888704        -79.448376
       Total energy      (eV) =     -66.837926        -67.709001
       Temperature       (K)  =    3007.383357       2929.670035
       Pressure         (GPa) =      23.214849         21.936987
  ** Time :            2.57400 ps :
     Properties:                   Instantaneous       Averaged
       Kinetic energy    (eV) =      11.799406         11.739795
       Potential energy  (eV) =     -79.216575        -79.446755
       Total energy      (eV) =     -67.417169        -67.706960
       Temperature       (K)  =    2944.651252       2929.774799
       Pressure         (GPa) =      22.472329         21.940731
  ** Time :            2.59200 ps :
     Properties:                   Instantaneous       Averaged
       Kinetic energy    (eV) =      11.966683         11.741371
       Potential energy  (eV) =     -79.622044        -79.447972
       Total energy      (eV) =     -67.655361        -67.706601
       Temperature       (K)  =    2986.396724       2930.168007
       Pressure         (GPa) =      21.745737         21.939377
  ** Time :            2.61000 ps :
     Properties:                   Instantaneous       Averaged
       Kinetic energy    (eV) =      11.478920         11.739561
       Potential energy  (eV) =     -79.677947        -79.449558
       Total energy      (eV) =     -68.199026        -67.709997
       Temperature       (K)  =    2864.670974       2929.716303
       Pressure         (GPa) =      21.795412         21.938384
  ** Time :            2.62800 ps :
     Properties:                   Instantaneous       Averaged
       Kinetic energy    (eV) =      11.226827         11.736049
       Potential energy  (eV) =     -77.398975        -79.435513
       Total energy      (eV) =     -66.172147        -67.699464
       Temperature       (K)  =    2801.758895       2928.839882
       Pressure         (GPa) =      24.009955         21.952573
  ** Time :            2.64600 ps :
     Properties:                   Instantaneous       Averaged
       Kinetic energy    (eV) =      12.258801         11.739605
       Potential energy  (eV) =     -77.764144        -79.424143
       Total energy      (eV) =     -65.505344        -67.684538
       Temperature       (K)  =    3059.297416       2929.727349
       Pressure         (GPa) =      23.734785         21.964696
  ** Time :            2.66400 ps :
     Properties:                   Instantaneous       Averaged
       Kinetic energy    (eV) =      11.826450         11.740192
       Potential energy  (eV) =     -79.310046        -79.423373
       Total energy      (eV) =     -67.483596        -67.683181
       Temperature       (K)  =    2951.400395       2929.873788
       Pressure         (GPa) =      22.115621         21.965716
  ** Time :            2.68200 ps :
     Properties:                   Instantaneous       Averaged
       Kinetic energy    (eV) =      11.892839         11.741216
       Potential energy  (eV) =     -79.158051        -79.421592
       Total energy      (eV) =     -67.265212        -67.680375
       Temperature       (K)  =    2967.968312       2930.129456
       Pressure         (GPa) =      22.303315         21.967982
  ** Time :            2.70000 ps :
     Properties:                   Instantaneous       Averaged
       Kinetic energy    (eV) =      11.838370         11.741864
       Potential energy  (eV) =     -79.816320        -79.424223
       Total energy      (eV) =     -67.977951        -67.682359
       Temperature       (K)  =    2954.374994       2930.291093
       Pressure         (GPa) =      22.093822         21.968821
  ** Time :            2.71800 ps :
     Properties:                   Instantaneous       Averaged
       Kinetic energy    (eV) =      11.419813         11.739731
       Potential energy  (eV) =     -78.925917        -79.420923
       Total energy      (eV) =     -67.506104        -67.681192
       Temperature       (K)  =    2849.920242       2929.758836
       Pressure         (GPa) =      23.439272         21.978559
  ** Time :            2.73600 ps :
     Properties:                   Instantaneous       Averaged
       Kinetic energy    (eV) =      11.592319         11.738762
       Potential energy  (eV) =     -77.625569        -79.409112
       Total energy      (eV) =     -66.033250        -67.670350
       Temperature       (K)  =    2892.970757       2929.516809
       Pressure         (GPa) =      25.009379         21.998499
  ** Time :            2.75400 ps :
     Properties:                   Instantaneous       Averaged
       Kinetic energy    (eV) =      11.940450         11.740080
       Potential energy  (eV) =     -78.237346        -79.401453
       Total energy      (eV) =     -66.296896        -67.661373
       Temperature       (K)  =    2979.849981       2929.845784
       Pressure         (GPa) =      24.421746         22.014337
  ** Time :            2.77200 ps :
     Properties:                   Instantaneous       Averaged
       Kinetic energy    (eV) =      11.733155         11.740035
       Potential energy  (eV) =     -78.319149        -79.394425
       Total energy      (eV) =     -66.585995        -67.654390
       Temperature       (K)  =    2928.117579       2929.834562
       Pressure         (GPa) =      23.982725         22.027119
  ** Time :            2.79000 ps :
     Properties:                   Instantaneous       Averaged
       Kinetic energy    (eV) =      11.721055         11.739912
       Potential energy  (eV) =     -78.174928        -79.386558
       Total energy      (eV) =     -66.453873        -67.646645
       Temperature       (K)  =    2925.097884       2929.804003
       Pressure         (GPa) =      23.839362         22.038810
  ** Time :            2.80800 ps :
     Properties:                   Instantaneous       Averaged
       Kinetic energy    (eV) =      12.092370         11.742172
       Potential energy  (eV) =     -78.651015        -79.381843
       Total energy      (eV) =     -66.558645        -67.639671
       Temperature       (K)  =    3017.763057       2930.367843
       Pressure         (GPa) =      23.063249         22.045377
  ** Time :            2.82600 ps :
     Properties:                   Instantaneous       Averaged
       Kinetic energy    (eV) =      11.990450         11.743753
       Potential energy  (eV) =     -80.143707        -79.386695
       Total energy      (eV) =     -68.153256        -67.642942
       Temperature       (K)  =    2992.328114       2930.762494
       Pressure         (GPa) =      21.413396         22.041352
  ** Time :            2.84400 ps :
     Properties:                   Instantaneous       Averaged
       Kinetic energy    (eV) =      11.780093         11.743983
       Potential energy  (eV) =     -79.967549        -79.390371
       Total energy      (eV) =     -68.187456        -67.646388
       Temperature       (K)  =    2939.831526       2930.819893
       Pressure         (GPa) =      21.291812         22.036608
  ** Time :            2.86200 ps :
     Properties:                   Instantaneous       Averaged
       Kinetic energy    (eV) =      11.968357         11.745394
       Potential energy  (eV) =     -80.362612        -79.396486
       Total energy      (eV) =     -68.394255        -67.651092
       Temperature       (K)  =    2986.814407       2931.172060
       Pressure         (GPa) =      20.844293         22.029109
  ** Time :            2.88000 ps :
     Properties:                   Instantaneous       Averaged
       Kinetic energy    (eV) =      11.578878         11.744354
       Potential energy  (eV) =     -80.199869        -79.401507
       Total energy      (eV) =     -68.620990        -67.657154
       Temperature       (K)  =    2889.616480       2930.912337
       Pressure         (GPa) =      21.054823         22.023020
  ** Time :            2.89800 ps :
     Properties:                   Instantaneous       Averaged
       Kinetic energy    (eV) =      11.606370         11.743496
       Potential energy  (eV) =     -79.374601        -79.401340
       Total energy      (eV) =     -67.768231        -67.657844
       Temperature       (K)  =    2896.477257       2930.698455
       Pressure         (GPa) =      22.037527         22.023110
  ** Time :            2.91600 ps :
     Properties:                   Instantaneous       Averaged
       Kinetic energy    (eV) =      12.128436         11.745873
       Potential energy  (eV) =     -79.810971        -79.403869
       Total energy      (eV) =     -67.682534        -67.657996
       Temperature       (K)  =    3026.763725       2931.291450
       Pressure         (GPa) =      21.747395         22.021408
  ** Time :            2.93400 ps :
     Properties:                   Instantaneous       Averaged
       Kinetic energy    (eV) =      11.862598         11.746589
       Potential energy  (eV) =     -81.027802        -79.413832
       Total energy      (eV) =     -69.165204        -67.667243
       Temperature       (K)  =    2960.421390       2931.470162
       Pressure         (GPa) =      20.336595         22.011072
  ** Time :            2.95200 ps :
     Properties:                   Instantaneous       Averaged
       Kinetic energy    (eV) =      11.276855         11.743725
[...]
       Total energy      (eV) =     -65.853881        -65.895827
       Temperature       (K)  =    2798.652066       3196.607325
       Pressure         (GPa) =      25.162410         23.088127
  ** Time :            9.21600 ps :
     Properties:                   Instantaneous       Averaged
       Kinetic energy    (eV) =      11.396171         12.806251
       Potential energy  (eV) =     -77.247240        -78.701990
       Total energy      (eV) =     -65.851070        -65.895739
       Temperature       (K)  =    2844.020101       3195.918679
       Pressure         (GPa) =      24.859022         23.091586
  ** Time :            9.23400 ps :
     Properties:                   Instantaneous       Averaged
       Kinetic energy    (eV) =      14.096578         12.808766
       Potential energy  (eV) =     -80.038061        -78.704595
       Total energy      (eV) =     -65.941482        -65.895829
       Temperature       (K)  =    3517.931888       3196.546385
       Pressure         (GPa) =      22.207803         23.089863
  ** Time :            9.25200 ps :
     Properties:                   Instantaneous       Averaged
       Kinetic energy    (eV) =      14.455473         12.811970
       Potential energy  (eV) =     -80.358867        -78.707813
       Total energy      (eV) =     -65.903394        -65.895843
       Temperature       (K)  =    3607.497391       3197.345900
       Pressure         (GPa) =      21.765621         23.087287
  ** Time :            9.27000 ps :
     Properties:                   Instantaneous       Averaged
       Kinetic energy    (eV) =      13.456928         12.813222
       Potential energy  (eV) =     -79.308543        -78.708980
       Total energy      (eV) =     -65.851615        -65.895757
       Temperature       (K)  =    3358.301072       3197.658434
       Pressure         (GPa) =      22.887130         23.086898
  ** Time :            9.28800 ps :
     Properties:                   Instantaneous       Averaged
       Kinetic energy    (eV) =      13.570718         12.814690
       Potential energy  (eV) =     -79.478467        -78.710471
       Total energy      (eV) =     -65.907749        -65.895781
       Temperature       (K)  =    3386.698583       3198.024791
       Pressure         (GPa) =      23.087656         23.086899
  ** Time :            9.30600 ps :
     Properties:                   Instantaneous       Averaged
       Kinetic energy    (eV) =      12.907020         12.814869
       Potential energy  (eV) =     -78.763610        -78.710574
       Total energy      (eV) =     -65.856589        -65.895705
       Temperature       (K)  =    3221.066579       3198.069360
       Pressure         (GPa) =      23.656192         23.088001
  ** Time :            9.32400 ps :
     Properties:                   Instantaneous       Averaged
       Kinetic energy    (eV) =      13.861023         12.816888
       Potential energy  (eV) =     -79.739756        -78.712561
       Total energy      (eV) =     -65.878732        -65.895672
       Temperature       (K)  =    3459.146912       3198.573370
       Pressure         (GPa) =      22.679626         23.087212
  ** Time :            9.34200 ps :
     Properties:                   Instantaneous       Averaged
       Kinetic energy    (eV) =      15.280833         12.821636
       Potential energy  (eV) =     -81.256078        -78.717461
       Total energy      (eV) =     -65.975245        -65.895825
       Temperature       (K)  =    3813.473576       3199.758149
       Pressure         (GPa) =      21.288274         23.083746
  ** Time :            9.36000 ps :
     Properties:                   Instantaneous       Averaged
       Kinetic energy    (eV) =      12.437335         12.820897
       Potential energy  (eV) =     -78.297423        -78.716654
       Total energy      (eV) =     -65.860088        -65.895757
       Temperature       (K)  =    3103.852322       3199.573715
       Pressure         (GPa) =      23.517602         23.084580
  ** Time :            9.37800 ps :
     Properties:                   Instantaneous       Averaged
       Kinetic energy    (eV) =      10.862522         12.817138
       Potential energy  (eV) =     -76.757405        -78.712893
       Total energy      (eV) =     -65.894884        -65.895755
       Temperature       (K)  =    2710.843016       3198.635652
       Pressure         (GPa) =      24.921894         23.088107
  ** Time :            9.39600 ps :
     Properties:                   Instantaneous       Averaged
       Kinetic energy    (eV) =      11.347225         12.814322
       Potential energy  (eV) =     -77.208966        -78.710012
       Total energy      (eV) =     -65.861741        -65.895690
       Temperature       (K)  =    2831.805316       3197.932912
       Pressure         (GPa) =      24.530433         23.090870
  ** Time :            9.41400 ps :
     Properties:                   Instantaneous       Averaged
       Kinetic energy    (eV) =      12.477168         12.813677
       Potential energy  (eV) =     -78.424325        -78.709466
       Total energy      (eV) =     -65.947156        -65.895788
       Temperature       (K)  =    3113.793069       3197.772033
       Pressure         (GPa) =      23.560294         23.091767
  ** Time :            9.43200 ps :
     Properties:                   Instantaneous       Averaged
       Kinetic energy    (eV) =      11.257127         12.810707
       Potential energy  (eV) =     -77.135771        -78.706462
       Total energy      (eV) =     -65.878644        -65.895756
       Temperature       (K)  =    2809.320490       3197.030713
       Pressure         (GPa) =      24.410462         23.094284
  ** Time :            9.45000 ps :
     Properties:                   Instantaneous       Averaged
       Kinetic energy    (eV) =      10.618346         12.806531
       Potential energy  (eV) =     -76.451203        -78.702167
       Total energy      (eV) =     -65.832856        -65.895636
       Temperature       (K)  =    2649.906793       3195.988572
       Pressure         (GPa) =      24.672775         23.097291
  ** Time :            9.46800 ps :
     Properties:                   Instantaneous       Averaged
       Kinetic energy    (eV) =      12.978390         12.806858
       Potential energy  (eV) =     -78.906366        -78.702555
       Total energy      (eV) =     -65.927976        -65.895697
       Temperature       (K)  =    3238.877560       3196.070110
       Pressure         (GPa) =      22.607543         23.096360
  ** Time :            9.48600 ps :
     Properties:                   Instantaneous       Averaged
       Kinetic energy    (eV) =      13.950821         12.809028
       Potential energy  (eV) =     -79.873592        -78.704777
       Total energy      (eV) =     -65.922771        -65.895749
       Temperature       (K)  =    3481.556727       3196.611831
       Pressure         (GPa) =      21.906803         23.094102
  ** Time :            9.50400 ps :
     Properties:                   Instantaneous       Averaged
       Kinetic energy    (eV) =      12.704666         12.808831
       Potential energy  (eV) =     -78.542791        -78.704470
       Total energy      (eV) =     -65.838125        -65.895639
       Temperature       (K)  =    3170.567141       3196.562503
       Pressure         (GPa) =      23.123012         23.094157
  ** Time :            9.52200 ps :
     Properties:                   Instantaneous       Averaged
       Kinetic energy    (eV) =      12.329455         12.807925
       Potential energy  (eV) =     -78.269995        -78.703649
       Total energy      (eV) =     -65.940540        -65.895724
       Temperature       (K)  =    3076.929860       3196.336355
       Pressure         (GPa) =      23.683010         23.095270
  ** Time :            9.54000 ps :
     Properties:                   Instantaneous       Averaged
       Kinetic energy    (eV) =      10.989897         12.804494
       Potential energy  (eV) =     -76.807288        -78.700071
       Total energy      (eV) =     -65.817391        -65.895577
       Temperature       (K)  =    2742.630630       3195.480306
       Pressure         (GPa) =      24.849505         23.098580
  ** Time :            9.55800 ps :
     Properties:                   Instantaneous       Averaged
       Kinetic energy    (eV) =      12.542320         12.804001
       Potential energy  (eV) =     -78.439665        -78.699580
       Total energy      (eV) =     -65.897345        -65.895580
       Temperature       (K)  =    3130.052300       3195.357090
       Pressure         (GPa) =      23.482065         23.099302
  ** Time :            9.57600 ps :
     Properties:                   Instantaneous       Averaged
       Kinetic energy    (eV) =      13.652500         12.805596
       Potential energy  (eV) =     -79.587810        -78.701250
       Total energy      (eV) =     -65.935310        -65.895655
       Temperature       (K)  =    3407.107905       3195.755118
       Pressure         (GPa) =      22.248071         23.097702
  ** Time :            9.59400 ps :
     Properties:                   Instantaneous       Averaged
       Kinetic energy    (eV) =      12.825526         12.805633
       Potential energy  (eV) =     -78.628288        -78.701113
       Total energy      (eV) =     -65.802762        -65.895480
       Temperature       (K)  =    3200.728993       3195.764449
       Pressure         (GPa) =      22.742313         23.097036
  ** Time :            9.61200 ps :
     Properties:                   Instantaneous       Averaged
       Kinetic energy    (eV) =      14.284002         12.808401
       Potential energy  (eV) =     -80.245754        -78.704006
       Total energy      (eV) =     -65.961752        -65.895604
       Temperature       (K)  =    3564.705045       3196.455349
       Pressure         (GPa) =      21.855726         23.094711
  ** Time :            9.63000 ps :
     Properties:                   Instantaneous       Averaged
       Kinetic energy    (eV) =      12.635167         12.808078
       Potential energy  (eV) =     -78.537492        -78.703695
       Total energy      (eV) =     -65.902325        -65.895617
       Temperature       (K)  =    3153.223045       3196.374541
       Pressure         (GPa) =      23.696436         23.095836
  ** Time :            9.64800 ps :
     Properties:                   Instantaneous       Averaged
       Kinetic energy    (eV) =      10.560753         12.803885
       Potential energy  (eV) =     -76.395878        -78.699389
       Total energy      (eV) =     -65.835124        -65.895504
       Temperature       (K)  =    2635.533946       3195.328197
       Pressure         (GPa) =      25.517212         23.100353
  ** Time :            9.66600 ps :
     Properties:                   Instantaneous       Averaged
       Kinetic energy    (eV) =      11.727357         12.801880
       Potential energy  (eV) =     -77.626730        -78.697391
       Total energy      (eV) =     -65.899373        -65.895511
       Temperature       (K)  =    2926.670659       3194.827904
       Pressure         (GPa) =      24.008682         23.102045
  ** Time :            9.68400 ps :
     Properties:                   Instantaneous       Averaged
       Kinetic energy    (eV) =      12.286283         12.800922
       Potential energy  (eV) =     -78.242727        -78.696546
       Total energy      (eV) =     -65.956444        -65.895625
       Temperature       (K)  =    3066.155859       3194.588736
       Pressure         (GPa) =      23.086771         23.102016
  ** Time :            9.70200 ps :
     Properties:                   Instantaneous       Averaged
       Kinetic energy    (eV) =      11.485112         12.798481
       Potential energy  (eV) =     -77.344044        -78.694037
       Total energy      (eV) =     -65.858932        -65.895556
       Temperature       (K)  =    2866.216272       3193.979511
       Pressure         (GPa) =      23.888996         23.103476
  ** Time :            9.72000 ps :
     Properties:                   Instantaneous       Averaged
       Kinetic energy    (eV) =      12.164674         12.797307
       Potential energy  (eV) =     -78.076473        -78.692893
       Total energy      (eV) =     -65.911800        -65.895587
       Temperature       (K)  =    3035.807122       3193.686599
       Pressure         (GPa) =      23.879896         23.104914
  ** Time :            9.73800 ps :
     Properties:                   Instantaneous       Averaged
       Kinetic energy    (eV) =      11.347688         12.794627
       Potential energy  (eV) =     -77.239637        -78.690207
       Total energy      (eV) =     -65.891950        -65.895580
       Temperature       (K)  =    2831.920674       3193.017900
       Pressure         (GPa) =      24.919608         23.108269
  ** Time :            9.75600 ps :
     Properties:                   Instantaneous       Averaged
       Kinetic energy    (eV) =      10.318151         12.790058
       Potential energy  (eV) =     -76.160000        -78.685539
       Total energy      (eV) =     -65.841849        -65.895481
       Temperature       (K)  =    2574.990203       3191.877628
       Pressure         (GPa) =      25.876525         23.113376
  ** Time :            9.77400 ps :
     Properties:                   Instantaneous       Averaged
       Kinetic energy    (eV) =      12.679580         12.789855
       Potential energy  (eV) =     -78.597079        -78.685376
       Total energy      (eV) =     -65.917499        -65.895521
       Temperature       (K)  =    3164.306825       3191.826853
       Pressure         (GPa) =      23.599289         23.114271
  ** Time :            9.79200 ps :
     Properties:                   Instantaneous       Averaged
       Kinetic energy    (eV) =      14.301984         12.792634
       Potential energy  (eV) =     -80.249155        -78.688251
       Total energy      (eV) =     -65.947172        -65.895616
       Temperature       (K)  =    3569.192631       3192.520540
       Pressure         (GPa) =      21.972410         23.112172
  ** Time :            9.81000 ps :
     Properties:                   Instantaneous       Averaged
       Kinetic energy    (eV) =      12.817672         12.792680
       Potential energy  (eV) =     -78.673557        -78.688224
       Total energy      (eV) =     -65.855885        -65.895543
       Temperature       (K)  =    3198.769022       3192.532005
       Pressure         (GPa) =      23.464946         23.112819
  ** Time :            9.82800 ps :
     Properties:                   Instantaneous       Averaged
       Kinetic energy    (eV) =      12.476604         12.792101
       Potential energy  (eV) =     -78.377232        -78.687654
       Total energy      (eV) =     -65.900628        -65.895553
       Temperature       (K)  =    3113.652284       3192.387537
       Pressure         (GPa) =      24.294288         23.114983
  ** Time :            9.84600 ps :
     Properties:                   Instantaneous       Averaged
       Kinetic energy    (eV) =      13.006678         12.792494
       Potential energy  (eV) =     -78.869614        -78.687987
       Total energy      (eV) =     -65.862936        -65.895493
       Temperature       (K)  =    3245.937014       3192.485434
       Pressure         (GPa) =      24.133844         23.116846
  ** Time :            9.86400 ps :
     Properties:                   Instantaneous       Averaged
       Kinetic energy    (eV) =      14.809324         12.796174
       Potential energy  (eV) =     -80.754031        -78.691757
       Total energy      (eV) =     -65.944707        -65.895583
       Temperature       (K)  =    3695.804192       3193.403898
       Pressure         (GPa) =      22.686722         23.116061
  ** Time :            9.88200 ps :
     Properties:                   Instantaneous       Averaged
       Kinetic energy    (eV) =      13.802276         12.798007
       Potential energy  (eV) =     -79.737085        -78.693661
       Total energy      (eV) =     -65.934809        -65.895654
       Temperature       (K)  =    3444.485865       3193.861243
       Pressure         (GPa) =      23.961122         23.117600
  ** Time :            9.90000 ps :
     Properties:                   Instantaneous       Averaged
       Kinetic energy    (eV) =      10.311079         12.793485
       Potential energy  (eV) =     -76.175089        -78.689082
       Total energy      (eV) =     -65.864010        -65.895597
       Temperature       (K)  =    2573.225295       3192.732814
       Pressure         (GPa) =      27.075444         23.124796
  ** Time :            9.91800 ps :
     Properties:                   Instantaneous       Averaged
       Kinetic energy    (eV) =      10.451620         12.789235
       Potential energy  (eV) =     -76.320801        -78.684783
       Total energy      (eV) =     -65.869182        -65.895549
       Temperature       (K)  =    2608.298573       3191.672134
       Pressure         (GPa) =      26.365411         23.130677
  ** Time :            9.93600 ps :
     Properties:                   Instantaneous       Averaged
       Kinetic energy    (eV) =      13.712441         12.790907
       Potential energy  (eV) =     -79.625036        -78.686487
       Total energy      (eV) =     -65.912595        -65.895580
       Temperature       (K)  =    3422.066748       3192.089516
       Pressure         (GPa) =      22.769465         23.130023
  ** Time :            9.95400 ps :
     Properties:                   Instantaneous       Averaged
       Kinetic energy    (eV) =      15.008575         12.794917
       Potential energy  (eV) =     -80.923078        -78.690531
       Total energy      (eV) =     -65.914503        -65.895614
       Temperature       (K)  =    3745.529092       3193.090311
       Pressure         (GPa) =      21.035655         23.126236
  ** Time :            9.97200 ps :
     Properties:                   Instantaneous       Averaged
       Kinetic energy    (eV) =      15.040108         12.798970
       Potential energy  (eV) =     -80.953707        -78.694616
       Total energy      (eV) =     -65.913600        -65.895646
       Temperature       (K)  =    3753.398347       3194.101697
       Pressure         (GPa) =      20.844141         23.122116
  ** Time :            9.99000 ps :
     Properties:                   Instantaneous       Averaged
       Kinetic energy    (eV) =      14.037288         12.801201
       Potential energy  (eV) =     -79.912848        -78.696811
       Total energy      (eV) =     -65.875560        -65.895610
       Temperature       (K)  =    3503.135400       3194.658515
       Pressure         (GPa) =      21.670103         23.119500

  Peak dynamic memory used =       0.57 MB 


  Timing analysis for GULP :

--------------------------------------------------------------------------------
  Task / Subroutine                                          Time (Seconds)
--------------------------------------------------------------------------------
  Calculation of real space energy and derivatives                2.3720
  Calculation of many-body energy and derivatives                 1.2760
  Molecular dynamics - update of geometry                         0.0040
  Molecular dynamics - corrector                                  0.0040
--------------------------------------------------------------------------------
  Total CPU time                                                  3.9160
--------------------------------------------------------------------------------


  Dump file written as Recovery_2_3000_0.009.res                               
  GULP ASCII trajectory file written as Trajectories_2_3000_0.009.trg           


  Job Finished at 17:42.36 17th May        2018                               

