********************************************************************************
*                       GENERAL UTILITY LATTICE PROGRAM                        *
*                                 Julian Gale                                  *
*                       Curtin Institute for Computation                       *
*                           Department of Chemistry                            *
*                    Curtin University, Western Australia                      *
********************************************************************************
* Version = 5.0.0 * Last modified =  18th April 2018                           *
********************************************************************************
*  single       - perform a single point run                                   *
*  md           - perform molecular dynamics run                               *
*  conv         - constant volume calculation                                  *
********************************************************************************
* molecular dynamics of silver                                                 *
********************************************************************************


  Job Started  at 18:21.30 17th May        2018                               

  Number of CPUs =     1


  Total number of configurations input =   1

********************************************************************************
*  Input for Configuration =   1                                               *
********************************************************************************

  Formula = Ag32                                                        

  Number of irreducible atoms/shells =      32


  Total number atoms/shells =      32

  Dimensionality = 3               :  Bulk   



  Supercell dimensions :  x =   2  y =   2  z =   2

  Cartesian lattice vectors (Angstroms) :

        8.170000    0.000000    0.000000
        0.000000    8.170000    0.000000
        0.000000    0.000000    8.170000

  Cell parameters (Angstroms/Degrees):

  a =       8.1700    alpha =  90.0000
  b =       8.1700    beta  =  90.0000
  c =       8.1700    gamma =  90.0000

  Initial cell volume =         545.338513 Angs**3

  Temperature of configuration =  3000.     K 

  Pressure of configuration =         0.000 GPa 

  Fractional coordinates of asymmetric unit :

--------------------------------------------------------------------------------
   No.  Atomic       x           y          z         Charge      Occupancy
        Label      (Frac)      (Frac)     (Frac)        (e)         (Frac)  
--------------------------------------------------------------------------------
      1 Ag    c    0.000000 *  0.000000 *  0.000000 *   0.00000    1.000000    
      2 Ag    c    0.000000 *  0.000000 *  0.500000 *   0.00000    1.000000    
      3 Ag    c    0.000000 *  0.500000 *  0.000000 *   0.00000    1.000000    
      4 Ag    c    0.000000 *  0.500000 *  0.500000 *   0.00000    1.000000    
      5 Ag    c    0.500000 *  0.000000 *  0.000000 *   0.00000    1.000000    
      6 Ag    c    0.500000 *  0.000000 *  0.500000 *   0.00000    1.000000    
      7 Ag    c    0.500000 *  0.500000 *  0.000000 *   0.00000    1.000000    
      8 Ag    c    0.500000 *  0.500000 *  0.500000 *   0.00000    1.000000    
      9 Ag    c    0.000000 *  0.250000 *  0.250000 *   0.00000    1.000000    
     10 Ag    c    0.000000 *  0.250000 *  0.750000 *   0.00000    1.000000    
     11 Ag    c    0.000000 *  0.750000 *  0.250000 *   0.00000    1.000000    
     12 Ag    c    0.000000 *  0.750000 *  0.750000 *   0.00000    1.000000    
     13 Ag    c    0.500000 *  0.250000 *  0.250000 *   0.00000    1.000000    
     14 Ag    c    0.500000 *  0.250000 *  0.750000 *   0.00000    1.000000    
     15 Ag    c    0.500000 *  0.750000 *  0.250000 *   0.00000    1.000000    
     16 Ag    c    0.500000 *  0.750000 *  0.750000 *   0.00000    1.000000    
     17 Ag    c    0.250000 *  0.000000 *  0.250000 *   0.00000    1.000000    
     18 Ag    c    0.250000 *  0.000000 *  0.750000 *   0.00000    1.000000    
     19 Ag    c    0.250000 *  0.500000 *  0.250000 *   0.00000    1.000000    
     20 Ag    c    0.250000 *  0.500000 *  0.750000 *   0.00000    1.000000    
     21 Ag    c    0.750000 *  0.000000 *  0.250000 *   0.00000    1.000000    
     22 Ag    c    0.750000 *  0.000000 *  0.750000 *   0.00000    1.000000    
     23 Ag    c    0.750000 *  0.500000 *  0.250000 *   0.00000    1.000000    
     24 Ag    c    0.750000 *  0.500000 *  0.750000 *   0.00000    1.000000    
     25 Ag    c    0.250000 *  0.250000 *  0.000000 *   0.00000    1.000000    
     26 Ag    c    0.250000 *  0.250000 *  0.500000 *   0.00000    1.000000    
     27 Ag    c    0.250000 *  0.750000 *  0.000000 *   0.00000    1.000000    
     28 Ag    c    0.250000 *  0.750000 *  0.500000 *   0.00000    1.000000    
     29 Ag    c    0.750000 *  0.250000 *  0.000000 *   0.00000    1.000000    
     30 Ag    c    0.750000 *  0.250000 *  0.500000 *   0.00000    1.000000    
     31 Ag    c    0.750000 *  0.750000 *  0.000000 *   0.00000    1.000000    
     32 Ag    c    0.750000 *  0.750000 *  0.500000 *   0.00000    1.000000    
--------------------------------------------------------------------------------



********************************************************************************
*  General input information                                                   *
********************************************************************************

  Species output for all configurations : 

--------------------------------------------------------------------------------
  Species    Type    Atomic    Atomic    Charge       Radii (Angs)     Library
                     Number     Mass       (e)     Cova   Ionic  VDW   Symbol
--------------------------------------------------------------------------------
    Ag       Core       47     107.87   0.000000   1.590  0.000  2.370          
--------------------------------------------------------------------------------


  Lattice summation method               =    Ewald          (3-D)
                                         =    Parry          (2-D)
                                         =    Saunders et al (1-D)
  Accuracy factor for lattice sums       =   12.000


  Time limit = Infinity

  Maximum range for interatomic potentials =    100000.000000 Angstroms

  General interatomic potentials :

--------------------------------------------------------------------------------
Atom  Types   Potential      Parameter       Value         Units   Cutoffs(Ang)
  1     2                                                            Min /  Max 
--------------------------------------------------------------------------------
Ag   c Ag   c Many-body                                             0.000  8.000
--------------------------------------------------------------------------------
Ag   c Ag   c Buckingham    Buckingham A     11454.950    eV        0.000 12.000
                            Buckingham rho  0.26432400    Ang       
                            Buckingham C     0.0000000    eV*Ang^6  
--------------------------------------------------------------------------------

  Embedded Atom Model Densities :

--------------------------------------------------------------------------------
  Atom(s)       Functional Form          A          B          C         n      
--------------------------------------------------------------------------------
  Ag   c        Exponential          1.388      2.173      2.889         0
--------------------------------------------------------------------------------


  Embedded Atom Model alloy parameters :

--------------------------------------------------------------------------------
  Atom(s)                          Scale factor 
--------------------------------------------------------------------------------
  Ag    c                            1.000000
--------------------------------------------------------------------------------

  Embedded Atom Model functional = Square Root

--------------------------------------------------------------------------------
  Atom                     A     
--------------------------------------------------------------------------------
  Ag    c               1.000000
--------------------------------------------------------------------------------


  Manybody second derivative cross term cutoffs to be scale by = 0.50000000

********************************************************************************
*  Output for configuration   1                                                *
********************************************************************************


  Components of energy : 

--------------------------------------------------------------------------------
  Interatomic potentials     =          39.71625760 eV    
  Many-body potentials       =        -134.45860512 eV    
  Monopole - monopole (real) =           0.00000000 eV    
  Monopole - monopole (recip)=           0.00000000 eV    
  Monopole - monopole (total)=           0.00000000 eV    
--------------------------------------------------------------------------------
  Total lattice energy       =         -94.74234752 eV    
--------------------------------------------------------------------------------
  Total lattice energy       =           -9141.1883 kJ/(mole unit cells)
--------------------------------------------------------------------------------

  Equations of motion will be integrated using the leapfrog Verlet algorithm.

********************************************************************************
*  Molecular Dynamics                                                          *
********************************************************************************

  Microcanonical ensemble (NVE) to be used

  No. of mobile ions        =                 32

  No. of degrees of freedom =                 93

  Time step                 =           0.018000 ps
  Equilibration time        =           5.000000 ps
  Production time           =          10.000000 ps
  Scaling time              =           5.004000 ps
  Scaling frequency         =           0.018000 ps
  Sampling frequency        =           0.018000 ps
  Write frequency           =           0.018000 ps
  TD-Force start time       =           0.000000 ps
  TD-Field start time       =           0.000000 ps



  Molecular dynamics equilibration :

  ** Time :            0.01800 ps :
     Properties:                   Instantaneous       Averaged
       Kinetic energy    (eV) =      12.021192         12.021192
       Potential energy  (eV) =     -94.742348        -94.742348
       Total energy      (eV) =     -82.721155        -82.721155
       Temperature       (K)  =    3000.000000       3000.000000
       Pressure         (GPa) =       2.339048          2.339048
  ** Time :            0.03600 ps :
     Properties:                   Instantaneous       Averaged
       Kinetic energy    (eV) =       9.869134         10.945163
       Potential energy  (eV) =     -92.646683        -93.694515
       Total energy      (eV) =     -82.777549        -82.749352
       Temperature       (K)  =    2462.933931       2731.466965
       Pressure         (GPa) =       4.881627          3.610338
  ** Time :            0.05400 ps :
     Properties:                   Instantaneous       Averaged
       Kinetic energy    (eV) =       8.085590          9.991972
       Potential energy  (eV) =     -87.217463        -91.535498
       Total energy      (eV) =     -79.131873        -81.543526
       Temperature       (K)  =    2017.833864       2493.589265
       Pressure         (GPa) =      11.352930          6.191202
  ** Time :            0.07200 ps :
     Properties:                   Instantaneous       Averaged
       Kinetic energy    (eV) =      10.249282         10.056299
       Potential energy  (eV) =     -83.956565        -89.640765
       Total energy      (eV) =     -73.707283        -79.584465
       Temperature       (K)  =    2557.803360       2509.642789
       Pressure         (GPa) =      15.852912          8.606629
  ** Time :            0.09000 ps :
     Properties:                   Instantaneous       Averaged
       Kinetic energy    (eV) =      10.889646         10.222969
       Potential energy  (eV) =     -83.663283        -88.445268
       Total energy      (eV) =     -72.773636        -78.222299
       Temperature       (K)  =    2717.612266       2551.236684
       Pressure         (GPa) =      16.542446         10.193793
  ** Time :            0.10800 ps :
     Properties:                   Instantaneous       Averaged
       Kinetic energy    (eV) =      10.032815         10.191276
       Potential energy  (eV) =     -81.702100        -87.321407
       Total energy      (eV) =     -71.669286        -77.130130
       Temperature       (K)  =    2503.781947       2543.327561
       Pressure         (GPa) =      18.391583         11.560091
  ** Time :            0.12600 ps :
     Properties:                   Instantaneous       Averaged
       Kinetic energy    (eV) =      10.646177         10.256262
       Potential energy  (eV) =     -80.698483        -86.375275
       Total energy      (eV) =     -70.052305        -76.119013
       Temperature       (K)  =    2656.852303       2559.545382
       Pressure         (GPa) =      19.971361         12.761701
  ** Time :            0.14400 ps :
     Properties:                   Instantaneous       Averaged
       Kinetic energy    (eV) =       9.892583         10.210802
       Potential energy  (eV) =     -79.029067        -85.456999
       Total energy      (eV) =     -69.136484        -75.246196
       Temperature       (K)  =    2468.785706       2548.200422
       Pressure         (GPa) =      21.974053         13.913245
  ** Time :            0.16200 ps :
     Properties:                   Instantaneous       Averaged
       Kinetic energy    (eV) =      10.272174         10.217621
       Potential energy  (eV) =     -76.894375        -84.505596
       Total energy      (eV) =     -66.622202        -74.287975
       Temperature       (K)  =    2563.516206       2549.902176
       Pressure         (GPa) =      24.182466         15.054270
  ** Time :            0.18000 ps :
     Properties:                   Instantaneous       Averaged
       Kinetic energy    (eV) =      11.957094         10.391569
       Potential energy  (eV) =     -78.444112        -83.899448
       Total energy      (eV) =     -66.487018        -73.507879
       Temperature       (K)  =    2984.003774       2593.312336
       Pressure         (GPa) =      22.956092         15.844452
  ** Time :            0.19800 ps :
     Properties:                   Instantaneous       Averaged
       Kinetic energy    (eV) =      11.353591         10.479025
       Potential energy  (eV) =     -80.078907        -83.552126
       Total energy      (eV) =     -68.725316        -73.073101
       Temperature       (K)  =    2833.393842       2615.137927
       Pressure         (GPa) =      21.093236         16.321614
  ** Time :            0.21600 ps :
     Properties:                   Instantaneous       Averaged
       Kinetic energy    (eV) =      10.942170         10.517621
       Potential energy  (eV) =     -79.750525        -83.235326
       Total energy      (eV) =     -68.808356        -72.717705
       Temperature       (K)  =    2730.719970       2624.769764
       Pressure         (GPa) =      21.193230         16.727582
  ** Time :            0.23400 ps :
     Properties:                   Instantaneous       Averaged
       Kinetic energy    (eV) =      11.174566         10.568155
       Potential energy  (eV) =     -79.478295        -82.946324
       Total energy      (eV) =     -68.303729        -72.378169
       Temperature       (K)  =    2788.716580       2637.381058
       Pressure         (GPa) =      21.344575         17.082735
  ** Time :            0.25200 ps :
     Properties:                   Instantaneous       Averaged
       Kinetic energy    (eV) =      11.653093         10.645650
       Potential energy  (eV) =     -80.322292        -82.758893
       Total energy      (eV) =     -68.669199        -72.113242
       Temperature       (K)  =    2908.137469       2656.720801
       Pressure         (GPa) =      20.450050         17.323258
  ** Time :            0.27000 ps :
     Properties:                   Instantaneous       Averaged
       Kinetic energy    (eV) =      11.497842         10.702463
       Potential energy  (eV) =     -81.170658        -82.653010
       Total energy      (eV) =     -69.672816        -71.950547
       Temperature       (K)  =    2869.393118       2670.898956
       Pressure         (GPa) =      19.474029         17.466643
  ** Time :            0.28800 ps :
     Properties:                   Instantaneous       Averaged
       Kinetic energy    (eV) =      10.620014         10.697310
       Potential energy  (eV) =     -80.731537        -82.532918
       Total energy      (eV) =     -70.111523        -71.835608
       Temperature       (K)  =    2650.322894       2669.612952
       Pressure         (GPa) =      19.708247         17.606743
  ** Time :            0.30600 ps :
     Properties:                   Instantaneous       Averaged
       Kinetic energy    (eV) =      10.571899         10.689933
       Potential energy  (eV) =     -79.997873        -82.383798
       Total energy      (eV) =     -69.425974        -71.693865
       Temperature       (K)  =    2638.315467       2667.771923
       Pressure         (GPa) =      20.757232         17.792066
  ** Time :            0.32400 ps :
     Properties:                   Instantaneous       Averaged
       Kinetic energy    (eV) =       9.954821         10.649093
       Potential energy  (eV) =     -78.634885        -82.175525
       Total energy      (eV) =     -68.680065        -71.526432
       Temperature       (K)  =    2484.317836       2657.580030
       Pressure         (GPa) =      22.371307         18.046468
  ** Time :            0.34200 ps :
     Properties:                   Instantaneous       Averaged
       Kinetic energy    (eV) =      11.324258         10.684628
       Potential energy  (eV) =     -78.272047        -81.970079
       Total energy      (eV) =     -66.947789        -71.285450
       Temperature       (K)  =    2826.073549       2666.448110
       Pressure         (GPa) =      23.010867         18.307752
  ** Time :            0.36000 ps :
     Properties:                   Instantaneous       Averaged
       Kinetic energy    (eV) =      11.079969         10.704395
       Potential energy  (eV) =     -79.290213        -81.836086
       Total energy      (eV) =     -68.210245        -71.131690
       Temperature       (K)  =    2765.108900       2671.381149
       Pressure         (GPa) =      21.922426         18.488486
  ** Time :            0.37800 ps :
     Properties:                   Instantaneous       Averaged
       Kinetic energy    (eV) =      10.309810         10.685606
       Potential energy  (eV) =     -77.816516        -81.644677
       Total energy      (eV) =     -67.506706        -70.959072
       Temperature       (K)  =    2572.908693       2666.691985
       Pressure         (GPa) =      23.193709         18.712544
  ** Time :            0.39600 ps :
     Properties:                   Instantaneous       Averaged
       Kinetic energy    (eV) =      10.806507         10.691101
       Potential energy  (eV) =     -78.051046        -81.481331
       Total energy      (eV) =     -67.244539        -70.790229
       Temperature       (K)  =    2696.864132       2668.063446
       Pressure         (GPa) =      23.083766         18.911236
  ** Time :            0.41400 ps :
     Properties:                   Instantaneous       Averaged
       Kinetic energy    (eV) =      10.917008         10.700923
       Potential energy  (eV) =     -77.958107        -81.328147
       Total energy      (eV) =     -67.041099        -70.627224
       Temperature       (K)  =    2724.440572       2670.514625
       Pressure         (GPa) =      23.052715         19.091300
  ** Time :            0.43200 ps :
     Properties:                   Instantaneous       Averaged
       Kinetic energy    (eV) =      10.161302         10.678439
       Potential energy  (eV) =     -77.587568        -81.172290
       Total energy      (eV) =     -67.426266        -70.493851
       Temperature       (K)  =    2535.847045       2664.903476
       Pressure         (GPa) =      23.109259         19.258715
  ** Time :            0.45000 ps :
     Properties:                   Instantaneous       Averaged
       Kinetic energy    (eV) =      11.069057         10.694064
       Potential energy  (eV) =     -77.456961        -81.023676
       Total energy      (eV) =     -66.387904        -70.329613
       Temperature       (K)  =    2762.385726       2668.802766
       Pressure         (GPa) =      23.403877         19.424522
  ** Time :            0.46800 ps :
     Properties:                   Instantaneous       Averaged
       Kinetic energy    (eV) =      10.805669         10.698356
       Potential energy  (eV) =     -77.602770        -80.892103
       Total energy      (eV) =     -66.797101        -70.193747
       Temperature       (K)  =    2696.654892       2669.874002
       Pressure         (GPa) =      23.402982         19.577539
  ** Time :            0.48600 ps :
     Properties:                   Instantaneous       Averaged
       Kinetic energy    (eV) =       9.984808         10.671928
       Potential energy  (eV) =     -76.181872        -80.717650
       Total energy      (eV) =     -66.197063        -70.045722
       Temperature       (K)  =    2491.801538       2663.278725
       Pressure         (GPa) =      24.696095         19.767116
  ** Time :            0.50400 ps :
     Properties:                   Instantaneous       Averaged
       Kinetic energy    (eV) =      12.693683         10.744134
       Potential energy  (eV) =     -77.225960        -80.592947
       Total energy      (eV) =     -64.532277        -69.848813
       Temperature       (K)  =    3167.826406       2681.298285
       Pressure         (GPa) =      23.719807         19.908283
  ** Time :            0.52200 ps :
     Properties:                   Instantaneous       Averaged
       Kinetic energy    (eV) =      11.659592         10.775702
       Potential energy  (eV) =     -81.267486        -80.616207
       Total energy      (eV) =     -69.607893        -69.840505
       Temperature       (K)  =    2909.759436       2689.176256
       Pressure         (GPa) =      19.328374         19.888286
  ** Time :            0.54000 ps :
     Properties:                   Instantaneous       Averaged
       Kinetic energy    (eV) =      10.571646         10.768900
       Potential energy  (eV) =     -80.476996        -80.611566
       Total energy      (eV) =     -69.905350        -69.842667
       Temperature       (K)  =    2638.252387       2687.478794
       Pressure         (GPa) =      20.110402         19.895690
  ** Time :            0.55800 ps :
     Properties:                   Instantaneous       Averaged
       Kinetic energy    (eV) =      11.087509         10.779177
       Potential energy  (eV) =     -80.117932        -80.595643
       Total energy      (eV) =     -69.030422        -69.816465
       Temperature       (K)  =    2766.990810       2690.043697
       Pressure         (GPa) =      20.946468         19.929586
  ** Time :            0.57600 ps :
     Properties:                   Instantaneous       Averaged
       Kinetic energy    (eV) =      11.436183         10.799709
       Potential energy  (eV) =     -80.438190        -80.590722
       Total energy      (eV) =     -69.002007        -69.791013
       Temperature       (K)  =    2854.005417       2695.167501
       Pressure         (GPa) =      20.509936         19.947722
  ** Time :            0.59400 ps :
     Properties:                   Instantaneous       Averaged
       Kinetic energy    (eV) =      11.837011         10.831142
       Potential energy  (eV) =     -82.517936        -80.649123
       Total energy      (eV) =     -70.680925        -69.817980
       Temperature       (K)  =    2954.035944       2703.011999
       Pressure         (GPa) =      18.261396         19.896621
  ** Time :            0.61200 ps :
     Properties:                   Instantaneous       Averaged
       Kinetic energy    (eV) =      10.999058         10.836081
       Potential energy  (eV) =     -82.652639        -80.708050
       Total energy      (eV) =     -71.653581        -69.871969
       Temperature       (K)  =    2744.916958       2704.244498
       Pressure         (GPa) =      17.791537         19.834707
  ** Time :            0.63000 ps :
     Properties:                   Instantaneous       Averaged
       Kinetic energy    (eV) =      11.056920         10.842391
       Potential energy  (eV) =     -82.403147        -80.756481
       Total energy      (eV) =     -71.346227        -69.914090
       Temperature       (K)  =    2759.356860       2705.819137
       Pressure         (GPa) =      18.218299         19.788524
  ** Time :            0.64800 ps :
     Properties:                   Instantaneous       Averaged
       Kinetic energy    (eV) =      10.721968         10.839046
       Potential energy  (eV) =     -81.604221        -80.780029
       Total energy      (eV) =     -70.882253        -69.940984
       Temperature       (K)  =    2675.766496       2704.984341
       Pressure         (GPa) =      19.084675         19.768973
  ** Time :            0.66600 ps :
     Properties:                   Instantaneous       Averaged
       Kinetic energy    (eV) =      11.018295         10.843890
       Potential energy  (eV) =     -81.132576        -80.789558
       Total energy      (eV) =     -70.114281        -69.945668
       Temperature       (K)  =    2749.717606       2706.193349
       Pressure         (GPa) =      19.753835         19.768563
  ** Time :            0.68400 ps :
     Properties:                   Instantaneous       Averaged
       Kinetic energy    (eV) =      11.132916         10.851496
       Potential energy  (eV) =     -81.067068        -80.796861
       Total energy      (eV) =     -69.934152        -69.945364
       Temperature       (K)  =    2778.322324       2708.091480
       Pressure         (GPa) =      19.827783         19.770122
  ** Time :            0.70200 ps :
     Properties:                   Instantaneous       Averaged
       Kinetic energy    (eV) =      11.126866         10.858557
       Potential energy  (eV) =     -80.740583        -80.795418
       Total energy      (eV) =     -69.613717        -69.936861
       Temperature       (K)  =    2776.812662       2709.853561
       Pressure         (GPa) =      19.973650         19.775341
  ** Time :            0.72000 ps :
     Properties:                   Instantaneous       Averaged
       Kinetic energy    (eV) =      10.932296         10.860400
       Potential energy  (eV) =     -81.148351        -80.804241
       Total energy      (eV) =     -70.216055        -69.943841
       Temperature       (K)  =    2728.255905       2710.313620
       Pressure         (GPa) =      19.710424         19.773718
  ** Time :            0.73800 ps :
     Properties:                   Instantaneous       Averaged
       Kinetic energy    (eV) =      10.168337         10.843521
       Potential energy  (eV) =     -79.770023        -80.779016
       Total energy      (eV) =     -69.601687        -69.935495
       Temperature       (K)  =    2537.602700       2706.101158
       Pressure         (GPa) =      21.124426         19.806662
  ** Time :            0.75600 ps :
     Properties:                   Instantaneous       Averaged
       Kinetic energy    (eV) =      11.975130         10.870464
       Potential energy  (eV) =     -81.120952        -80.787157
       Total energy      (eV) =     -69.145822        -69.916694
       Temperature       (K)  =    2988.504767       2712.825054
       Pressure         (GPa) =      19.976229         19.810699
  ** Time :            0.77400 ps :
     Properties:                   Instantaneous       Averaged
       Kinetic energy    (eV) =      11.153994         10.877058
       Potential energy  (eV) =     -82.118299        -80.818114
       Total energy      (eV) =     -70.964305        -69.941057
       Temperature       (K)  =    2783.582638       2714.470579
       Pressure         (GPa) =      18.479355         19.779738
  ** Time :            0.79200 ps :
     Properties:                   Instantaneous       Averaged
       Kinetic energy    (eV) =      11.979145         10.902105
       Potential energy  (eV) =     -83.242960        -80.873224
       Total energy      (eV) =     -71.263815        -69.971119
       Temperature       (K)  =    2989.506677       2720.721399
       Pressure         (GPa) =      17.335367         19.724184
  ** Time :            0.81000 ps :
     Properties:                   Instantaneous       Averaged
       Kinetic energy    (eV) =      11.348546         10.912026
       Potential energy  (eV) =     -83.919904        -80.940928
       Total energy      (eV) =     -72.571358        -70.028902
       Temperature       (K)  =    2832.134968       2723.197256
       Pressure         (GPa) =      16.393192         19.650162
  ** Time :            0.82800 ps :
     Properties:                   Instantaneous       Averaged
       Kinetic energy    (eV) =      11.097331         10.916054
       Potential energy  (eV) =     -83.344377        -80.993177
       Total energy      (eV) =     -72.247046        -70.077123
       Temperature       (K)  =    2769.441829       2724.202573
       Pressure         (GPa) =      16.975022         19.592006
  ** Time :            0.84600 ps :
     Properties:                   Instantaneous       Averaged
       Kinetic energy    (eV) =      10.982877         10.917476
       Potential energy  (eV) =     -82.967956        -81.035194
       Total energy      (eV) =     -71.985079        -70.117718
       Temperature       (K)  =    2740.878773       2724.557386
       Pressure         (GPa) =      17.511962         19.547750
  ** Time :            0.86400 ps :
     Properties:                   Instantaneous       Averaged
       Kinetic energy    (eV) =      11.172326         10.922785
       Potential energy  (eV) =     -82.473273        -81.065154
       Total energy      (eV) =     -71.300947        -70.142368
       Temperature       (K)  =    2788.157637       2725.882391
       Pressure         (GPa) =      17.959214         19.514656
  ** Time :            0.88200 ps :
     Properties:                   Instantaneous       Averaged
       Kinetic energy    (eV) =      11.548268         10.935550
       Potential energy  (eV) =     -83.213952        -81.109007
       Total energy      (eV) =     -71.665684        -70.173456
       Temperature       (K)  =    2881.977286       2729.068001
       Pressure         (GPa) =      17.126247         19.465913
  ** Time :            0.90000 ps :
     Properties:                   Instantaneous       Averaged
       Kinetic energy    (eV) =      10.481225         10.926464
       Potential energy  (eV) =     -82.763012        -81.142087
       Total energy      (eV) =     -72.281787        -70.215623
       Temperature       (K)  =    2615.686862       2726.800379
       Pressure         (GPa) =      17.259945         19.421793
  ** Time :            0.91800 ps :
     Properties:                   Instantaneous       Averaged
       Kinetic energy    (eV) =      11.710749         10.941842
       Potential energy  (eV) =     -82.641418        -81.171485
       Total energy      (eV) =     -70.930669        -70.229644
       Temperature       (K)  =    2922.526081       2730.638137
       Pressure         (GPa) =      17.504783         19.384205
  ** Time :            0.93600 ps :
     Properties:                   Instantaneous       Averaged
       Kinetic energy    (eV) =      11.742545         10.957240
       Potential energy  (eV) =     -84.669495        -81.238755
       Total energy      (eV) =     -72.926949        -70.281515
       Temperature       (K)  =    2930.461099       2734.480887
       Pressure         (GPa) =      15.505142         19.309607
  ** Time :            0.95400 ps :
     Properties:                   Instantaneous       Averaged
       Kinetic energy    (eV) =      10.941351         10.956940
       Potential energy  (eV) =     -84.808412        -81.306107
       Total energy      (eV) =     -73.867061        -70.349167
       Temperature       (K)  =    2730.515507       2734.406068
       Pressure         (GPa) =      15.269805         19.233385
  ** Time :            0.97200 ps :
     Properties:                   Instantaneous       Averaged
       Kinetic energy    (eV) =      10.456275         10.947669
       Potential energy  (eV) =     -83.340236        -81.343776
       Total energy      (eV) =     -72.883961        -70.396107
       Temperature       (K)  =    2609.460437       2732.092260
       Pressure         (GPa) =      16.666090         19.185842
  ** Time :            0.99000 ps :
     Properties:                   Instantaneous       Averaged
       Kinetic energy    (eV) =      11.840037         10.963894
       Potential energy  (eV) =     -83.537047        -81.383654
       Total energy      (eV) =     -71.697009        -70.419760
       Temperature       (K)  =    2954.791117       2736.141330
       Pressure         (GPa) =      16.691583         19.140492
  ** Time :            1.00800 ps :
     Properties:                   Instantaneous       Averaged
       Kinetic energy    (eV) =      11.330359         10.970438
       Potential energy  (eV) =     -84.565959        -81.440481
       Total energy      (eV) =     -73.235600        -70.470043
       Temperature       (K)  =    2827.596180       2737.774453
       Pressure         (GPa) =      15.566736         19.076675
  ** Time :            1.02600 ps :
     Properties:                   Instantaneous       Averaged
       Kinetic energy    (eV) =      10.973826         10.970497
       Potential energy  (eV) =     -83.814952        -81.482138
       Total energy      (eV) =     -72.841126        -70.511641
       Temperature       (K)  =    2738.620103       2737.789289
       Pressure         (GPa) =      16.295114         19.027876
  ** Time :            1.04400 ps :
     Properties:                   Instantaneous       Averaged
       Kinetic energy    (eV) =      11.360477         10.977221
       Potential energy  (eV) =     -83.939247        -81.524502
       Total energy      (eV) =     -72.578769        -70.547281
       Temperature       (K)  =    2835.112512       2739.467275
       Pressure         (GPa) =      16.499605         18.984285
  ** Time :            1.06200 ps :
     Properties:                   Instantaneous       Averaged
       Kinetic energy    (eV) =      11.194806         10.980909
       Potential energy  (eV) =     -84.005801        -81.566558
       Total energy      (eV) =     -72.810995        -70.585649
       Temperature       (K)  =    2793.767690       2740.387621
       Pressure         (GPa) =      16.581817         18.943565
  ** Time :            1.08000 ps :
     Properties:                   Instantaneous       Averaged
       Kinetic energy    (eV) =      10.765632         10.977321
       Potential energy  (eV) =     -83.036815        -81.591062
       Total energy      (eV) =     -72.271183        -70.613741
       Temperature       (K)  =    2686.663413       2739.492218
       Pressure         (GPa) =      17.511997         18.919706
  ** Time :            1.09800 ps :
     Properties:                   Instantaneous       Averaged
       Kinetic energy    (eV) =      11.224108         10.981367
       Potential energy  (eV) =     -83.020966        -81.614503
       Total energy      (eV) =     -71.796858        -70.633137
       Temperature       (K)  =    2801.080320       2740.501859
       Pressure         (GPa) =      17.682918         18.899430
  ** Time :            1.11600 ps :
     Properties:                   Instantaneous       Averaged
       Kinetic energy    (eV) =      10.400454         10.971997
       Potential energy  (eV) =     -81.874170        -81.618691
       Total energy      (eV) =     -71.473716        -70.646694
       Temperature       (K)  =    2595.529731       2738.163599
       Pressure         (GPa) =      18.622186         18.894959
  ** Time :            1.13400 ps :
     Properties:                   Instantaneous       Averaged
       Kinetic energy    (eV) =      10.654859         10.966963
       Potential energy  (eV) =     -80.637540        -81.603117
       Total energy      (eV) =     -69.982681        -70.636154
       Temperature       (K)  =    2659.018803       2736.907332
       Pressure         (GPa) =      19.680765         18.907432
  ** Time :            1.15200 ps :
     Properties:                   Instantaneous       Averaged
       Kinetic energy    (eV) =      11.010941         10.967650
       Potential energy  (eV) =     -80.268925        -81.582271
       Total energy      (eV) =     -69.257984        -70.614621
       Temperature       (K)  =    2747.882338       2737.078817
       Pressure         (GPa) =      19.695723         18.919749
  ** Time :            1.17000 ps :
     Properties:                   Instantaneous       Averaged
       Kinetic energy    (eV) =      11.094379         10.969600
       Potential energy  (eV) =     -80.927878        -81.572203
       Total energy      (eV) =     -69.833499        -70.602603
       Temperature       (K)  =    2768.705141       2737.565375
       Pressure         (GPa) =      18.913743         18.919656
  ** Time :            1.18800 ps :
     Properties:                   Instantaneous       Averaged
       Kinetic energy    (eV) =      10.775514         10.966659
       Potential energy  (eV) =     -80.400825        -81.554455
       Total energy      (eV) =     -69.625312        -70.587796
       Temperature       (K)  =    2689.129369       2736.831496
       Pressure         (GPa) =      19.304995         18.925495
  ** Time :            1.20600 ps :
     Properties:                   Instantaneous       Averaged
       Kinetic energy    (eV) =      11.439257         10.973713
       Potential energy  (eV) =     -81.671207        -81.556198
       Total energy      (eV) =     -70.231949        -70.582485
       Temperature       (K)  =    2854.772700       2738.591813
       Pressure         (GPa) =      18.612970         18.920830
  ** Time :            1.22400 ps :
     Properties:                   Instantaneous       Averaged
       Kinetic energy    (eV) =       9.787418         10.956267
       Potential energy  (eV) =     -80.250151        -81.536991
       Total energy      (eV) =     -70.462733        -70.580724
       Temperature       (K)  =    2442.540885       2734.238123
       Pressure         (GPa) =      20.405870         18.942669
  ** Time :            1.24200 ps :
     Properties:                   Instantaneous       Averaged
       Kinetic energy    (eV) =      11.082444         10.958096
       Potential energy  (eV) =     -79.462978        -81.506933
       Total energy      (eV) =     -68.380534        -70.548837
       Temperature       (K)  =    2765.726631       2734.694478
       Pressure         (GPa) =      21.788791         18.983917
  ** Time :            1.26000 ps :
     Properties:                   Instantaneous       Averaged
       Kinetic energy    (eV) =      11.010170         10.958840
       Potential energy  (eV) =     -80.220484        -81.488555
       Total energy      (eV) =     -69.210314        -70.529715
       Temperature       (K)  =    2747.690142       2734.880130
       Pressure         (GPa) =      21.069777         19.013715
  ** Time :            1.27800 ps :
     Properties:                   Instantaneous       Averaged
       Kinetic energy    (eV) =      10.969415         10.958989
       Potential energy  (eV) =     -80.223067        -81.470731
       Total energy      (eV) =     -69.253652        -70.511742
       Temperature       (K)  =    2737.519178       2734.917300
       Pressure         (GPa) =      20.972997         19.041311
  ** Time :            1.29600 ps :
     Properties:                   Instantaneous       Averaged
       Kinetic energy    (eV) =      11.298489         10.963704
       Potential energy  (eV) =     -80.641254        -81.459211
       Total energy      (eV) =     -69.342765        -70.495507
       Temperature       (K)  =    2819.642649       2736.094041
       Pressure         (GPa) =      20.424593         19.060523
  ** Time :            1.31400 ps :
     Properties:                   Instantaneous       Averaged
       Kinetic energy    (eV) =      11.213502         10.967126
       Potential energy  (eV) =     -80.937537        -81.452064
       Total energy      (eV) =     -69.724036        -70.484938
       Temperature       (K)  =    2798.433305       2736.948004
       Pressure         (GPa) =      19.927109         19.072394
  ** Time :            1.33200 ps :
     Properties:                   Instantaneous       Averaged
       Kinetic energy    (eV) =      11.609310         10.975804
       Potential energy  (eV) =     -81.586038        -81.453875
       Total energy      (eV) =     -69.976727        -70.478071
       Temperature       (K)  =    2897.211018       2739.113720
       Pressure         (GPa) =      19.336583         19.075964
  ** Time :            1.35000 ps :
     Properties:                   Instantaneous       Averaged
       Kinetic energy    (eV) =      10.991223         10.976010
       Potential energy  (eV) =     -82.054125        -81.461878
       Total energy      (eV) =     -71.062902        -70.485868
       Temperature       (K)  =    2742.961569       2739.165025
       Pressure         (GPa) =      18.680436         19.070691
  ** Time :            1.36800 ps :
     Properties:                   Instantaneous       Averaged
       Kinetic energy    (eV) =      11.311191         10.980420
       Potential energy  (eV) =     -81.721144        -81.465290
       Total energy      (eV) =     -70.409953        -70.484870
       Temperature       (K)  =    2822.812696       2740.265652
       Pressure         (GPa) =      18.745567         19.066413
  ** Time :            1.38600 ps :
     Properties:                   Instantaneous       Averaged
       Kinetic energy    (eV) =      11.241434         10.983810
       Potential energy  (eV) =     -82.342159        -81.476678
       Total energy      (eV) =     -71.100726        -70.492868
       Temperature       (K)  =    2805.404024       2741.111605
       Pressure         (GPa) =      18.020315         19.052827
  ** Time :            1.40400 ps :
     Properties:                   Instantaneous       Averaged
       Kinetic energy    (eV) =      10.569506         10.978498
       Potential energy  (eV) =     -81.200627        -81.473138
       Total energy      (eV) =     -70.631121        -70.494640
       Temperature       (K)  =    2637.718126       2739.786047
       Pressure         (GPa) =      19.148193         19.054050
  ** Time :            1.42200 ps :
     Properties:                   Instantaneous       Averaged
       Kinetic energy    (eV) =      11.308461         10.982675
       Potential energy  (eV) =     -80.848270        -81.465229
       Total energy      (eV) =     -69.539809        -70.482554
       Temperature       (K)  =    2822.131336       2740.828393
       Pressure         (GPa) =      19.819697         19.063741
  ** Time :            1.44000 ps :
     Properties:                   Instantaneous       Averaged
       Kinetic energy    (eV) =      11.608795         10.990501
       Potential energy  (eV) =     -81.662193        -81.467691
       Total energy      (eV) =     -70.053398        -70.477189
       Temperature       (K)  =    2897.082424       2742.781568
       Pressure         (GPa) =      19.035400         19.063387
  ** Time :            1.45800 ps :
     Properties:                   Instantaneous       Averaged
       Kinetic energy    (eV) =      11.557910         10.997507
       Potential energy  (eV) =     -82.788969        -81.484003
       Total energy      (eV) =     -71.231058        -70.486496
       Temperature       (K)  =    2884.383700       2744.529743
       Pressure         (GPa) =      17.734094         19.046976
  ** Time :            1.47600 ps :
     Properties:                   Instantaneous       Averaged
       Kinetic energy    (eV) =      11.500635         11.003642
       Potential energy  (eV) =     -83.479486        -81.508338
       Total energy      (eV) =     -71.978851        -70.504696
       Temperature       (K)  =    2870.090083       2746.060966
       Pressure         (GPa) =      16.963657         19.021570
  ** Time :            1.49400 ps :
     Properties:                   Instantaneous       Averaged
       Kinetic energy    (eV) =      10.651930         10.999405
       Potential energy  (eV) =     -83.004231        -81.526361
       Total energy      (eV) =     -72.352301        -70.526956
       Temperature       (K)  =    2658.287805       2745.003458
       Pressure         (GPa) =      17.436896         19.002477
  ** Time :            1.51200 ps :
     Properties:                   Instantaneous       Averaged
       Kinetic energy    (eV) =      10.408742         10.992373
       Potential energy  (eV) =     -80.998991        -81.520083
       Total energy      (eV) =     -70.590249        -70.527710
       Temperature       (K)  =    2597.598064       2743.248632
       Pressure         (GPa) =      19.186245         19.004665
  ** Time :            1.53000 ps :
     Properties:                   Instantaneous       Averaged
       Kinetic energy    (eV) =      10.933770         10.991684
       Potential energy  (eV) =     -82.462931        -81.531175
       Total energy      (eV) =     -71.529161        -70.539491
       Temperature       (K)  =    2728.623603       2743.076573
       Pressure         (GPa) =      17.929071         18.992011
  ** Time :            1.54800 ps :
     Properties:                   Instantaneous       Averaged
       Kinetic energy    (eV) =      10.927815         10.990941
       Potential energy  (eV) =     -82.317497        -81.540318
       Total energy      (eV) =     -71.389682        -70.549377
       Temperature       (K)  =    2727.137629       2742.891236
       Pressure         (GPa) =      18.132232         18.982013
  ** Time :            1.56600 ps :
     Properties:                   Instantaneous       Averaged
       Kinetic energy    (eV) =      10.755366         10.988233
       Potential energy  (eV) =     -81.331446        -81.537917
       Total energy      (eV) =     -70.576080        -70.549684
       Temperature       (K)  =    2684.101349       2742.215491
       Pressure         (GPa) =      19.231671         18.984883
  ** Time :            1.58400 ps :
     Properties:                   Instantaneous       Averaged
       Kinetic energy    (eV) =      11.521243         10.994290
       Potential energy  (eV) =     -81.635478        -81.539026
       Total energy      (eV) =     -70.114235        -70.544736
       Temperature       (K)  =    2875.232944       2743.727053
       Pressure         (GPa) =      18.828005         18.983100
  ** Time :            1.60200 ps :
     Properties:                   Instantaneous       Averaged
       Kinetic energy    (eV) =      11.849679         11.003901
       Potential energy  (eV) =     -83.532221        -81.561421
       Total energy      (eV) =     -71.682541        -70.557520
       Temperature       (K)  =    2957.197331       2746.125595
       Pressure         (GPa) =      16.592034         18.956234
  ** Time :            1.62000 ps :
     Properties:                   Instantaneous       Averaged
       Kinetic energy    (eV) =      10.494506         10.998241
       Potential energy  (eV) =     -83.004278        -81.577453
       Total energy      (eV) =     -72.509772        -70.579212
       Temperature       (K)  =    2619.001324       2744.713103
       Pressure         (GPa) =      16.890184         18.933278
  ** Time :            1.63800 ps :
     Properties:                   Instantaneous       Averaged
       Kinetic energy    (eV) =      10.960176         10.997823
       Potential energy  (eV) =     -81.790523        -81.579795
       Total energy      (eV) =     -70.830347        -70.581972
       Temperature       (K)  =    2735.213490       2744.608712
       Pressure         (GPa) =      18.486526         18.928369
  ** Time :            1.65600 ps :
     Properties:                   Instantaneous       Averaged
       Kinetic energy    (eV) =      10.772986         10.995379
       Potential energy  (eV) =     -81.388264        -81.577713
       Total energy      (eV) =     -70.615279        -70.582334
       Temperature       (K)  =    2688.498443       2743.998818
       Pressure         (GPa) =      19.095318         18.930184
  ** Time :            1.67400 ps :
     Properties:                   Instantaneous       Averaged
       Kinetic energy    (eV) =      11.546111         11.001301
       Potential energy  (eV) =     -81.528878        -81.577188
       Total energy      (eV) =     -69.982767        -70.575887
       Temperature       (K)  =    2881.439135       2745.476670
       Pressure         (GPa) =      18.802721         18.928813
  ** Time :            1.69200 ps :
     Properties:                   Instantaneous       Averaged
       Kinetic energy    (eV) =      12.323091         11.015363
       Potential energy  (eV) =     -84.141248        -81.604465
       Total energy      (eV) =     -71.818157        -70.589102
       Temperature       (K)  =    3075.341609       2748.985872
       Pressure         (GPa) =      15.994311         18.897595
  ** Time :            1.71000 ps :
     Properties:                   Instantaneous       Averaged
       Kinetic energy    (eV) =      11.364629         11.019039
       Potential energy  (eV) =     -85.067849        -81.640922
       Total energy      (eV) =     -73.703219        -70.621883
       Temperature       (K)  =    2836.148622       2749.903375
       Pressure         (GPa) =      14.683098         18.853232
  ** Time :            1.72800 ps :
     Properties:                   Instantaneous       Averaged
       Kinetic energy    (eV) =      11.286062         11.021821
       Potential energy  (eV) =     -85.025505        -81.676178
       Total energy      (eV) =     -73.739443        -70.654357
       Temperature       (K)  =    2816.541458       2750.597521
       Pressure         (GPa) =      14.880279         18.811847
  ** Time :            1.74600 ps :
     Properties:                   Instantaneous       Averaged
       Kinetic energy    (eV) =      10.236557         11.013725
       Potential energy  (eV) =     -83.646607        -81.696491
       Total energy      (eV) =     -73.410050        -70.682766
       Temperature       (K)  =    2554.627820       2748.577215
       Pressure         (GPa) =      16.555183         18.788582
  ** Time :            1.76400 ps :
     Properties:                   Instantaneous       Averaged
       Kinetic energy    (eV) =       9.840952         11.001758
       Potential energy  (eV) =     -81.454157        -81.694019
       Total energy      (eV) =     -71.613205        -70.692261
       Temperature       (K)  =    2455.900845       2745.590721
       Pressure         (GPa) =      19.035116         18.791098
  ** Time :            1.78200 ps :
     Properties:                   Instantaneous       Averaged
       Kinetic energy    (eV) =      10.605599         10.997756
       Potential energy  (eV) =     -79.989256        -81.676799
       Total energy      (eV) =     -69.383658        -70.679042
       Temperature       (K)  =    2646.725535       2744.592083
       Pressure         (GPa) =      20.624849         18.809621
  ** Time :            1.80000 ps :
     Properties:                   Instantaneous       Averaged
       Kinetic energy    (eV) =      11.736110         11.005140
       Potential energy  (eV) =     -81.597485        -81.676006
       Total energy      (eV) =     -69.861375        -70.670866
       Temperature       (K)  =    2928.855021       2746.434713
       Pressure         (GPa) =      19.403336         18.815558
  ** Time :            1.81800 ps :
     Properties:                   Instantaneous       Averaged
       Kinetic energy    (eV) =      11.794671         11.012957
       Potential energy  (eV) =     -82.906923        -81.688193
       Total energy      (eV) =     -71.112252        -70.675236
       Temperature       (K)  =    2943.469457       2748.385552
       Pressure         (GPa) =      18.069656         18.808173
  ** Time :            1.83600 ps :
     Properties:                   Instantaneous       Averaged
       Kinetic energy    (eV) =      11.810722         11.020778
       Potential energy  (eV) =     -84.451181        -81.715281
       Total energy      (eV) =     -72.640460        -70.694503
       Temperature       (K)  =    2947.475082       2750.337410
       Pressure         (GPa) =      16.192070         18.782525
  ** Time :            1.85400 ps :
     Properties:                   Instantaneous       Averaged
       Kinetic energy    (eV) =      10.899328         11.019599
       Potential energy  (eV) =     -84.563671        -81.742935
       Total energy      (eV) =     -73.664343        -70.723336
       Temperature       (K)  =    2720.028337       2750.043147
       Pressure         (GPa) =      15.688399         18.752485
  ** Time :            1.87200 ps :
     Properties:                   Instantaneous       Averaged
       Kinetic energy    (eV) =      10.523393         11.014828
       Potential energy  (eV) =     -82.969658        -81.754731
       Total energy      (eV) =     -72.446266        -70.739903
       Temperature       (K)  =    2626.210229       2748.852446
       Pressure         (GPa) =      17.129423         18.736878
  ** Time :            1.89000 ps :
     Properties:                   Instantaneous       Averaged
       Kinetic energy    (eV) =      11.747229         11.021803
       Potential energy  (eV) =     -83.650081        -81.772782
       Total energy      (eV) =     -71.902852        -70.750979
       Temperature       (K)  =    2931.629968       2750.593184
       Pressure         (GPa) =      16.708164         18.717557
  ** Time :            1.90800 ps :
     Properties:                   Instantaneous       Averaged
       Kinetic energy    (eV) =      10.286270         11.014864
       Potential energy  (eV) =     -83.149289        -81.785768
       Total energy      (eV) =     -72.863019        -70.770903
       Temperature       (K)  =    2567.034087       2748.861495
       Pressure         (GPa) =      16.681158         18.698346
  ** Time :            1.92600 ps :
     Properties:                   Instantaneous       Averaged
       Kinetic energy    (eV) =      11.807899         11.022276
       Potential energy  (eV) =     -84.072152        -81.807136
       Total energy      (eV) =     -72.264254        -70.784860
       Temperature       (K)  =    2946.770656       2750.711113
       Pressure         (GPa) =      16.056116         18.673652
  ** Time :            1.94400 ps :
     Properties:                   Instantaneous       Averaged
       Kinetic energy    (eV) =      11.717612         11.028714
       Potential energy  (eV) =     -85.220423        -81.838740
       Total energy      (eV) =     -73.502812        -70.810026
       Temperature       (K)  =    2924.238618       2752.317849
       Pressure         (GPa) =      14.728710         18.637125
  ** Time :            1.96200 ps :
     Properties:                   Instantaneous       Averaged
       Kinetic energy    (eV) =      11.204309         11.030325
       Potential energy  (eV) =     -85.531837        -81.872622
       Total energy      (eV) =     -74.327529        -70.842297
       Temperature       (K)  =    2796.139114       2752.719879
       Pressure         (GPa) =      14.271878         18.597077
  ** Time :            1.98000 ps :
     Properties:                   Instantaneous       Averaged
       Kinetic energy    (eV) =      10.728736         11.027583
       Potential energy  (eV) =     -84.273518        -81.894448
       Total energy      (eV) =     -73.544782        -70.866865
       Temperature       (K)  =    2677.455652       2752.035659
       Pressure         (GPa) =      15.392240         18.567942
  ** Time :            1.99800 ps :
     Properties:                   Instantaneous       Averaged
       Kinetic energy    (eV) =      11.121054         11.028425
       Potential energy  (eV) =     -84.006523        -81.913476
       Total energy      (eV) =     -72.885469        -70.885051
       Temperature       (K)  =    2775.362188       2752.245808
       Pressure         (GPa) =      15.940861         18.544274
  ** Time :            2.01600 ps :
     Properties:                   Instantaneous       Averaged
       Kinetic energy    (eV) =      10.077036         11.019931
       Potential energy  (eV) =     -82.437562        -81.918155
       Total energy      (eV) =     -72.360525        -70.898224
       Temperature       (K)  =    2514.817893       2750.125916
       Pressure         (GPa) =      17.613920         18.535968
  ** Time :            2.03400 ps :
     Properties:                   Instantaneous       Averaged
       Kinetic energy    (eV) =      11.801372         11.026846
       Potential energy  (eV) =     -82.514341        -81.923431
       Total energy      (eV) =     -70.712969        -70.896585
       Temperature       (K)  =    2945.141926       2751.851721
       Pressure         (GPa) =      17.827828         18.529701
  ** Time :            2.05200 ps :
     Properties:                   Instantaneous       Averaged
       Kinetic energy    (eV) =      12.002030         11.035400
       Potential energy  (eV) =     -84.833700        -81.948960
       Total energy      (eV) =     -72.831670        -70.913559
       Temperature       (K)  =    2995.217776       2753.986511
       Pressure         (GPa) =      15.056758         18.499237
  ** Time :            2.07000 ps :
     Properties:                   Instantaneous       Averaged
       Kinetic energy    (eV) =      10.915488         11.034358
       Potential energy  (eV) =     -84.890608        -81.974539
       Total energy      (eV) =     -73.975119        -70.940182
       Temperature       (K)  =    2724.061333       2753.726292
       Pressure         (GPa) =      14.711870         18.466303
  ** Time :            2.08800 ps :
     Properties:                   Instantaneous       Averaged
       Kinetic energy    (eV) =      10.376095         11.028683
       Potential energy  (eV) =     -82.883722        -81.982377
       Total energy      (eV) =     -72.507627        -70.953694
       Temperature       (K)  =    2589.450819       2752.310124
       Pressure         (GPa) =      17.189738         18.455298
  ** Time :            2.10600 ps :
     Properties:                   Instantaneous       Averaged
       Kinetic energy    (eV) =      10.307905         11.022523
       Potential energy  (eV) =     -81.452270        -81.977846
       Total energy      (eV) =     -71.144365        -70.955324
       Temperature       (K)  =    2572.433206       2750.772715
       Pressure         (GPa) =      19.506751         18.464285
  ** Time :            2.12400 ps :
     Properties:                   Instantaneous       Averaged
       Kinetic energy    (eV) =      10.099909         11.014704
       Potential energy  (eV) =     -79.127286        -81.953689
       Total energy      (eV) =     -69.027377        -70.938985
       Temperature       (K)  =    2520.525995       2748.821471
       Pressure         (GPa) =      21.788210         18.492454
  ** Time :            2.14200 ps :
     Properties:                   Instantaneous       Averaged
       Kinetic energy    (eV) =      13.003220         11.031414
       Potential energy  (eV) =     -82.115418        -81.955048
       Total energy      (eV) =     -69.112198        -70.923634
       Temperature       (K)  =    3245.074142       2752.991662
       Pressure         (GPa) =      18.983629         18.496581
  ** Time :            2.16000 ps :
     Properties:                   Instantaneous       Averaged
       Kinetic energy    (eV) =      11.200461         11.032823
       Potential energy  (eV) =     -83.757165        -81.970066
       Total energy      (eV) =     -72.556704        -70.937243
       Temperature       (K)  =    2795.178911       2753.343222
       Pressure         (GPa) =      16.545803         18.480325
  ** Time :            2.17800 ps :
     Properties:                   Instantaneous       Averaged
       Kinetic energy    (eV) =      11.812844         11.039269
       Potential energy  (eV) =     -84.027156        -81.987066
       Total energy      (eV) =     -72.214312        -70.947797
       Temperature       (K)  =    2948.004871       2754.951996
       Pressure         (GPa) =      16.230223         18.461729
  ** Time :            2.19600 ps :
     Properties:                   Instantaneous       Averaged
       Kinetic energy    (eV) =      11.024969         11.039152
       Potential energy  (eV) =     -84.611328        -82.008577
       Total energy      (eV) =     -73.586359        -70.969425
       Temperature       (K)  =    2751.383225       2754.922744
       Pressure         (GPa) =      15.526516         18.437670
  ** Time :            2.21400 ps :
     Properties:                   Instantaneous       Averaged
       Kinetic energy    (eV) =       9.963367         11.030406
       Potential energy  (eV) =     -82.165031        -82.009849
       Total energy      (eV) =     -72.201664        -70.979443
       Temperature       (K)  =    2486.450674       2752.740044
       Pressure         (GPa) =      17.641482         18.431197
  ** Time :            2.23200 ps :
     Properties:                   Instantaneous       Averaged
       Kinetic energy    (eV) =      11.407271         11.033445
       Potential energy  (eV) =     -82.222890        -82.011567
       Total energy      (eV) =     -70.815620        -70.978122
       Temperature       (K)  =    2846.790222       2753.498513
       Pressure         (GPa) =      18.043939         18.428074
  ** Time :            2.25000 ps :
     Properties:                   Instantaneous       Averaged
       Kinetic energy    (eV) =      11.701816         11.038792
       Potential energy  (eV) =     -83.140347        -82.020597
       Total energy      (eV) =     -71.438531        -70.981805
       Temperature       (K)  =    2920.296640       2754.832898
       Pressure         (GPa) =      17.115725         18.417575
  ** Time :            2.26800 ps :
     Properties:                   Instantaneous       Averaged
       Kinetic energy    (eV) =      11.390581         11.041584
       Potential energy  (eV) =     -84.590491        -82.040993
       Total energy      (eV) =     -73.199910        -70.999409
       Temperature       (K)  =    2842.625114       2755.529662
       Pressure         (GPa) =      15.758213         18.396469
  ** Time :            2.28600 ps :
     Properties:                   Instantaneous       Averaged
       Kinetic energy    (eV) =      10.437132         11.036824
       Potential energy  (eV) =     -83.302317        -82.050925
       Total energy      (eV) =     -72.865185        -71.014100
       Temperature       (K)  =    2604.683131       2754.341894
       Pressure         (GPa) =      17.210561         18.387131
  ** Time :            2.30400 ps :
     Properties:                   Instantaneous       Averaged
       Kinetic energy    (eV) =      11.420411         11.039821
       Potential energy  (eV) =     -82.771533        -82.056555
       Total energy      (eV) =     -71.351122        -71.016733
       Temperature       (K)  =    2850.069511       2755.089766
       Pressure         (GPa) =      18.062070         18.384591
  ** Time :            2.32200 ps :
     Properties:                   Instantaneous       Averaged
       Kinetic energy    (eV) =      11.532199         11.043638
       Potential energy  (eV) =     -83.612774        -82.068618
       Total energy      (eV) =     -72.080576        -71.024980
       Temperature       (K)  =    2877.967150       2756.042304
       Pressure         (GPa) =      17.126320         18.374837
  ** Time :            2.34000 ps :
     Properties:                   Instantaneous       Averaged
       Kinetic energy    (eV) =      11.557045         11.047587
       Potential energy  (eV) =     -84.404177        -82.086584
       Total energy      (eV) =     -72.847131        -71.038997
       Temperature       (K)  =    2884.167795       2757.027884
       Pressure         (GPa) =      16.185206         18.357994
  ** Time :            2.35800 ps :
     Properties:                   Instantaneous       Averaged
       Kinetic energy    (eV) =      11.342573         11.049839
       Potential energy  (eV) =     -84.529378        -82.105231
       Total energy      (eV) =     -73.186805        -71.055392
       Temperature       (K)  =    2830.644347       2757.589842
       Pressure         (GPa) =      15.675325         18.337516
  ** Time :            2.37600 ps :
     Properties:                   Instantaneous       Averaged
       Kinetic energy    (eV) =      11.961764         11.056748
       Potential energy  (eV) =     -85.666696        -82.132212
       Total energy      (eV) =     -73.704932        -71.075464
       Temperature       (K)  =    2985.169105       2759.313928
       Pressure         (GPa) =      14.244723         18.306510
  ** Time :            2.39400 ps :
     Properties:                   Instantaneous       Averaged
       Kinetic energy    (eV) =      11.128595         11.057288
       Potential energy  (eV) =     -86.195858        -82.162766
       Total energy      (eV) =     -75.067263        -71.105478
       Temperature       (K)  =    2777.244170       2759.448741
       Pressure         (GPa) =      13.387309         18.269523
  ** Time :            2.41200 ps :
     Properties:                   Instantaneous       Averaged
       Kinetic energy    (eV) =       9.834839         11.048165
       Potential energy  (eV) =     -84.178131        -82.177806
       Total energy      (eV) =     -74.343291        -71.129641
       Temperature       (K)  =    2454.375399       2757.172075
       Pressure         (GPa) =      15.535714         18.249122
  ** Time :            2.43000 ps :
     Properties:                   Instantaneous       Averaged
       Kinetic energy    (eV) =      10.516661         11.044228
       Potential energy  (eV) =     -82.313769        -82.178813
       Total energy      (eV) =     -71.797108        -71.134585
       Temperature       (K)  =    2624.530230       2756.189542
       Pressure         (GPa) =      17.892862         18.246483
  ** Time :            2.44800 ps :
     Properties:                   Instantaneous       Averaged
       Kinetic energy    (eV) =      10.886543         11.043069
       Potential energy  (eV) =     -81.986528        -82.177399
       Total energy      (eV) =     -71.099985        -71.134331
       Temperature       (K)  =    2716.837704       2755.900191
       Pressure         (GPa) =      18.395801         18.247581
  ** Time :            2.46600 ps :
     Properties:                   Instantaneous       Averaged
       Kinetic energy    (eV) =      10.749547         11.040926
       Potential energy  (eV) =     -81.557491        -82.172874
       Total energy      (eV) =     -70.807944        -71.131948
       Temperature       (K)  =    2682.649057       2755.365511
       Pressure         (GPa) =      18.745017         18.251211
  ** Time :            2.48400 ps :
     Properties:                   Instantaneous       Averaged
       Kinetic energy    (eV) =      10.934568         11.040155
       Potential energy  (eV) =     -81.905410        -82.170936
       Total energy      (eV) =     -70.970842        -71.130781
       Temperature       (K)  =    2728.822763       2755.173172
       Pressure         (GPa) =      18.509127         18.253080
  ** Time :            2.50200 ps :
     Properties:                   Instantaneous       Averaged
       Kinetic energy    (eV) =      11.075204         11.040408
       Potential energy  (eV) =     -81.966509        -82.169465
       Total energy      (eV) =     -70.891305        -71.129058
       Temperature       (K)  =    2763.919938       2755.236099
       Pressure         (GPa) =      18.559872         18.255288
  ** Time :            2.52000 ps :
     Properties:                   Instantaneous       Averaged
       Kinetic energy    (eV) =      11.725448         11.045301
       Potential energy  (eV) =     -82.838150        -82.174242
       Total energy      (eV) =     -71.112702        -71.128941
       Temperature       (K)  =    2926.194200       2756.457228
       Pressure         (GPa) =      17.785084         18.251929
  ** Time :            2.53800 ps :
     Properties:                   Instantaneous       Averaged
       Kinetic energy    (eV) =      12.316104         11.054314
       Potential energy  (eV) =     -85.210621        -82.195776
       Total energy      (eV) =     -72.894517        -71.141463
       Temperature       (K)  =    3073.598047       2758.706453
       Pressure         (GPa) =      15.325019         18.231171
  ** Time :            2.55600 ps :
     Properties:                   Instantaneous       Averaged
       Kinetic energy    (eV) =      11.571033         11.057952
       Potential energy  (eV) =     -86.130420        -82.223485
       Total energy      (eV) =     -74.559387        -71.165533
       Temperature       (K)  =    2887.658614       2759.614567
       Pressure         (GPa) =      14.043025         18.201677
  ** Time :            2.57400 ps :
     Properties:                   Instantaneous       Averaged
       Kinetic energy    (eV) =      11.556023         11.061435
       Potential energy  (eV) =     -86.330966        -82.252209
       Total energy      (eV) =     -74.774943        -71.190773
       Temperature       (K)  =    2883.912671       2760.483785
       Pressure         (GPa) =      13.624372         18.169668
  ** Time :            2.59200 ps :
     Properties:                   Instantaneous       Averaged
       Kinetic energy    (eV) =      10.825458         11.059797
       Potential energy  (eV) =     -85.779297        -82.276702
       Total energy      (eV) =     -74.953838        -71.216906
       Temperature       (K)  =    2701.593556       2760.074825
       Pressure         (GPa) =      14.015376         18.140818
  ** Time :            2.61000 ps :
     Properties:                   Instantaneous       Averaged
       Kinetic energy    (eV) =      10.408531         11.055305
       Potential energy  (eV) =     -83.872246        -82.287706
       Total energy      (eV) =     -73.463714        -71.232401
       Temperature       (K)  =    2597.545518       2758.953933
       Pressure         (GPa) =      15.946094         18.125682
  ** Time :            2.62800 ps :
     Properties:                   Instantaneous       Averaged
       Kinetic energy    (eV) =      11.396389         11.057641
       Potential energy  (eV) =     -83.518738        -82.296138
       Total energy      (eV) =     -72.122349        -71.238497
       Temperature       (K)  =    2844.074498       2759.536951
       Pressure         (GPa) =      16.686266         18.115823
  ** Time :            2.64600 ps :
     Properties:                   Instantaneous       Averaged
       Kinetic energy    (eV) =      11.059846         11.057656
       Potential energy  (eV) =     -83.428841        -82.303843
       Total energy      (eV) =     -72.368995        -71.246187
       Temperature       (K)  =    2760.087168       2759.540694
       Pressure         (GPa) =      16.931398         18.107766
  ** Time :            2.66400 ps :
     Properties:                   Instantaneous       Averaged
       Kinetic energy    (eV) =      11.044411         11.057567
       Potential energy  (eV) =     -83.385593        -82.311153
       Total energy      (eV) =     -72.341181        -71.253586
       Temperature       (K)  =    2756.235273       2759.518360
       Pressure         (GPa) =      17.400399         18.102987
  ** Time :            2.68200 ps :
     Properties:                   Instantaneous       Averaged
       Kinetic energy    (eV) =       9.999655         11.050467
       Potential energy  (eV) =     -81.455986        -82.305413
       Total energy      (eV) =     -71.456331        -71.254946
       Temperature       (K)  =    2495.506563       2757.746468
       Pressure         (GPa) =      19.371260         18.111498
  ** Time :            2.70000 ps :
     Properties:                   Instantaneous       Averaged
       Kinetic energy    (eV) =      11.814786         11.055562
       Potential energy  (eV) =     -81.381910        -82.299256
       Total energy      (eV) =     -69.567124        -71.243694
       Temperature       (K)  =    2948.489531       2759.018089
       Pressure         (GPa) =      19.804269         18.122784
  ** Time :            2.71800 ps :
     Properties:                   Instantaneous       Averaged
       Kinetic energy    (eV) =      11.322150         11.057328
       Potential energy  (eV) =     -82.547456        -82.300900
       Total energy      (eV) =     -71.225306        -71.243572
       Temperature       (K)  =    2825.547569       2759.458681
       Pressure         (GPa) =      18.459335         18.125012
  ** Time :            2.73600 ps :
     Properties:                   Instantaneous       Averaged
       Kinetic energy    (eV) =      10.770439         11.055440
       Potential energy  (eV) =     -81.455869        -82.295341
       Total energy      (eV) =     -70.685431        -71.239900
       Temperature       (K)  =    2687.862862       2758.987656
       Pressure         (GPa) =      19.296753         18.132721
  ** Time :            2.75400 ps :
     Properties:                   Instantaneous       Averaged
       Kinetic energy    (eV) =      11.079547         11.055598
       Potential energy  (eV) =     -81.412491        -82.289570
       Total energy      (eV) =     -70.332944        -71.233973
       Temperature       (K)  =    2765.003719       2759.026977
       Pressure         (GPa) =      19.515227         18.141757
  ** Time :            2.77200 ps :
     Properties:                   Instantaneous       Averaged
       Kinetic energy    (eV) =      10.285817         11.050599
       Potential energy  (eV) =     -79.726855        -82.272929
       Total energy      (eV) =     -69.441038        -71.222330
       Temperature       (K)  =    2566.920925       2757.779535
       Pressure         (GPa) =      21.155756         18.161329
  ** Time :            2.79000 ps :
     Properties:                   Instantaneous       Averaged
       Kinetic energy    (eV) =      11.849494         11.055753
       Potential energy  (eV) =     -80.641360        -82.262403
       Total energy      (eV) =     -68.791866        -71.206650
       Temperature       (K)  =    2957.151072       2759.065803
       Pressure         (GPa) =      20.694520         18.177672
  ** Time :            2.80800 ps :
     Properties:                   Instantaneous       Averaged
       Kinetic energy    (eV) =      11.728753         11.060068
       Potential energy  (eV) =     -82.390869        -82.263227
       Total energy      (eV) =     -70.662116        -71.203159
       Temperature       (K)  =    2927.019187       2760.142427
       Pressure         (GPa) =      18.668962         18.180821
  ** Time :            2.82600 ps :
     Properties:                   Instantaneous       Averaged
       Kinetic energy    (eV) =      11.298680         11.061587
       Potential energy  (eV) =     -82.834930        -82.266868
       Total energy      (eV) =     -71.536251        -71.205281
       Temperature       (K)  =    2819.690274       2760.521713
       Pressure         (GPa) =      17.779553         18.178265
  ** Time :            2.84400 ps :
     Properties:                   Instantaneous       Averaged
       Kinetic energy    (eV) =      11.212590         11.062543
       Potential energy  (eV) =     -83.047437        -82.271808
       Total energy      (eV) =     -71.834848        -71.209265
       Temperature       (K)  =    2798.205739       2760.760219
       Pressure         (GPa) =      17.204843         18.172104
  ** Time :            2.86200 ps :
     Properties:                   Instantaneous       Averaged
       Kinetic energy    (eV) =      11.139248         11.063026
       Potential energy  (eV) =     -82.533076        -82.273452
       Total energy      (eV) =     -71.393828        -71.210426
       Temperature       (K)  =    2779.902611       2760.880612
       Pressure         (GPa) =      17.447473         18.167547
  ** Time :            2.88000 ps :
     Properties:                   Instantaneous       Averaged
       Kinetic energy    (eV) =      11.730174         11.067195
       Potential energy  (eV) =     -83.805978        -82.283030
       Total energy      (eV) =     -72.075804        -71.215835
       Temperature       (K)  =    2927.373751       2761.921194
       Pressure         (GPa) =      16.496084         18.157100
  ** Time :            2.89800 ps :
     Properties:                   Instantaneous       Averaged
       Kinetic energy    (eV) =      10.512927         11.063753
       Potential energy  (eV) =     -83.072811        -82.287935
       Total energy      (eV) =     -72.559884        -71.224183
       Temperature       (K)  =    2623.598414       2761.062046
       Pressure         (GPa) =      17.357471         18.152134
  ** Time :            2.91600 ps :
     Properties:                   Instantaneous       Averaged
       Kinetic energy    (eV) =      10.152618         11.058128
       Potential energy  (eV) =     -80.922077        -82.279504
       Total energy      (eV) =     -70.769459        -71.221376
       Temperature       (K)  =    2533.679896       2759.658453
       Pressure         (GPa) =      19.681824         18.161576
  ** Time :            2.93400 ps :
     Properties:                   Instantaneous       Averaged
       Kinetic energy    (eV) =      11.223623         11.059144
       Potential energy  (eV) =     -80.116454        -82.266234
       Total energy      (eV) =     -68.892831        -71.207090
       Temperature       (K)  =    2800.959132       2759.911831
       Pressure         (GPa) =      20.700847         18.177154
  ** Time :            2.95200 ps :
     Properties:                   Instantaneous       Averaged
       Kinetic energy    (eV) =      10.506220         11.055772
[...]
       Potential energy  (eV) =     -83.354795        -83.702572
       Total energy      (eV) =     -73.096463        -72.935814
       Temperature       (K)  =    2560.062010       2686.944412
       Pressure         (GPa) =      16.379531         16.481450
  ** Time :            9.23400 ps :
     Properties:                   Instantaneous       Averaged
       Kinetic energy    (eV) =      10.143736         10.765544
       Potential energy  (eV) =     -83.058501        -83.701317
       Total energy      (eV) =     -72.914765        -72.935773
       Temperature       (K)  =    2531.463343       2686.641330
       Pressure         (GPa) =      16.388421         16.481269
  ** Time :            9.25200 ps :
     Properties:                   Instantaneous       Averaged
       Kinetic energy    (eV) =      10.564926         10.765154
       Potential energy  (eV) =     -83.570640        -83.701063
       Total energy      (eV) =     -73.005714        -72.935909
       Temperature       (K)  =    2636.575327       2686.543926
       Pressure         (GPa) =      15.999732         16.480332
  ** Time :            9.27000 ps :
     Properties:                   Instantaneous       Averaged
       Kinetic energy    (eV) =      10.713012         10.765052
       Potential energy  (eV) =     -83.800162        -83.701255
       Total energy      (eV) =     -73.087150        -72.936203
       Temperature       (K)  =    2673.531586       2686.518659
       Pressure         (GPa) =      15.971181         16.479343
  ** Time :            9.28800 ps :
     Properties:                   Instantaneous       Averaged
       Kinetic energy    (eV) =       9.866067         10.763310
       Potential energy  (eV) =     -82.771968        -83.699454
       Total energy      (eV) =     -72.905901        -72.936144
       Temperature       (K)  =    2462.168545       2686.083872
       Pressure         (GPa) =      17.080878         16.480509
  ** Time :            9.30600 ps :
     Properties:                   Instantaneous       Averaged
       Kinetic energy    (eV) =       9.801785         10.761450
       Potential energy  (eV) =     -82.743769        -83.697606
       Total energy      (eV) =     -72.941984        -72.936155
       Temperature       (K)  =    2446.126319       2685.619738
       Pressure         (GPa) =      17.365804         16.482222
  ** Time :            9.32400 ps :
     Properties:                   Instantaneous       Averaged
       Kinetic energy    (eV) =      10.012130         10.760004
       Potential energy  (eV) =     -82.963370        -83.696188
       Total energy      (eV) =     -72.951240        -72.936184
       Temperature       (K)  =    2498.619993       2685.258734
       Pressure         (GPa) =      17.370580         16.483937
  ** Time :            9.34200 ps :
     Properties:                   Instantaneous       Averaged
       Kinetic energy    (eV) =      10.338487         10.759192
       Potential energy  (eV) =     -83.231714        -83.695293
       Total energy      (eV) =     -72.893227        -72.936102
       Temperature       (K)  =    2580.065292       2685.056049
       Pressure         (GPa) =      17.156023         16.485232
  ** Time :            9.36000 ps :
     Properties:                   Instantaneous       Averaged
       Kinetic energy    (eV) =      11.179380         10.760000
       Potential energy  (eV) =     -84.196184        -83.696256
       Total energy      (eV) =     -73.016804        -72.936257
       Temperature       (K)  =    2789.917900       2685.257707
       Pressure         (GPa) =      16.272132         16.484822
  ** Time :            9.37800 ps :
     Properties:                   Instantaneous       Averaged
       Kinetic energy    (eV) =      11.126915         10.760704
       Potential energy  (eV) =     -84.103315        -83.697038
       Total energy      (eV) =     -72.976400        -72.936334
       Temperature       (K)  =    2776.824840       2685.433459
       Pressure         (GPa) =      16.394731         16.484649
  ** Time :            9.39600 ps :
     Properties:                   Instantaneous       Averaged
       Kinetic energy    (eV) =      10.791748         10.760763
       Potential energy  (eV) =     -83.636635        -83.696922
       Total energy      (eV) =     -72.844887        -72.936159
       Temperature       (K)  =    2693.180892       2685.448301
       Pressure         (GPa) =      16.750614         16.485158
  ** Time :            9.41400 ps :
     Properties:                   Instantaneous       Averaged
       Kinetic energy    (eV) =      11.333669         10.761859
       Potential energy  (eV) =     -84.419820        -83.698304
       Total energy      (eV) =     -73.086151        -72.936445
       Temperature       (K)  =    2828.422153       2685.721674
       Pressure         (GPa) =      15.879460         16.484000
  ** Time :            9.43200 ps :
     Properties:                   Instantaneous       Averaged
       Kinetic energy    (eV) =      11.038450         10.762387
       Potential energy  (eV) =     -83.976427        -83.698835
       Total energy      (eV) =     -72.937977        -72.936448
       Temperature       (K)  =    2754.747571       2685.853403
       Pressure         (GPa) =      16.003635         16.483083
  ** Time :            9.45000 ps :
     Properties:                   Instantaneous       Averaged
       Kinetic energy    (eV) =      11.156994         10.763138
       Potential energy  (eV) =     -84.252893        -83.699890
       Total energy      (eV) =     -73.095899        -72.936752
       Temperature       (K)  =    2784.331400       2686.040980
       Pressure         (GPa) =      15.722493         16.481635
  ** Time :            9.46800 ps :
     Properties:                   Instantaneous       Averaged
       Kinetic energy    (eV) =      10.678651         10.762978
       Potential energy  (eV) =     -83.672134        -83.699838
       Total energy      (eV) =     -72.993483        -72.936860
       Temperature       (K)  =    2664.956327       2686.000895
       Pressure         (GPa) =      16.384989         16.481451
  ** Time :            9.48600 ps :
     Properties:                   Instantaneous       Averaged
       Kinetic energy    (eV) =       9.378800         10.760351
       Potential energy  (eV) =     -82.302146        -83.697185
       Total energy      (eV) =     -72.923345        -72.936834
       Temperature       (K)  =    2340.566569       2685.345422
       Pressure         (GPa) =      17.810031         16.483972
  ** Time :            9.50400 ps :
     Properties:                   Instantaneous       Averaged
       Kinetic energy    (eV) =       9.372744         10.757723
       Potential energy  (eV) =     -82.259727        -83.694463
       Total energy      (eV) =     -72.886983        -72.936740
       Temperature       (K)  =    2339.055257       2684.689569
       Pressure         (GPa) =      17.738005         16.486347
  ** Time :            9.52200 ps :
     Properties:                   Instantaneous       Averaged
       Kinetic energy    (eV) =      11.083013         10.758338
       Potential energy  (eV) =     -84.058453        -83.695151
       Total energy      (eV) =     -72.975440        -72.936813
       Temperature       (K)  =    2765.868587       2684.843027
       Pressure         (GPa) =      15.924185         16.485284
  ** Time :            9.54000 ps :
     Properties:                   Instantaneous       Averaged
       Kinetic energy    (eV) =      12.201937         10.761062
       Potential energy  (eV) =     -85.343998        -83.698262
       Total energy      (eV) =     -73.142061        -72.937200
       Temperature       (K)  =    3045.106500       2685.522769
       Pressure         (GPa) =      14.877098         16.482250
  ** Time :            9.55800 ps :
     Properties:                   Instantaneous       Averaged
       Kinetic energy    (eV) =      11.495398         10.762445
       Potential energy  (eV) =     -84.338525        -83.699468
       Total energy      (eV) =     -72.843127        -72.937023
       Temperature       (K)  =    2868.783280       2685.867892
       Pressure         (GPa) =      16.073936         16.481481
  ** Time :            9.57600 ps :
     Properties:                   Instantaneous       Averaged
       Kinetic energy    (eV) =      11.494024         10.763820
       Potential energy  (eV) =     -84.419694        -83.700822
       Total energy      (eV) =     -72.925670        -72.937002
       Temperature       (K)  =    2868.440335       2686.211074
       Pressure         (GPa) =      16.105229         16.480774
  ** Time :            9.59400 ps :
     Properties:                   Instantaneous       Averaged
       Kinetic energy    (eV) =      11.822356         10.765806
       Potential energy  (eV) =     -84.788523        -83.702862
       Total energy      (eV) =     -72.966167        -72.937056
       Temperature       (K)  =    2950.378530       2686.706697
       Pressure         (GPa) =      15.546692         16.479021
  ** Time :            9.61200 ps :
     Properties:                   Instantaneous       Averaged
       Kinetic energy    (eV) =      11.672455         10.767504
       Potential energy  (eV) =     -84.642780        -83.704623
       Total energy      (eV) =     -72.970325        -72.937119
       Temperature       (K)  =    2912.969486       2687.130411
       Pressure         (GPa) =      15.530094         16.477244
  ** Time :            9.63000 ps :
     Properties:                   Instantaneous       Averaged
       Kinetic energy    (eV) =      11.148574         10.768216
       Potential energy  (eV) =     -84.243069        -83.705629
       Total energy      (eV) =     -73.094495        -72.937413
       Temperature       (K)  =    2782.230085       2687.308167
       Pressure         (GPa) =      15.886885         16.476141
  ** Time :            9.64800 ps :
     Properties:                   Instantaneous       Averaged
       Kinetic energy    (eV) =       9.748829         10.766314
       Potential energy  (eV) =     -82.573667        -83.703517
       Total energy      (eV) =     -72.824838        -72.937203
       Temperature       (K)  =    2432.910600       2686.833545
       Pressure         (GPa) =      17.440447         16.477940
  ** Time :            9.66600 ps :
     Properties:                   Instantaneous       Averaged
       Kinetic energy    (eV) =       9.197862         10.763393
       Potential energy  (eV) =     -82.101054        -83.700533
       Total energy      (eV) =     -72.903192        -72.937140
       Temperature       (K)  =    2295.411800       2686.104640
       Pressure         (GPa) =      17.994471         16.480764
  ** Time :            9.68400 ps :
     Properties:                   Instantaneous       Averaged
       Kinetic energy    (eV) =       9.420145         10.760897
       Potential energy  (eV) =     -82.391576        -83.698100
       Total energy      (eV) =     -72.971430        -72.937203
       Temperature       (K)  =    2350.884637       2685.481555
       Pressure         (GPa) =      17.753792         16.483130
  ** Time :            9.70200 ps :
     Properties:                   Instantaneous       Averaged
       Kinetic energy    (eV) =      10.405683         10.760238
       Potential energy  (eV) =     -83.346464        -83.697448
       Total energy      (eV) =     -72.940781        -72.937210
       Temperature       (K)  =    2596.834814       2685.317089
       Pressure         (GPa) =      16.758858         16.483642
  ** Time :            9.72000 ps :
     Properties:                   Instantaneous       Averaged
       Kinetic energy    (eV) =      11.201978         10.761056
       Potential energy  (eV) =     -84.333472        -83.698625
       Total energy      (eV) =     -73.131494        -72.937570
       Temperature       (K)  =    2795.557422       2685.521238
       Pressure         (GPa) =      15.863653         16.482494
  ** Time :            9.73800 ps :
     Properties:                   Instantaneous       Averaged
       Kinetic energy    (eV) =      10.380418         10.760352
       Potential energy  (eV) =     -82.688127        -83.696758
       Total energy      (eV) =     -72.307709        -72.936405
       Temperature       (K)  =    2590.529580       2685.345653
       Pressure         (GPa) =      17.044886         16.483533
  ** Time :            9.75600 ps :
     Properties:                   Instantaneous       Averaged
       Kinetic energy    (eV) =      12.629875         10.763801
       Potential energy  (eV) =     -85.635463        -83.700335
       Total energy      (eV) =     -73.005588        -72.936533
       Temperature       (K)  =    3151.902345       2686.206458
       Pressure         (GPa) =      14.297712         16.479500
  ** Time :            9.77400 ps :
     Properties:                   Instantaneous       Averaged
       Kinetic energy    (eV) =      12.562151         10.767113
       Potential energy  (eV) =     -85.377604        -83.703423
       Total energy      (eV) =     -72.815453        -72.936310
       Temperature       (K)  =    3135.001237       2687.032968
       Pressure         (GPa) =      14.572991         16.475989
  ** Time :            9.79200 ps :
     Properties:                   Instantaneous       Averaged
       Kinetic energy    (eV) =      11.537486         10.768529
       Potential energy  (eV) =     -84.275633        -83.704475
       Total energy      (eV) =     -72.738146        -72.935946
       Temperature       (K)  =    2879.286697       2687.386376
       Pressure         (GPa) =      15.962589         16.475046
  ** Time :            9.81000 ps :
     Properties:                   Instantaneous       Averaged
       Kinetic energy    (eV) =      11.762748         10.770354
       Potential energy  (eV) =     -84.509923        -83.705953
       Total energy      (eV) =     -72.747175        -72.935600
       Temperature       (K)  =    2935.502801       2687.841635
       Pressure         (GPa) =      16.074800         16.474311
  ** Time :            9.82800 ps :
     Properties:                   Instantaneous       Averaged
       Kinetic energy    (eV) =      12.144200         10.772870
       Potential energy  (eV) =     -84.935611        -83.708205
       Total energy      (eV) =     -72.791411        -72.935335
       Temperature       (K)  =    3030.697626       2688.469577
       Pressure         (GPa) =      15.596552         16.472704
  ** Time :            9.84600 ps :
     Properties:                   Instantaneous       Averaged
       Kinetic energy    (eV) =      11.542560         10.774277
       Potential energy  (eV) =     -84.369770        -83.709415
       Total energy      (eV) =     -72.827210        -72.935138
       Temperature       (K)  =    2880.552905       2688.820734
       Pressure         (GPa) =      15.963034         16.471772
  ** Time :            9.86400 ps :
     Properties:                   Instantaneous       Averaged
       Kinetic energy    (eV) =      10.031621         10.772922
       Potential energy  (eV) =     -82.663146        -83.707505
       Total energy      (eV) =     -72.631525        -72.934584
       Temperature       (K)  =    2503.484142       2688.482529
       Pressure         (GPa) =      17.517579         16.473680
  ** Time :            9.88200 ps :
     Properties:                   Instantaneous       Averaged
       Kinetic energy    (eV) =       9.431104         10.770478
       Potential energy  (eV) =     -82.270085        -83.704887
       Total energy      (eV) =     -72.838980        -72.934410
       Temperature       (K)  =    2353.619504       2687.872578
       Pressure         (GPa) =      18.089000         16.476622
  ** Time :            9.90000 ps :
     Properties:                   Instantaneous       Averaged
       Kinetic energy    (eV) =       8.927251         10.767126
       Potential energy  (eV) =     -81.714841        -83.701269
       Total energy      (eV) =     -72.787590        -72.934143
       Temperature       (K)  =    2227.878229       2687.036225
       Pressure         (GPa) =      18.661924         16.480596
  ** Time :            9.91800 ps :
     Properties:                   Instantaneous       Averaged
       Kinetic energy    (eV) =       8.962447         10.763851
       Potential energy  (eV) =     -81.488429        -83.697253
       Total energy      (eV) =     -72.525981        -72.933402
       Temperature       (K)  =    2236.661859       2686.218848
       Pressure         (GPa) =      18.453529         16.484176
  ** Time :            9.93600 ps :
     Properties:                   Instantaneous       Averaged
       Kinetic energy    (eV) =      11.305349         10.764832
       Potential energy  (eV) =     -84.232862        -83.698223
       Total energy      (eV) =     -72.927513        -72.933391
       Temperature       (K)  =    2821.354592       2686.463660
       Pressure         (GPa) =      15.579016         16.482537
  ** Time :            9.95400 ps :
     Properties:                   Instantaneous       Averaged
       Kinetic energy    (eV) =      12.218085         10.767460
       Potential energy  (eV) =     -85.187482        -83.700916
       Total energy      (eV) =     -72.969397        -72.933456
       Temperature       (K)  =    3049.136534       2687.119488
       Pressure         (GPa) =      14.820080         16.479530
  ** Time :            9.97200 ps :
     Properties:                   Instantaneous       Averaged
       Kinetic energy    (eV) =      11.319420         10.768456
       Potential energy  (eV) =     -84.191136        -83.701801
       Total energy      (eV) =     -72.871716        -72.933345
       Temperature       (K)  =    2824.866351       2687.368128
       Pressure         (GPa) =      16.142822         16.478923
  ** Time :            9.99000 ps :
     Properties:                   Instantaneous       Averaged
       Kinetic energy    (eV) =      10.860830         10.768623
       Potential energy  (eV) =     -83.521491        -83.701476
       Total energy      (eV) =     -72.660661        -72.932854
       Temperature       (K)  =    2710.420839       2687.409665
       Pressure         (GPa) =      16.805244         16.479511
  ** Time :           10.00800 ps :
     Properties:                   Instantaneous       Averaged
       Kinetic energy    (eV) =      11.722511         10.770338
       Potential energy  (eV) =     -84.534041        -83.702974
       Total energy      (eV) =     -72.811530        -72.932635
       Temperature       (K)  =    2925.461303       2687.837815
       Pressure         (GPa) =      15.610772         16.477948

  Peak dynamic memory used =       0.57 MB 


  Timing analysis for GULP :

--------------------------------------------------------------------------------
  Task / Subroutine                                          Time (Seconds)
--------------------------------------------------------------------------------
  Calculation of real space energy and derivatives                1.1640
  Calculation of many-body energy and derivatives                 0.6320
  Molecular dynamics - update of geometry                         0.0040
--------------------------------------------------------------------------------
  Total CPU time                                                  2.0760
--------------------------------------------------------------------------------


  Dump file written as Recovery_2_3000_0.018.res                               
  GULP ASCII trajectory file written as Trajectories_2_3000_0.018.trg           


  Job Finished at 18:21.32 17th May        2018                               

