********************************************************************************
*                       GENERAL UTILITY LATTICE PROGRAM                        *
*                                 Julian Gale                                  *
*                       Curtin Institute for Computation                       *
*                           Department of Chemistry                            *
*                    Curtin University, Western Australia                      *
********************************************************************************
* Version = 5.0.0 * Last modified =  18th April 2018                           *
********************************************************************************
*  single       - perform a single point run                                   *
*  md           - perform molecular dynamics run                               *
*  conv         - constant volume calculation                                  *
********************************************************************************
* molecular dynamics of silver                                                 *
********************************************************************************


  Job Started  at 17:40.33 17th May        2018                               

  Number of CPUs =     1


  Total number of configurations input =   1

********************************************************************************
*  Input for Configuration =   1                                               *
********************************************************************************

  Formula = Ag32                                                        

  Number of irreducible atoms/shells =      32


  Total number atoms/shells =      32

  Dimensionality = 3               :  Bulk   



  Supercell dimensions :  x =   2  y =   2  z =   2

  Cartesian lattice vectors (Angstroms) :

        8.170000    0.000000    0.000000
        0.000000    8.170000    0.000000
        0.000000    0.000000    8.170000

  Cell parameters (Angstroms/Degrees):

  a =       8.1700    alpha =  90.0000
  b =       8.1700    beta  =  90.0000
  c =       8.1700    gamma =  90.0000

  Initial cell volume =         545.338513 Angs**3

  Temperature of configuration =  3000.     K 

  Pressure of configuration =         0.000 GPa 

  Fractional coordinates of asymmetric unit :

--------------------------------------------------------------------------------
   No.  Atomic       x           y          z         Charge      Occupancy
        Label      (Frac)      (Frac)     (Frac)        (e)         (Frac)  
--------------------------------------------------------------------------------
      1 Ag    c    0.000000 *  0.000000 *  0.000000 *   0.00000    1.000000    
      2 Ag    c    0.000000 *  0.000000 *  0.500000 *   0.00000    1.000000    
      3 Ag    c    0.000000 *  0.500000 *  0.000000 *   0.00000    1.000000    
      4 Ag    c    0.000000 *  0.500000 *  0.500000 *   0.00000    1.000000    
      5 Ag    c    0.500000 *  0.000000 *  0.000000 *   0.00000    1.000000    
      6 Ag    c    0.500000 *  0.000000 *  0.500000 *   0.00000    1.000000    
      7 Ag    c    0.500000 *  0.500000 *  0.000000 *   0.00000    1.000000    
      8 Ag    c    0.500000 *  0.500000 *  0.500000 *   0.00000    1.000000    
      9 Ag    c    0.000000 *  0.250000 *  0.250000 *   0.00000    1.000000    
     10 Ag    c    0.000000 *  0.250000 *  0.750000 *   0.00000    1.000000    
     11 Ag    c    0.000000 *  0.750000 *  0.250000 *   0.00000    1.000000    
     12 Ag    c    0.000000 *  0.750000 *  0.750000 *   0.00000    1.000000    
     13 Ag    c    0.500000 *  0.250000 *  0.250000 *   0.00000    1.000000    
     14 Ag    c    0.500000 *  0.250000 *  0.750000 *   0.00000    1.000000    
     15 Ag    c    0.500000 *  0.750000 *  0.250000 *   0.00000    1.000000    
     16 Ag    c    0.500000 *  0.750000 *  0.750000 *   0.00000    1.000000    
     17 Ag    c    0.250000 *  0.000000 *  0.250000 *   0.00000    1.000000    
     18 Ag    c    0.250000 *  0.000000 *  0.750000 *   0.00000    1.000000    
     19 Ag    c    0.250000 *  0.500000 *  0.250000 *   0.00000    1.000000    
     20 Ag    c    0.250000 *  0.500000 *  0.750000 *   0.00000    1.000000    
     21 Ag    c    0.750000 *  0.000000 *  0.250000 *   0.00000    1.000000    
     22 Ag    c    0.750000 *  0.000000 *  0.750000 *   0.00000    1.000000    
     23 Ag    c    0.750000 *  0.500000 *  0.250000 *   0.00000    1.000000    
     24 Ag    c    0.750000 *  0.500000 *  0.750000 *   0.00000    1.000000    
     25 Ag    c    0.250000 *  0.250000 *  0.000000 *   0.00000    1.000000    
     26 Ag    c    0.250000 *  0.250000 *  0.500000 *   0.00000    1.000000    
     27 Ag    c    0.250000 *  0.750000 *  0.000000 *   0.00000    1.000000    
     28 Ag    c    0.250000 *  0.750000 *  0.500000 *   0.00000    1.000000    
     29 Ag    c    0.750000 *  0.250000 *  0.000000 *   0.00000    1.000000    
     30 Ag    c    0.750000 *  0.250000 *  0.500000 *   0.00000    1.000000    
     31 Ag    c    0.750000 *  0.750000 *  0.000000 *   0.00000    1.000000    
     32 Ag    c    0.750000 *  0.750000 *  0.500000 *   0.00000    1.000000    
--------------------------------------------------------------------------------



********************************************************************************
*  General input information                                                   *
********************************************************************************

  Species output for all configurations : 

--------------------------------------------------------------------------------
  Species    Type    Atomic    Atomic    Charge       Radii (Angs)     Library
                     Number     Mass       (e)     Cova   Ionic  VDW   Symbol
--------------------------------------------------------------------------------
    Ag       Core       47     107.87   0.000000   1.590  0.000  2.370          
--------------------------------------------------------------------------------


  Lattice summation method               =    Ewald          (3-D)
                                         =    Parry          (2-D)
                                         =    Saunders et al (1-D)
  Accuracy factor for lattice sums       =   12.000


  Time limit = Infinity

  Maximum range for interatomic potentials =    100000.000000 Angstroms

  General interatomic potentials :

--------------------------------------------------------------------------------
Atom  Types   Potential      Parameter       Value         Units   Cutoffs(Ang)
  1     2                                                            Min /  Max 
--------------------------------------------------------------------------------
Ag   c Ag   c Many-body                                             0.000  8.000
--------------------------------------------------------------------------------
Ag   c Ag   c Buckingham    Buckingham A     11454.950    eV        0.000 12.000
                            Buckingham rho  0.26432400    Ang       
                            Buckingham C     0.0000000    eV*Ang^6  
--------------------------------------------------------------------------------

  Embedded Atom Model Densities :

--------------------------------------------------------------------------------
  Atom(s)       Functional Form          A          B          C         n      
--------------------------------------------------------------------------------
  Ag   c        Exponential          1.388      2.173      2.889         0
--------------------------------------------------------------------------------


  Embedded Atom Model alloy parameters :

--------------------------------------------------------------------------------
  Atom(s)                          Scale factor 
--------------------------------------------------------------------------------
  Ag    c                            1.000000
--------------------------------------------------------------------------------

  Embedded Atom Model functional = Square Root

--------------------------------------------------------------------------------
  Atom                     A     
--------------------------------------------------------------------------------
  Ag    c               1.000000
--------------------------------------------------------------------------------


  Manybody second derivative cross term cutoffs to be scale by = 0.50000000

********************************************************************************
*  Output for configuration   1                                                *
********************************************************************************


  Components of energy : 

--------------------------------------------------------------------------------
  Interatomic potentials     =          39.71625760 eV    
  Many-body potentials       =        -134.45860512 eV    
  Monopole - monopole (real) =           0.00000000 eV    
  Monopole - monopole (recip)=           0.00000000 eV    
  Monopole - monopole (total)=           0.00000000 eV    
--------------------------------------------------------------------------------
  Total lattice energy       =         -94.74234752 eV    
--------------------------------------------------------------------------------
  Total lattice energy       =           -9141.1883 kJ/(mole unit cells)
--------------------------------------------------------------------------------

  Equations of motion will be integrated using the leapfrog Verlet algorithm.

********************************************************************************
*  Molecular Dynamics                                                          *
********************************************************************************

  Microcanonical ensemble (NVE) to be used

  No. of mobile ions        =                 32

  No. of degrees of freedom =                 93

  Time step                 =           0.010000 ps
  Equilibration time        =           5.000000 ps
  Production time           =          10.000000 ps
  Scaling time              =           5.000000 ps
  Scaling frequency         =           0.010000 ps
  Sampling frequency        =           0.020000 ps
  Write frequency           =           0.020000 ps
  TD-Force start time       =           0.000000 ps
  TD-Field start time       =           0.000000 ps



  Molecular dynamics equilibration :

  ** Time :            0.02000 ps :
     Properties:                   Instantaneous       Averaged
       Kinetic energy    (eV) =      11.407992         11.407992
       Potential energy  (eV) =     -94.140846        -94.140846
       Total energy      (eV) =     -82.732854        -82.732854
       Temperature       (K)  =    2846.970126       2846.970126
       Pressure         (GPa) =       3.099585          3.099585
  ** Time :            0.04000 ps :
     Properties:                   Instantaneous       Averaged
       Kinetic energy    (eV) =       9.973979         10.690985
       Potential energy  (eV) =     -89.207427        -91.674136
       Total energy      (eV) =     -79.233448        -80.983151
       Temperature       (K)  =    2489.098871       2668.034499
       Pressure         (GPa) =       9.316673          6.208129
  ** Time :            0.06000 ps :
     Properties:                   Instantaneous       Averaged
       Kinetic energy    (eV) =      10.655332         10.679101
       Potential energy  (eV) =     -82.879444        -88.742572
       Total energy      (eV) =     -72.224112        -78.063471
       Temperature       (K)  =    2659.136944       2665.068647
       Pressure         (GPa) =      17.069804          9.828687
  ** Time :            0.08000 ps :
     Properties:                   Instantaneous       Averaged
       Kinetic energy    (eV) =      11.747066         10.946092
       Potential energy  (eV) =     -82.288963        -87.129170
       Total energy      (eV) =     -70.541897        -76.183078
       Temperature       (K)  =    2931.589271       2731.698803
       Pressure         (GPa) =      18.407155         11.973304
  ** Time :            0.10000 ps :
     Properties:                   Instantaneous       Averaged
       Kinetic energy    (eV) =      11.233132         11.003500
       Potential energy  (eV) =     -80.877755        -85.878887
       Total energy      (eV) =     -69.644624        -74.875387
       Temperature       (K)  =    2803.332216       2746.025486
       Pressure         (GPa) =      19.703469         13.519337
  ** Time :            0.12000 ps :
     Properties:                   Instantaneous       Averaged
       Kinetic energy    (eV) =      11.467799         11.080883
       Potential energy  (eV) =     -79.646840        -84.840213
       Total energy      (eV) =     -68.179041        -73.759329
       Temperature       (K)  =    2861.895660       2765.337181
       Pressure         (GPa) =      21.421108         14.836299
  ** Time :            0.14000 ps :
     Properties:                   Instantaneous       Averaged
       Kinetic energy    (eV) =      11.001991         11.069613
       Potential energy  (eV) =     -77.715002        -83.822325
       Total energy      (eV) =     -66.713011        -72.752712
       Temperature       (K)  =    2745.648921       2762.524573
       Pressure         (GPa) =      23.659760         16.096793
  ** Time :            0.16000 ps :
     Properties:                   Instantaneous       Averaged
       Kinetic energy    (eV) =      11.795100         11.160299
       Potential energy  (eV) =     -76.212886        -82.871145
       Total energy      (eV) =     -64.417786        -71.710847
       Temperature       (K)  =    2943.576631       2785.156080
       Pressure         (GPa) =      25.238046         17.239450
  ** Time :            0.18000 ps :
     Properties:                   Instantaneous       Averaged
       Kinetic energy    (eV) =      12.368439         11.294537
       Potential energy  (eV) =     -78.781119        -82.416698
       Total energy      (eV) =     -66.412680        -71.122161
       Temperature       (K)  =    3086.658662       2818.656367
       Pressure         (GPa) =      22.771876         17.854164
  ** Time :            0.20000 ps :
     Properties:                   Instantaneous       Averaged
       Kinetic energy    (eV) =      11.680534         11.333136
       Potential energy  (eV) =     -79.669087        -82.141937
       Total energy      (eV) =     -67.988553        -70.808801
       Temperature       (K)  =    2914.985629       2828.289293
       Pressure         (GPa) =      21.566206         18.225368
  ** Time :            0.22000 ps :
     Properties:                   Instantaneous       Averaged
       Kinetic energy    (eV) =      11.653429         11.362254
       Potential energy  (eV) =     -79.132786        -81.868378
       Total energy      (eV) =     -67.479357        -70.506124
       Temperature       (K)  =    2908.221265       2835.555836
       Pressure         (GPa) =      21.954121         18.564346
  ** Time :            0.24000 ps :
     Properties:                   Instantaneous       Averaged
       Kinetic energy    (eV) =      11.976125         11.413410
       Potential energy  (eV) =     -79.528176        -81.673361
       Total energy      (eV) =     -67.552052        -70.259951
       Temperature       (K)  =    2988.752962       2848.322263
       Pressure         (GPa) =      21.500425         18.809019
  ** Time :            0.26000 ps :
     Properties:                   Instantaneous       Averaged
       Kinetic energy    (eV) =      11.953176         11.454930
       Potential energy  (eV) =     -80.541391        -81.586286
       Total energy      (eV) =     -68.588215        -70.131356
       Temperature       (K)  =    2983.025941       2858.684085
       Pressure         (GPa) =      20.457959         18.935861
  ** Time :            0.28000 ps :
     Properties:                   Instantaneous       Averaged
       Kinetic energy    (eV) =      11.599230         11.465237
       Potential energy  (eV) =     -80.353637        -81.498240
       Total energy      (eV) =     -68.754407        -70.033003
       Temperature       (K)  =    2894.695345       2861.256317
       Pressure         (GPa) =      20.418127         19.041737
  ** Time :            0.30000 ps :
     Properties:                   Instantaneous       Averaged
       Kinetic energy    (eV) =      11.632405         11.476382
       Potential energy  (eV) =     -80.348430        -81.421586
       Total energy      (eV) =     -68.716024        -69.945204
       Temperature       (K)  =    2902.974620       2864.037538
       Pressure         (GPa) =      20.690499         19.151654
  ** Time :            0.32000 ps :
     Properties:                   Instantaneous       Averaged
       Kinetic energy    (eV) =      11.078215         11.451496
       Potential energy  (eV) =     -78.553153        -81.242309
       Total energy      (eV) =     -67.474938        -69.790812
       Temperature       (K)  =    2764.671177       2857.827140
       Pressure         (GPa) =      22.741315         19.376008
  ** Time :            0.34000 ps :
     Properties:                   Instantaneous       Averaged
       Kinetic energy    (eV) =      12.010699         11.484391
       Potential energy  (eV) =     -77.998369        -81.051489
       Total energy      (eV) =     -65.987670        -69.567098
       Temperature       (K)  =    2997.381218       2866.036203
       Pressure         (GPa) =      23.563706         19.622343
  ** Time :            0.36000 ps :
     Properties:                   Instantaneous       Averaged
       Kinetic energy    (eV) =      11.354089         11.477152
       Potential energy  (eV) =     -78.584369        -80.914427
       Total energy      (eV) =     -67.230281        -69.437275
       Temperature       (K)  =    2833.518106       2864.229642
       Pressure         (GPa) =      22.759993         19.796657
  ** Time :            0.38000 ps :
     Properties:                   Instantaneous       Averaged
       Kinetic energy    (eV) =      11.620463         11.484694
       Potential energy  (eV) =     -76.889571        -80.702592
       Total energy      (eV) =     -65.269108        -69.217898
       Temperature       (K)  =    2899.994234       2866.111989
       Pressure         (GPa) =      24.320807         20.034770
  ** Time :            0.40000 ps :
     Properties:                   Instantaneous       Averaged
       Kinetic energy    (eV) =      11.578186         11.489369
       Potential energy  (eV) =     -77.662783        -80.550602
       Total energy      (eV) =     -66.084597        -69.061233
       Temperature       (K)  =    2889.443804       2867.278580
       Pressure         (GPa) =      23.817636         20.223914
  ** Time :            0.42000 ps :
     Properties:                   Instantaneous       Averaged
       Kinetic energy    (eV) =      11.901807         11.509009
       Potential energy  (eV) =     -77.863374        -80.422639
       Total energy      (eV) =     -65.961567        -68.913630
       Temperature       (K)  =    2970.206407       2872.179905
       Pressure         (GPa) =      23.640105         20.386589
  ** Time :            0.44000 ps :
     Properties:                   Instantaneous       Averaged
       Kinetic energy    (eV) =      11.940343         11.528615
       Potential energy  (eV) =     -79.073147        -80.361298
       Total energy      (eV) =     -67.132804        -68.832683
       Temperature       (K)  =    2979.823363       2877.072790
       Pressure         (GPa) =      21.925816         20.456554
  ** Time :            0.46000 ps :
     Properties:                   Instantaneous       Averaged
       Kinetic energy    (eV) =      11.614935         11.532368
       Potential energy  (eV) =     -79.609496        -80.328611
       Total energy      (eV) =     -67.994561        -68.796243
       Temperature       (K)  =    2898.614859       2878.009401
       Pressure         (GPa) =      21.082691         20.483777
  ** Time :            0.48000 ps :
     Properties:                   Instantaneous       Averaged
       Kinetic energy    (eV) =      11.664336         11.537867
       Potential energy  (eV) =     -79.030483        -80.274522
       Total energy      (eV) =     -67.366147        -68.736656
       Temperature       (K)  =    2910.943224       2879.381644
       Pressure         (GPa) =      21.833403         20.540012
  ** Time :            0.50000 ps :
     Properties:                   Instantaneous       Averaged
       Kinetic energy    (eV) =      11.919529         11.553133
       Potential energy  (eV) =     -79.056038        -80.225783
       Total energy      (eV) =     -67.136509        -68.672650
       Temperature       (K)  =    2974.628997       2883.191538
       Pressure         (GPa) =      21.834032         20.591773
  ** Time :            0.52000 ps :
     Properties:                   Instantaneous       Averaged
       Kinetic energy    (eV) =      12.332678         11.583116
       Potential energy  (eV) =     -81.717611        -80.283161
       Total energy      (eV) =     -69.384933        -68.700045
       Temperature       (K)  =    3077.734221       2890.673949
       Pressure         (GPa) =      18.957511         20.528916
  ** Time :            0.54000 ps :
     Properties:                   Instantaneous       Averaged
       Kinetic energy    (eV) =      11.372728         11.575324
       Potential energy  (eV) =     -81.396243        -80.324386
       Total energy      (eV) =     -70.023515        -68.749063
       Temperature       (K)  =    2838.169821       2888.729352
       Pressure         (GPa) =      18.882419         20.467935
  ** Time :            0.56000 ps :
     Properties:                   Instantaneous       Averaged
       Kinetic energy    (eV) =      11.914864         11.587450
       Potential energy  (eV) =     -81.471604        -80.365358
       Total energy      (eV) =     -69.556740        -68.777908
       Temperature       (K)  =    2973.464721       2891.755615
       Pressure         (GPa) =      19.043705         20.417070
  ** Time :            0.58000 ps :
     Properties:                   Instantaneous       Averaged
       Kinetic energy    (eV) =      11.734950         11.592536
       Potential energy  (eV) =     -81.525766        -80.405372
       Total energy      (eV) =     -69.790816        -68.812836
       Temperature       (K)  =    2928.565635       2893.024926
       Pressure         (GPa) =      18.909825         20.365096
  ** Time :            0.60000 ps :
     Properties:                   Instantaneous       Averaged
       Kinetic energy    (eV) =      12.142081         11.610854
       Potential energy  (eV) =     -82.541434        -80.476574
       Total energy      (eV) =     -70.399353        -68.865720
       Temperature       (K)  =    3030.169020       2897.596396
       Pressure         (GPa) =      17.958195         20.284866
  ** Time :            0.62000 ps :
     Properties:                   Instantaneous       Averaged
       Kinetic energy    (eV) =      11.217153         11.598154
       Potential energy  (eV) =     -82.125838        -80.529776
       Total energy      (eV) =     -70.908685        -68.931622
       Temperature       (K)  =    2799.344578       2894.426982
       Pressure         (GPa) =      18.594331         20.230332
  ** Time :            0.64000 ps :
     Properties:                   Instantaneous       Averaged
       Kinetic energy    (eV) =      10.959852         11.578207
       Potential energy  (eV) =     -79.129550        -80.486019
       Total energy      (eV) =     -68.169698        -68.907812
       Temperature       (K)  =    2735.132671       2889.449035
       Pressure         (GPa) =      22.340044         20.296261
  ** Time :            0.66000 ps :
     Properties:                   Instantaneous       Averaged
       Kinetic energy    (eV) =      11.448218         11.574268
       Potential energy  (eV) =     -77.189156        -80.386114
       Total energy      (eV) =     -65.740938        -68.811846
       Temperature       (K)  =    2857.009077       2888.466006
       Pressure         (GPa) =      24.985894         20.438371
  ** Time :            0.68000 ps :
     Properties:                   Instantaneous       Averaged
       Kinetic energy    (eV) =      11.753184         11.579531
       Potential energy  (eV) =     -77.040971        -80.287728
       Total energy      (eV) =     -65.287787        -68.708197
       Temperature       (K)  =    2933.115974       2889.779240
       Pressure         (GPa) =      25.042348         20.573782
  ** Time :            0.70000 ps :
     Properties:                   Instantaneous       Averaged
       Kinetic energy    (eV) =      12.198476         11.597215
       Potential energy  (eV) =     -78.117457        -80.225720
       Total energy      (eV) =     -65.918981        -68.628505
       Temperature       (K)  =    3044.242855       2894.192486
       Pressure         (GPa) =      23.391466         20.654287
  ** Time :            0.72000 ps :
     Properties:                   Instantaneous       Averaged
       Kinetic energy    (eV) =      11.828381         11.603636
       Potential energy  (eV) =     -79.815492        -80.214325
       Total energy      (eV) =     -67.987111        -68.610689
       Temperature       (K)  =    2951.882103       2895.794976
       Pressure         (GPa) =      21.420968         20.675584
  ** Time :            0.74000 ps :
     Properties:                   Instantaneous       Averaged
       Kinetic energy    (eV) =      11.524550         11.601499
       Potential energy  (eV) =     -78.917828        -80.179284
       Total energy      (eV) =     -67.393278        -68.577786
       Temperature       (K)  =    2876.058259       2895.261551
       Pressure         (GPa) =      22.544597         20.726098
  ** Time :            0.76000 ps :
     Properties:                   Instantaneous       Averaged
       Kinetic energy    (eV) =      11.244948         11.592116
       Potential energy  (eV) =     -77.583529        -80.110975
       Total energy      (eV) =     -66.338581        -68.518859
       Temperature       (K)  =    2806.281170       2892.919962
       Pressure         (GPa) =      24.617156         20.828494
  ** Time :            0.78000 ps :
     Properties:                   Instantaneous       Averaged
       Kinetic energy    (eV) =      11.916407         11.600431
       Potential energy  (eV) =     -76.855167        -80.027493
       Total energy      (eV) =     -64.938760        -68.427062
       Temperature       (K)  =    2973.849921       2894.995089
       Pressure         (GPa) =      25.455995         20.947148
  ** Time :            0.80000 ps :
     Properties:                   Instantaneous       Averaged
       Kinetic energy    (eV) =      12.132781         11.613740
       Potential energy  (eV) =     -79.442279        -80.012862
       Total energy      (eV) =     -67.309498        -68.399123
       Temperature       (K)  =    3027.847971       2898.316411
       Pressure         (GPa) =      22.226963         20.979143
  ** Time :            0.82000 ps :
     Properties:                   Instantaneous       Averaged
       Kinetic energy    (eV) =      11.694422         11.615707
       Potential energy  (eV) =     -79.646122        -80.003918
       Total energy      (eV) =     -67.951701        -68.388210
       Temperature       (K)  =    2918.451347       2898.807507
       Pressure         (GPa) =      21.480046         20.991360
  ** Time :            0.84000 ps :
     Properties:                   Instantaneous       Averaged
       Kinetic energy    (eV) =      11.861991         11.621571
       Potential energy  (eV) =     -80.025800        -80.004439
       Total energy      (eV) =     -68.163809        -68.382867
       Temperature       (K)  =    2960.269748       2900.270894
       Pressure         (GPa) =      21.470749         21.002774
  ** Time :            0.86000 ps :
     Properties:                   Instantaneous       Averaged
       Kinetic energy    (eV) =      11.922643         11.628573
       Potential energy  (eV) =     -80.744852        -80.021658
       Total energy      (eV) =     -68.822209        -68.393085
       Temperature       (K)  =    2975.406148       2902.018225
       Pressure         (GPa) =      20.881090         20.999945
  ** Time :            0.88000 ps :
     Properties:                   Instantaneous       Averaged
       Kinetic energy    (eV) =      11.498257         11.625611
       Potential energy  (eV) =     -80.441658        -80.031203
       Total energy      (eV) =     -68.943401        -68.405592
       Temperature       (K)  =    2869.496663       2901.279099
       Pressure         (GPa) =      20.923142         20.998199
  ** Time :            0.90000 ps :
     Properties:                   Instantaneous       Averaged
       Kinetic energy    (eV) =      11.683386         11.626895
       Potential energy  (eV) =     -79.524482        -80.019942
       Total energy      (eV) =     -67.841096        -68.393047
       Temperature       (K)  =    2915.697297       2901.599503
       Pressure         (GPa) =      21.800416         21.016026
  ** Time :            0.92000 ps :
     Properties:                   Instantaneous       Averaged
       Kinetic energy    (eV) =      12.041218         11.635902
       Potential energy  (eV) =     -80.382744        -80.027829
       Total energy      (eV) =     -68.341526        -68.391927
       Temperature       (K)  =    3004.997588       2903.847288
       Pressure         (GPa) =      20.998852         21.015653
  ** Time :            0.94000 ps :
     Properties:                   Instantaneous       Averaged
       Kinetic energy    (eV) =      12.097642         11.645726
       Potential energy  (eV) =     -81.627369        -80.061862
       Total energy      (eV) =     -69.529726        -68.416136
       Temperature       (K)  =    3019.078855       2906.299023
       Pressure         (GPa) =      19.753478         20.988798
  ** Time :            0.96000 ps :
     Properties:                   Instantaneous       Averaged
       Kinetic energy    (eV) =      11.539162         11.643506
       Potential energy  (eV) =     -81.746009        -80.096949
       Total energy      (eV) =     -70.206848        -68.453442
       Temperature       (K)  =    2879.704808       2905.744977
       Pressure         (GPa) =      19.677176         20.961473
  ** Time :            0.98000 ps :
     Properties:                   Instantaneous       Averaged
       Kinetic energy    (eV) =      11.576740         11.642144
       Potential energy  (eV) =     -80.247264        -80.100016
       Total energy      (eV) =     -68.670524        -68.457873
       Temperature       (K)  =    2889.082875       2905.404934
       Pressure         (GPa) =      21.040922         20.963094
  ** Time :            1.00000 ps :
     Properties:                   Instantaneous       Averaged
       Kinetic energy    (eV) =      11.919078         11.647682
       Potential energy  (eV) =     -80.720012        -80.112416
       Total energy      (eV) =     -68.800934        -68.464734
       Temperature       (K)  =    2974.516440       2906.787164
       Pressure         (GPa) =      20.594660         20.955725
  ** Time :            1.02000 ps :
     Properties:                   Instantaneous       Averaged
       Kinetic energy    (eV) =      11.159162         11.638104
       Potential energy  (eV) =     -79.532483        -80.101045
       Total energy      (eV) =     -68.373320        -68.462941
       Temperature       (K)  =    2784.872426       2904.396679
       Pressure         (GPa) =      21.728259         20.970873
  ** Time :            1.04000 ps :
     Properties:                   Instantaneous       Averaged
       Kinetic energy    (eV) =      11.384233         11.633221
       Potential energy  (eV) =     -77.521350        -80.051435
       Total energy      (eV) =     -66.137116        -68.418214
       Temperature       (K)  =    2841.041029       2903.178301
       Pressure         (GPa) =      23.902497         21.027250
  ** Time :            1.06000 ps :
     Properties:                   Instantaneous       Averaged
       Kinetic energy    (eV) =      11.795406         11.636282
       Potential energy  (eV) =     -77.374310        -80.000924
       Total energy      (eV) =     -65.578905        -68.364642
       Temperature       (K)  =    2943.652860       2903.941972
       Pressure         (GPa) =      24.178121         21.086701
  ** Time :            1.08000 ps :
     Properties:                   Instantaneous       Averaged
       Kinetic energy    (eV) =      11.669135         11.636890
       Potential energy  (eV) =     -77.407156        -79.952891
       Total energy      (eV) =     -65.738020        -68.316001
       Temperature       (K)  =    2912.140971       2904.093806
       Pressure         (GPa) =      24.163315         21.143675
  ** Time :            1.10000 ps :
     Properties:                   Instantaneous       Averaged
       Kinetic energy    (eV) =      12.298848         11.648926
       Potential energy  (eV) =     -79.152940        -79.938346
       Total energy      (eV) =     -66.854092        -68.289421
       Temperature       (K)  =    3069.291507       2907.097400
       Pressure         (GPa) =      22.466456         21.167726
  ** Time :            1.12000 ps :
     Properties:                   Instantaneous       Averaged
       Kinetic energy    (eV) =      11.069296         11.638575
       Potential energy  (eV) =     -78.855204        -79.919004
       Total energy      (eV) =     -67.785908        -68.280429
       Temperature       (K)  =    2762.445564       2904.514332
       Pressure         (GPa) =      22.478917         21.191140
  ** Time :            1.14000 ps :
     Properties:                   Instantaneous       Averaged
       Kinetic energy    (eV) =      11.846903         11.642230
       Potential energy  (eV) =     -77.162484        -79.870644
       Total energy      (eV) =     -65.315581        -68.228415
       Temperature       (K)  =    2956.504511       2905.426440
       Pressure         (GPa) =      24.221146         21.244298
  ** Time :            1.16000 ps :
     Properties:                   Instantaneous       Averaged
       Kinetic energy    (eV) =      12.509327         11.657180
       Potential energy  (eV) =     -80.283559        -79.877764
       Total energy      (eV) =     -67.774232        -68.220584
       Temperature       (K)  =    3121.818595       2909.157339
       Pressure         (GPa) =      20.999845         21.240083
  ** Time :            1.18000 ps :
     Properties:                   Instantaneous       Averaged
       Kinetic energy    (eV) =      11.595316         11.656131
       Potential energy  (eV) =     -81.059740        -79.897797
       Total energy      (eV) =     -69.464424        -68.241666
       Temperature       (K)  =    2893.718658       2908.895667
       Pressure         (GPa) =      19.843568         21.216413
  ** Time :            1.20000 ps :
     Properties:                   Instantaneous       Averaged
       Kinetic energy    (eV) =      11.671747         11.656392
       Potential energy  (eV) =     -80.394037        -79.906068
       Total energy      (eV) =     -68.722290        -68.249676
       Temperature       (K)  =    2912.792816       2908.960619
       Pressure         (GPa) =      20.730284         21.208311
  ** Time :            1.22000 ps :
     Properties:                   Instantaneous       Averaged
       Kinetic energy    (eV) =      11.303317         11.650603
       Potential energy  (eV) =     -78.967630        -79.890684
       Total energy      (eV) =     -67.664313        -68.240080
       Temperature       (K)  =    2820.847657       2907.516145
       Pressure         (GPa) =      22.363031         21.227241
  ** Time :            1.24000 ps :
     Properties:                   Instantaneous       Averaged
       Kinetic energy    (eV) =      11.784254         11.652759
       Potential energy  (eV) =     -78.794398        -79.873002
       Total energy      (eV) =     -67.010144        -68.220242
       Temperature       (K)  =    2940.869824       2908.054107
       Pressure         (GPa) =      22.946113         21.254965
  ** Time :            1.26000 ps :
     Properties:                   Instantaneous       Averaged
       Kinetic energy    (eV) =      11.418771         11.649045
       Potential energy  (eV) =     -78.030861        -79.843761
       Total energy      (eV) =     -66.612090        -68.194716
       Temperature       (K)  =    2849.660296       2907.127221
       Pressure         (GPa) =      23.563533         21.291609
  ** Time :            1.28000 ps :
     Properties:                   Instantaneous       Averaged
       Kinetic energy    (eV) =      12.123590         11.656460
       Potential energy  (eV) =     -79.588454        -79.839772
       Total energy      (eV) =     -67.464864        -68.183312
       Temperature       (K)  =    3025.554437       2908.977646
       Pressure         (GPa) =      21.965704         21.302141
  ** Time :            1.30000 ps :
     Properties:                   Instantaneous       Averaged
       Kinetic energy    (eV) =      11.334700         11.651510
       Potential energy  (eV) =     -79.021489        -79.827183
       Total energy      (eV) =     -67.686789        -68.175673
       Temperature       (K)  =    2828.679607       2907.742292
       Pressure         (GPa) =      22.430394         21.319499
  ** Time :            1.32000 ps :
     Properties:                   Instantaneous       Averaged
       Kinetic energy    (eV) =      11.393176         11.647596
       Potential energy  (eV) =     -77.661071        -79.794363
       Total energy      (eV) =     -66.267895        -68.146768
       Temperature       (K)  =    2843.272724       2906.765480
       Pressure         (GPa) =      24.043291         21.360769
  ** Time :            1.34000 ps :
     Properties:                   Instantaneous       Averaged
       Kinetic energy    (eV) =      12.160222         11.655247
       Potential energy  (eV) =     -78.413068        -79.773747
       Total energy      (eV) =     -66.252846        -68.118500
       Temperature       (K)  =    3034.696243       2908.674895
       Pressure         (GPa) =      23.349120         21.390446
  ** Time :            1.36000 ps :
     Properties:                   Instantaneous       Averaged
       Kinetic energy    (eV) =      11.670542         11.655472
       Potential energy  (eV) =     -79.023914        -79.762720
       Total energy      (eV) =     -67.353372        -68.107248
       Temperature       (K)  =    2912.491914       2908.731027
       Pressure         (GPa) =      22.254838         21.403157
  ** Time :            1.38000 ps :
     Properties:                   Instantaneous       Averaged
       Kinetic energy    (eV) =      11.735428         11.656630
       Potential energy  (eV) =     -79.365728        -79.756966
       Total energy      (eV) =     -67.630299        -68.100336
       Temperature       (K)  =    2928.685008       2909.020215
       Pressure         (GPa) =      21.758126         21.408302
  ** Time :            1.40000 ps :
     Properties:                   Instantaneous       Averaged
       Kinetic energy    (eV) =      11.589710         11.655674
       Potential energy  (eV) =     -79.472833        -79.752907
       Total energy      (eV) =     -67.883123        -68.097233
       Temperature       (K)  =    2892.319648       2908.781636
       Pressure         (GPa) =      21.629077         21.411456
  ** Time :            1.42000 ps :
     Properties:                   Instantaneous       Averaged
       Kinetic energy    (eV) =      11.966678         11.660055
       Potential energy  (eV) =     -79.732447        -79.752619
       Total energy      (eV) =     -67.765769        -68.092565
       Temperature       (K)  =    2986.395460       2909.874788
       Pressure         (GPa) =      21.701887         21.415546
  ** Time :            1.44000 ps :
     Properties:                   Instantaneous       Averaged
       Kinetic energy    (eV) =      11.576817         11.658899
       Potential energy  (eV) =     -80.063889        -79.756942
       Total energy      (eV) =     -68.487072        -68.098044
       Temperature       (K)  =    2889.101991       2909.586277
       Pressure         (GPa) =      21.911016         21.422428
  ** Time :            1.46000 ps :
     Properties:                   Instantaneous       Averaged
       Kinetic energy    (eV) =      11.143452         11.651838
       Potential energy  (eV) =     -78.494496        -79.739649
       Total energy      (eV) =     -67.351044        -68.087811
       Temperature       (K)  =    2780.951674       2907.824159
       Pressure         (GPa) =      23.932569         21.456813
  ** Time :            1.48000 ps :
     Properties:                   Instantaneous       Averaged
       Kinetic energy    (eV) =      11.971233         11.656154
       Potential energy  (eV) =     -78.104564        -79.717553
       Total energy      (eV) =     -66.133331        -68.061399
       Temperature       (K)  =    2987.532218       2908.901295
       Pressure         (GPa) =      24.131637         21.492960
  ** Time :            1.50000 ps :
     Properties:                   Instantaneous       Averaged
       Kinetic energy    (eV) =      12.177830         11.663110
       Potential energy  (eV) =     -80.478865        -79.727704
       Total energy      (eV) =     -68.301035        -68.064594
       Temperature       (K)  =    3039.090378       2910.637150
       Pressure         (GPa) =      21.104640         21.487782
  ** Time :            1.52000 ps :
     Properties:                   Instantaneous       Averaged
       Kinetic energy    (eV) =      11.052195         11.655071
       Potential energy  (eV) =     -79.657733        -79.726783
       Total energy      (eV) =     -68.605538        -68.071712
       Temperature       (K)  =    2758.177716       2908.631105
       Pressure         (GPa) =      21.331982         21.485732
  ** Time :            1.54000 ps :
     Properties:                   Instantaneous       Averaged
       Kinetic energy    (eV) =      11.913355         11.658426
       Potential energy  (eV) =     -78.768533        -79.714338
       Total energy      (eV) =     -66.855177        -68.055913
       Temperature       (K)  =    2973.088250       2909.468210
       Pressure         (GPa) =      22.355893         21.497033
  ** Time :            1.56000 ps :
     Properties:                   Instantaneous       Averaged
       Kinetic energy    (eV) =      12.070778         11.663712
       Potential energy  (eV) =     -80.329817        -79.722229
       Total energy      (eV) =     -68.259039        -68.058517
       Temperature       (K)  =    3012.374533       2910.787522
       Pressure         (GPa) =      20.920761         21.489645
  ** Time :            1.58000 ps :
     Properties:                   Instantaneous       Averaged
       Kinetic energy    (eV) =      11.887911         11.666550
       Potential energy  (eV) =     -81.019310        -79.738648
       Total energy      (eV) =     -69.131399        -68.072098
       Temperature       (K)  =    2966.738394       2911.495761
       Pressure         (GPa) =      20.468259         21.476716
  ** Time :            1.60000 ps :
     Properties:                   Instantaneous       Averaged
       Kinetic energy    (eV) =      11.618883         11.665954
       Potential energy  (eV) =     -80.692203        -79.750567
       Total energy      (eV) =     -69.073320        -68.084613
       Temperature       (K)  =    2899.599999       2911.347064
       Pressure         (GPa) =      20.944719         21.470066
  ** Time :            1.62000 ps :
     Properties:                   Instantaneous       Averaged
       Kinetic energy    (eV) =      11.589114         11.665006
       Potential energy  (eV) =     -79.941762        -79.752928
       Total energy      (eV) =     -68.352649        -68.087922
       Temperature       (K)  =    2892.170764       2911.110320
       Pressure         (GPa) =      21.541710         21.470950
  ** Time :            1.64000 ps :
     Properties:                   Instantaneous       Averaged
       Kinetic energy    (eV) =      11.257068         11.660031
       Potential energy  (eV) =     -78.629799        -79.739231
       Total energy      (eV) =     -67.372731        -68.079200
       Temperature       (K)  =    2809.305605       2909.868799
       Pressure         (GPa) =      22.766628         21.486751
  ** Time :            1.66000 ps :
     Properties:                   Instantaneous       Averaged
       Kinetic energy    (eV) =      11.470942         11.657753
       Potential energy  (eV) =     -76.931352        -79.705401
       Total energy      (eV) =     -65.460410        -68.047649
       Temperature       (K)  =    2862.679972       2909.300259
       Pressure         (GPa) =      24.727599         21.525798
  ** Time :            1.68000 ps :
     Properties:                   Instantaneous       Averaged
       Kinetic energy    (eV) =      11.791624         11.659346
       Potential energy  (eV) =     -77.132519        -79.674772
       Total energy      (eV) =     -65.340894        -68.015425
       Temperature       (K)  =    2942.709195       2909.697984
       Pressure         (GPa) =      24.861261         21.565506
  ** Time :            1.70000 ps :
     Properties:                   Instantaneous       Averaged
       Kinetic energy    (eV) =      11.611021         11.658778
       Potential energy  (eV) =     -77.323447        -79.647109
       Total energy      (eV) =     -65.712426        -67.988331
       Temperature       (K)  =    2897.638000       2909.556102
       Pressure         (GPa) =      24.686047         21.602218
  ** Time :            1.72000 ps :
     Properties:                   Instantaneous       Averaged
       Kinetic energy    (eV) =      11.602355         11.658122
       Potential energy  (eV) =     -76.668334        -79.612472
       Total energy      (eV) =     -65.065979        -67.954350
       Temperature       (K)  =    2895.475406       2909.392373
       Pressure         (GPa) =      25.075839         21.642609
  ** Time :            1.74000 ps :
     Properties:                   Instantaneous       Averaged
       Kinetic energy    (eV) =      11.850821         11.660337
       Potential energy  (eV) =     -77.176873        -79.584477
       Total energy      (eV) =     -65.326051        -67.924140
       Temperature       (K)  =    2957.482372       2909.945132
       Pressure         (GPa) =      24.348060         21.673706
  ** Time :            1.76000 ps :
     Properties:                   Instantaneous       Averaged
       Kinetic energy    (eV) =      11.776804         11.661660
       Potential energy  (eV) =     -77.781666        -79.563990
       Total energy      (eV) =     -66.004863        -67.902330
       Temperature       (K)  =    2939.010549       2910.275420
       Pressure         (GPa) =      23.890822         21.698900
  ** Time :            1.78000 ps :
     Properties:                   Instantaneous       Averaged
       Kinetic energy    (eV) =      11.826457         11.663512
       Potential energy  (eV) =     -78.045723        -79.546931
       Total energy      (eV) =     -66.219266        -67.883419
       Temperature       (K)  =    2951.402011       2910.737517
       Pressure         (GPa) =      23.436919         21.718429
  ** Time :            1.80000 ps :
     Properties:                   Instantaneous       Averaged
       Kinetic energy    (eV) =      11.394454         11.660522
       Potential energy  (eV) =     -78.377970        -79.533942
       Total energy      (eV) =     -66.983517        -67.873420
       Temperature       (K)  =    2843.591563       2909.991451
       Pressure         (GPa) =      23.031972         21.733024
  ** Time :            1.82000 ps :
     Properties:                   Instantaneous       Averaged
       Kinetic energy    (eV) =      11.840671         11.662502
       Potential energy  (eV) =     -78.077310        -79.517935
       Total energy      (eV) =     -66.236638        -67.855434
       Temperature       (K)  =    2954.949377       2910.485494
       Pressure         (GPa) =      23.880851         21.756626
  ** Time :            1.84000 ps :
     Properties:                   Instantaneous       Averaged
       Kinetic energy    (eV) =      11.075988         11.656127
       Potential energy  (eV) =     -76.952286        -79.490048
       Total energy      (eV) =     -65.876299        -67.833921
       Temperature       (K)  =    2764.115417       2908.894515
       Pressure         (GPa) =      25.071227         21.792654
  ** Time :            1.86000 ps :
     Properties:                   Instantaneous       Averaged
       Kinetic energy    (eV) =      12.111092         11.661019
       Potential energy  (eV) =     -77.303677        -79.466539
       Total energy      (eV) =     -65.192585        -67.805520
       Temperature       (K)  =    3022.435449       2910.115385
       Pressure         (GPa) =      25.021136         21.827369
  ** Time :            1.88000 ps :
     Properties:                   Instantaneous       Averaged
       Kinetic energy    (eV) =      11.847926         11.663007
       Potential energy  (eV) =     -78.039075        -79.451353
       Total energy      (eV) =     -66.191149        -67.788346
       Temperature       (K)  =    2956.759847       2910.611603
       Pressure         (GPa) =      23.970415         21.850168
  ** Time :            1.90000 ps :
     Properties:                   Instantaneous       Averaged
       Kinetic energy    (eV) =      11.468527         11.660960
       Potential energy  (eV) =     -77.904554        -79.435071
       Total energy      (eV) =     -66.436028        -67.774111
       Temperature       (K)  =    2862.077176       2910.100714
       Pressure         (GPa) =      23.351692         21.865973
  ** Time :            1.92000 ps :
     Properties:                   Instantaneous       Averaged
       Kinetic energy    (eV) =      11.721194         11.661587
       Potential energy  (eV) =     -76.770018        -79.407310
       Total energy      (eV) =     -65.048823        -67.745722
       Temperature       (K)  =    2925.132750       2910.257298
       Pressure         (GPa) =      23.938925         21.887566
  ** Time :            1.94000 ps :
     Properties:                   Instantaneous       Averaged
       Kinetic energy    (eV) =      12.235708         11.667506
       Potential energy  (eV) =     -78.785703        -79.400901
       Total energy      (eV) =     -66.549995        -67.733395
       Temperature       (K)  =    3053.534512       2911.734382
       Pressure         (GPa) =      22.561224         21.894511
  ** Time :            1.96000 ps :
     Properties:                   Instantaneous       Averaged
       Kinetic energy    (eV) =      11.826719         11.669131
       Potential energy  (eV) =     -79.575187        -79.402680
       Total energy      (eV) =     -67.748467        -67.733549
       Temperature       (K)  =    2951.467465       2912.139822
       Pressure         (GPa) =      22.259597         21.898237
  ** Time :            1.98000 ps :
     Properties:                   Instantaneous       Averaged
       Kinetic energy    (eV) =      11.736621         11.669813
       Potential energy  (eV) =     -79.509253        -79.403756
       Total energy      (eV) =     -67.772632        -67.733944
       Temperature       (K)  =    2928.982635       2912.309951
       Pressure         (GPa) =      22.491036         21.904225
  ** Time :            2.00000 ps :
     Properties:                   Instantaneous       Averaged
       Kinetic energy    (eV) =      11.803413         11.671149
       Potential energy  (eV) =     -79.645948        -79.406178
       Total energy      (eV) =     -67.842535        -67.735030
       Temperature       (K)  =    2945.651256       2912.643365
       Pressure         (GPa) =      22.406651         21.909249
  ** Time :            2.02000 ps :
     Properties:                   Instantaneous       Averaged
       Kinetic energy    (eV) =      11.586364         11.670309
       Potential energy  (eV) =     -79.908793        -79.411155
       Total energy      (eV) =     -68.322429        -67.740846
       Temperature       (K)  =    2891.484612       2912.433872
       Pressure         (GPa) =      21.964160         21.909792
  ** Time :            2.04000 ps :
     Properties:                   Instantaneous       Averaged
       Kinetic energy    (eV) =      11.641632         11.670028
       Potential energy  (eV) =     -78.337487        -79.400629
       Total energy      (eV) =     -66.695856        -67.730601
       Temperature       (K)  =    2905.277142       2912.363708
       Pressure         (GPa) =      22.948102         21.919972
  ** Time :            2.06000 ps :
     Properties:                   Instantaneous       Averaged
       Kinetic energy    (eV) =      11.991926         11.673153
       Potential energy  (eV) =     -80.547255        -79.411761
       Total energy      (eV) =     -68.555329        -67.738608
       Temperature       (K)  =    2992.696309       2913.143636
       Pressure         (GPa) =      20.914352         21.910209
  ** Time :            2.08000 ps :
     Properties:                   Instantaneous       Averaged
       Kinetic energy    (eV) =      11.016445         11.666839
       Potential energy  (eV) =     -78.932201        -79.407150
       Total energy      (eV) =     -67.915757        -67.740311
       Temperature       (K)  =    2749.255896       2911.567792
       Pressure         (GPa) =      22.721878         21.918013
  ** Time :            2.10000 ps :
     Properties:                   Instantaneous       Averaged
       Kinetic energy    (eV) =      11.304772         11.663390
       Potential energy  (eV) =     -76.681078        -79.381187
       Total energy      (eV) =     -65.376307        -67.717797
       Temperature       (K)  =    2821.210568       2910.707247
       Pressure         (GPa) =      25.507716         21.952201
  ** Time :            2.12000 ps :
     Properties:                   Instantaneous       Averaged
       Kinetic energy    (eV) =      12.134517         11.667835
       Potential energy  (eV) =     -77.272442        -79.361293
       Total energy      (eV) =     -65.137924        -67.693458
       Temperature       (K)  =    3028.281301       2911.816437
       Pressure         (GPa) =      24.940011         21.980388
  ** Time :            2.14000 ps :
     Properties:                   Instantaneous       Averaged
       Kinetic energy    (eV) =      12.364188         11.674343
       Potential energy  (eV) =     -80.000773        -79.367270
       Total energy      (eV) =     -67.636585        -67.692927
       Temperature       (K)  =    3085.597901       2913.440562
       Pressure         (GPa) =      21.599646         21.976829
  ** Time :            2.16000 ps :
     Properties:                   Instantaneous       Averaged
       Kinetic energy    (eV) =      11.914671         11.676568
       Potential energy  (eV) =     -81.768056        -79.389499
       Total energy      (eV) =     -69.853385        -67.712931
       Temperature       (K)  =    2973.416644       2913.995897
       Pressure         (GPa) =      19.457275         21.953500
  ** Time :            2.18000 ps :
     Properties:                   Instantaneous       Averaged
       Kinetic energy    (eV) =      11.291159         11.673032
       Potential energy  (eV) =     -81.045881        -79.404695
       Total energy      (eV) =     -69.754722        -67.731663
       Temperature       (K)  =    2817.813440       2913.113489
       Pressure         (GPa) =      20.377620         21.939043
  ** Time :            2.20000 ps :
     Properties:                   Instantaneous       Averaged
       Kinetic energy    (eV) =      10.815155         11.665234
       Potential energy  (eV) =     -77.965568        -79.391612
       Total energy      (eV) =     -67.150413        -67.726379
       Temperature       (K)  =    2699.022246       2911.167205
       Pressure         (GPa) =      23.687140         21.954934
  ** Time :            2.22000 ps :
     Properties:                   Instantaneous       Averaged
       Kinetic energy    (eV) =      12.028204         11.668504
       Potential energy  (eV) =     -76.939610        -79.369522
       Total energy      (eV) =     -64.911406        -67.701019
       Temperature       (K)  =    3001.749821       2911.983264
       Pressure         (GPa) =      25.115039         21.983404
  ** Time :            2.24000 ps :
     Properties:                   Instantaneous       Averaged
       Kinetic energy    (eV) =      11.709615         11.668871
       Potential energy  (eV) =     -78.437023        -79.361196
       Total energy      (eV) =     -66.727408        -67.692326
       Temperature       (K)  =    2922.243126       2912.074870
       Pressure         (GPa) =      23.885651         22.000388
  ** Time :            2.26000 ps :
     Properties:                   Instantaneous       Averaged
       Kinetic energy    (eV) =      11.592169         11.668192
       Potential energy  (eV) =     -77.693132        -79.346435
       Total energy      (eV) =     -66.100962        -67.678243
       Temperature       (K)  =    2892.933306       2911.905476
       Pressure         (GPa) =      24.569301         22.023122
  ** Time :            2.28000 ps :
     Properties:                   Instantaneous       Averaged
       Kinetic energy    (eV) =      11.948820         11.670653
       Potential energy  (eV) =     -78.252881        -79.336842
       Total energy      (eV) =     -66.304061        -67.666189
       Temperature       (K)  =    2981.938868       2912.519804
       Pressure         (GPa) =      23.377209         22.035000
  ** Time :            2.30000 ps :
     Properties:                   Instantaneous       Averaged
       Kinetic energy    (eV) =      11.968523         11.673244
       Potential energy  (eV) =     -80.242380        -79.344716
       Total energy      (eV) =     -68.273857        -67.671473
       Temperature       (K)  =    2986.855879       2913.166204
       Pressure         (GPa) =      21.389974         22.029391
  ** Time :            2.32000 ps :
     Properties:                   Instantaneous       Averaged
       Kinetic energy    (eV) =      11.549049         11.672173
       Potential energy  (eV) =     -79.966794        -79.350079
       Total energy      (eV) =     -68.417745        -67.677906
       Temperature       (K)  =    2882.172224       2912.899015
       Pressure         (GPa) =      22.127682         22.030238
  ** Time :            2.34000 ps :
     Properties:                   Instantaneous       Averaged
       Kinetic energy    (eV) =      11.743555         11.672783
       Potential energy  (eV) =     -79.248558        -79.349211
       Total energy      (eV) =     -67.505002        -67.676428
       Temperature       (K)  =    2930.713148       2913.051273
       Pressure         (GPa) =      23.107235         22.039443
  ** Time :            2.36000 ps :
     Properties:                   Instantaneous       Averaged
       Kinetic energy    (eV) =      12.027778         11.675792
       Potential energy  (eV) =     -80.453398        -79.358569
       Total energy      (eV) =     -68.425620        -67.682777
       Temperature       (K)  =    3001.643585       2913.802055
       Pressure         (GPa) =      21.639403         22.036053
  ** Time :            2.38000 ps :
     Properties:                   Instantaneous       Averaged
       Kinetic energy    (eV) =      11.509100         11.674391
       Potential energy  (eV) =     -79.918778        -79.363277
       Total energy      (eV) =     -68.409678        -67.688886
       Temperature       (K)  =    2872.202632       2913.452480
       Pressure         (GPa) =      21.398229         22.030693
  ** Time :            2.40000 ps :
     Properties:                   Instantaneous       Averaged
       Kinetic energy    (eV) =      11.961302         11.676782
       Potential energy  (eV) =     -80.079812        -79.369248
       Total energy      (eV) =     -68.118510        -67.692466
       Temperature       (K)  =    2985.053804       2914.049158
       Pressure         (GPa) =      21.185353         22.023649
  ** Time :            2.42000 ps :
     Properties:                   Instantaneous       Averaged
       Kinetic energy    (eV) =      11.396306         11.674464
       Potential energy  (eV) =     -79.789711        -79.372723
       Total energy      (eV) =     -68.393405        -67.698259
       Temperature       (K)  =    2844.053903       2913.470684
       Pressure         (GPa) =      21.663019         22.020668
  ** Time :            2.44000 ps :
     Properties:                   Instantaneous       Averaged
       Kinetic energy    (eV) =      11.514238         11.673150
       Potential energy  (eV) =     -78.297255        -79.363907
       Total energy      (eV) =     -66.783017        -67.690757
       Temperature       (K)  =    2873.484909       2913.142932
       Pressure         (GPa) =      23.666781         22.034161
  ** Time :            2.46000 ps :
     Properties:                   Instantaneous       Averaged
       Kinetic energy    (eV) =      11.846457         11.674559
       Potential energy  (eV) =     -78.736461        -79.358806
       Total energy      (eV) =     -66.890003        -67.684247
       Temperature       (K)  =    2956.393255       2913.494561
       Pressure         (GPa) =      23.661116         22.047388
  ** Time :            2.48000 ps :
     Properties:                   Instantaneous       Averaged
       Kinetic energy    (eV) =      11.526659         11.673367
       Potential energy  (eV) =     -78.019070        -79.348002
       Total energy      (eV) =     -66.492411        -67.674635
       Temperature       (K)  =    2876.584702       2913.196901
       Pressure         (GPa) =      24.211744         22.064843
  ** Time :            2.50000 ps :
     Properties:                   Instantaneous       Averaged
       Kinetic energy    (eV) =      11.999357         11.675975
       Potential energy  (eV) =     -78.981679        -79.345071
       Total energy      (eV) =     -66.982322        -67.669097
       Temperature       (K)  =    2994.550837       2913.847732
       Pressure         (GPa) =      23.083778         22.072994
  ** Time :            2.52000 ps :
     Properties:                   Instantaneous       Averaged
       Kinetic energy    (eV) =      11.800153         11.676960
       Potential energy  (eV) =     -79.478875        -79.346133
       Total energy      (eV) =     -67.678722        -67.669173
       Temperature       (K)  =    2944.837606       2914.093683
       Pressure         (GPa) =      21.977890         22.072240
  ** Time :            2.54000 ps :
     Properties:                   Instantaneous       Averaged
       Kinetic energy    (eV) =      11.723211         11.677324
       Potential energy  (eV) =     -80.127234        -79.352284
       Total energy      (eV) =     -68.404023        -67.674959
       Temperature       (K)  =    2925.635950       2914.184567
       Pressure         (GPa) =      21.582326         22.068382
  ** Time :            2.56000 ps :
     Properties:                   Instantaneous       Averaged
       Kinetic energy    (eV) =      11.630811         11.676961
       Potential energy  (eV) =     -79.227808        -79.351311
       Total energy      (eV) =     -67.596998        -67.674350
       Temperature       (K)  =    2902.576669       2914.093881
       Pressure         (GPa) =      22.557889         22.072206
  ** Time :            2.58000 ps :
     Properties:                   Instantaneous       Averaged
       Kinetic energy    (eV) =      11.948310         11.679064
       Potential energy  (eV) =     -79.976943        -79.356161
       Total energy      (eV) =     -68.028632        -67.677097
       Temperature       (K)  =    2981.811686       2914.618825
       Pressure         (GPa) =      21.584409         22.068425
  ** Time :            2.60000 ps :
     Properties:                   Instantaneous       Averaged
       Kinetic energy    (eV) =      11.779017         11.679833
       Potential energy  (eV) =     -80.149623        -79.362265
       Total energy      (eV) =     -68.370606        -67.682431
       Temperature       (K)  =    2939.562955       2914.810703
       Pressure         (GPa) =      21.049549         22.060587
  ** Time :            2.62000 ps :
     Properties:                   Instantaneous       Averaged
       Kinetic energy    (eV) =      11.661833         11.679696
       Potential energy  (eV) =     -80.309980        -79.369499
       Total energy      (eV) =     -68.648147        -67.689803
       Temperature       (K)  =    2910.318693       2914.776413
       Pressure         (GPa) =      20.933550         22.051984
  ** Time :            2.64000 ps :
     Properties:                   Instantaneous       Averaged
       Kinetic energy    (eV) =      11.486009         11.678229
       Potential energy  (eV) =     -78.783955        -79.365063
       Total energy      (eV) =     -67.297947        -67.686835
       Temperature       (K)  =    2866.440003       2914.410228
       Pressure         (GPa) =      22.374777         22.054429
  ** Time :            2.66000 ps :
     Properties:                   Instantaneous       Averaged
       Kinetic energy    (eV) =      11.910017         11.679971
       Potential energy  (eV) =     -79.099459        -79.363066
       Total energy      (eV) =     -67.189441        -67.683095
       Temperature       (K)  =    2972.255297       2914.845153
       Pressure         (GPa) =      22.284873         22.056162
  ** Time :            2.68000 ps :
     Properties:                   Instantaneous       Averaged
       Kinetic energy    (eV) =      11.511485         11.678714
       Potential energy  (eV) =     -79.480745        -79.363944
       Total energy      (eV) =     -67.969260        -67.685230
       Temperature       (K)  =    2872.797835       2914.531367
       Pressure         (GPa) =      22.180065         22.057087
  ** Time :            2.70000 ps :
     Properties:                   Instantaneous       Averaged
       Kinetic energy    (eV) =      11.336173         11.676177
       Potential energy  (eV) =     -77.632231        -79.351117
       Total energy      (eV) =     -66.296057        -67.674940
       Temperature       (K)  =    2829.047191       2913.898151
       Pressure         (GPa) =      24.230138         22.073183
  ** Time :            2.72000 ps :
     Properties:                   Instantaneous       Averaged
       Kinetic energy    (eV) =      12.347707         11.681114
       Potential energy  (eV) =     -78.545628        -79.345194
       Total energy      (eV) =     -66.197921        -67.664080
       Temperature       (K)  =    3081.484913       2915.130407
       Pressure         (GPa) =      23.385935         22.082836
  ** Time :            2.74000 ps :
     Properties:                   Instantaneous       Averaged
       Kinetic energy    (eV) =      11.985092         11.683333
       Potential energy  (eV) =     -81.114846        -79.358111
       Total energy      (eV) =     -69.129754        -67.674778
       Temperature       (K)  =    2990.990950       2915.684133
       Pressure         (GPa) =      20.751024         22.073115
  ** Time :            2.76000 ps :
     Properties:                   Instantaneous       Averaged
       Kinetic energy    (eV) =      11.413491         11.681378
       Potential energy  (eV) =     -79.970217        -79.362547
       Total energy      (eV) =     -68.556726        -67.681169
       Temperature       (K)  =    2848.342530       2915.196151
       Pressure         (GPa) =      21.909628         22.071930
  ** Time :            2.78000 ps :
     Properties:                   Instantaneous       Averaged
       Kinetic energy    (eV) =      11.911662         11.683034
       Potential energy  (eV) =     -79.978558        -79.366978
       Total energy      (eV) =     -68.066896        -67.683944
       Temperature       (K)  =    2972.665727       2915.609601
       Pressure         (GPa) =      22.212397         22.072941
  ** Time :            2.80000 ps :
     Properties:                   Instantaneous       Averaged
       Kinetic energy    (eV) =      11.526513         11.681916
       Potential energy  (eV) =     -79.437369        -79.367481
       Total energy      (eV) =     -67.910856        -67.685565
       Temperature       (K)  =    2876.548246       2915.330591
       Pressure         (GPa) =      22.612598         22.076795
  ** Time :            2.82000 ps :
     Properties:                   Instantaneous       Averaged
       Kinetic energy    (eV) =      12.000853         11.684178
       Potential energy  (eV) =     -80.149208        -79.373025
       Total energy      (eV) =     -68.148355        -67.688847
       Temperature       (K)  =    2994.924122       2915.895084
       Pressure         (GPa) =      21.545031         22.073024
  ** Time :            2.84000 ps :
     Properties:                   Instantaneous       Averaged
       Kinetic energy    (eV) =      11.629560         11.683794
       Potential energy  (eV) =     -80.917769        -79.383904
       Total energy      (eV) =     -69.288209        -67.700110
       Temperature       (K)  =    2902.264592       2915.799095
       Pressure         (GPa) =      20.215327         22.059941
  ** Time :            2.86000 ps :
     Properties:                   Instantaneous       Averaged
       Kinetic energy    (eV) =      10.816611         11.677730
       Potential energy  (eV) =     -78.157957        -79.375331
       Total energy      (eV) =     -67.341346        -67.697601
       Temperature       (K)  =    2699.385579       2914.285714
       Pressure         (GPa) =      22.668729         22.064199
  ** Time :            2.88000 ps :
     Properties:                   Instantaneous       Averaged
       Kinetic energy    (eV) =      12.380259         11.682608
       Potential energy  (eV) =     -78.495332        -79.369220
       Total energy      (eV) =     -66.115073        -67.686611
       Temperature       (K)  =    3089.608551       2915.503233
       Pressure         (GPa) =      22.893460         22.069958
  ** Time :            2.90000 ps :
     Properties:                   Instantaneous       Averaged
       Kinetic energy    (eV) =      11.827060         11.683604
       Potential energy  (eV) =     -81.346996        -79.382860
       Total energy      (eV) =     -69.519936        -67.699255
       Temperature       (K)  =    2951.552465       2915.751849
       Pressure         (GPa) =      19.733211         22.053842
  ** Time :            2.92000 ps :
     Properties:                   Instantaneous       Averaged
       Kinetic energy    (eV) =      11.513392         11.682439
       Potential energy  (eV) =     -79.962117        -79.386827
       Total energy      (eV) =     -68.448725        -67.704388
       Temperature       (K)  =    2873.273824       2915.460903
       Pressure         (GPa) =      20.648906         22.044219
  ** Time :            2.94000 ps :
     Properties:                   Instantaneous       Averaged
       Kinetic energy    (eV) =      11.515108         11.681300
       Potential energy  (eV) =     -79.667061        -79.388733
       Total energy      (eV) =     -68.151952        -67.707433
       Temperature       (K)  =    2873.702022       2915.176829
       Pressure         (GPa) =      21.399165         22.039831
  ** Time :            2.96000 ps :
     Properties:                   Instantaneous       Averaged
       Kinetic energy    (eV) =      11.172356         11.677862
       Potential energy  (eV) =     -78.034891        -79.379586
       Total energy      (eV) =     -66.862535        -67.701724
       Temperature       (K)  =    2788.165013       2914.318641
       Pressure         (GPa) =      23.403775         22.049047
  ** Time :            2.98000 ps :
     Properties:                   Instantaneous       Averaged
       Kinetic energy    (eV) =      12.074671         11.680525
       Potential energy  (eV) =     -77.791160        -79.368925
       Total energy      (eV) =     -65.716490        -67.688401
       Temperature       (K)  =    3013.346003       2914.983255
       Pressure         (GPa) =      23.908260         22.061525
  ** Time :            3.00000 ps :
     Properties:                   Instantaneous       Averaged
       Kinetic energy    (eV) =      12.088389         11.683244
       Potential energy  (eV) =     -80.265419        -79.374902
       Total energy      (eV) =     -68.177030        -67.691658
       Temperature       (K)  =    3016.769630       2915.661830
       Pressure         (GPa) =      21.507772         22.057833
  ** Time :            3.02000 ps :
     Properties:                   Instantaneous       Averaged
       Kinetic energy    (eV) =      11.256774         11.680419
       Potential energy  (eV) =     -79.191941        -79.373690
       Total energy      (eV) =     -67.935167        -67.693271
       Temperature       (K)  =    2809.232376       2914.957000
       Pressure         (GPa) =      22.345093         22.059736
  ** Time :            3.04000 ps :
     Properties:                   Instantaneous       Averaged
       Kinetic energy    (eV) =      11.992275         11.682471
       Potential energy  (eV) =     -79.245892        -79.372849
       Total energy      (eV) =     -67.253618        -67.690378
       Temperature       (K)  =    2992.783321       2915.469015
       Pressure         (GPa) =      22.204722         22.060689
  ** Time :            3.06000 ps :
     Properties:                   Instantaneous       Averaged
       Kinetic energy    (eV) =      11.630009         11.682128
       Potential energy  (eV) =     -79.975293        -79.376787
       Total energy      (eV) =     -68.345284        -67.694659
       Temperature       (K)  =    2902.376564       2915.383443
       Pressure         (GPa) =      21.325542         22.055884
  ** Time :            3.08000 ps :
     Properties:                   Instantaneous       Averaged
       Kinetic energy    (eV) =      10.823389         11.676552
       Potential energy  (eV) =     -77.677688        -79.365754
       Total energy      (eV) =     -66.854299        -67.689202
       Temperature       (K)  =    2701.076976       2913.991843
       Pressure         (GPa) =      23.929301         22.068050
  ** Time :            3.10000 ps :
     Properties:                   Instantaneous       Averaged
       Kinetic energy    (eV) =      11.225462         11.673642
       Potential energy  (eV) =     -75.179313        -79.338745
       Total energy      (eV) =     -63.953851        -67.665103
       Temperature       (K)  =    2801.418159       2913.265561
       Pressure         (GPa) =      27.037801         22.100112
  ** Time :            3.12000 ps :
     Properties:                   Instantaneous       Averaged
       Kinetic energy    (eV) =      12.144964         11.676663
       Potential energy  (eV) =     -75.356138        -79.313215
       Total energy      (eV) =     -63.211174        -67.636552
       Temperature       (K)  =    3030.888372       2914.019553
       Pressure         (GPa) =      26.835119         22.130465
  ** Time :            3.14000 ps :
     Properties:                   Instantaneous       Averaged
       Kinetic energy    (eV) =      12.508205         11.681960
       Potential energy  (eV) =     -78.362277        -79.307158
       Total energy      (eV) =     -65.854072        -67.625199
       Temperature       (K)  =    3121.538653       2915.341331
       Pressure         (GPa) =      23.279843         22.137786
  ** Time :            3.16000 ps :
     Properties:                   Instantaneous       Averaged
       Kinetic energy    (eV) =      11.883211         11.683233
       Potential energy  (eV) =     -81.158506        -79.318876
       Total energy      (eV) =     -69.275295        -67.635642
       Temperature       (K)  =    2965.565509       2915.659206
       Pressure         (GPa) =      20.084273         22.124789
  ** Time :            3.18000 ps :
     Properties:                   Instantaneous       Averaged
       Kinetic energy    (eV) =      11.558495         11.682449
       Potential energy  (eV) =     -80.242935        -79.324687
       Total energy      (eV) =     -68.684441        -67.642239
       Temperature       (K)  =    2884.529496       2915.463421
       Pressure         (GPa) =      20.916266         22.117188
  ** Time :            3.20000 ps :
     Properties:                   Instantaneous       Averaged
       Kinetic energy    (eV) =      11.744548         11.682837
       Potential energy  (eV) =     -80.075653        -79.329381
       Total energy      (eV) =     -68.331105        -67.646544
       Temperature       (K)  =    2930.960860       2915.560280
       Pressure         (GPa) =      21.436647         22.112935
  ** Time :            3.22000 ps :
     Properties:                   Instantaneous       Averaged
       Kinetic energy    (eV) =      11.776895         11.683421
       Potential energy  (eV) =     -80.734969        -79.338111
       Total energy      (eV) =     -68.958074        -67.654690
       Temperature       (K)  =    2939.033273       2915.706075
       Pressure         (GPa) =      21.137278         22.106875
  ** Time :            3.24000 ps :
     Properties:                   Instantaneous       Averaged
       Kinetic energy    (eV) =      11.286283         11.680970
       Potential energy  (eV) =     -79.360990        -79.338252
       Total energy      (eV) =     -68.074707        -67.657283
       Temperature       (K)  =    2816.596646       2915.094289
       Pressure         (GPa) =      22.552469         22.109625
  ** Time :            3.26000 ps :
     Properties:                   Instantaneous       Averaged
       Kinetic energy    (eV) =      11.968526         11.682734
       Potential energy  (eV) =     -78.877571        -79.335426
       Total energy      (eV) =     -66.909045        -67.652692
       Temperature       (K)  =    2986.856761       2915.534549
       Pressure         (GPa) =      23.276293         22.116783
  ** Time :            3.28000 ps :
     Properties:                   Instantaneous       Averaged
       Kinetic energy    (eV) =      11.718608         11.682952
[...]
       Potential energy  (eV) =     -78.054355        -78.620682
       Total energy      (eV) =     -66.069604        -66.117012
       Temperature       (K)  =    2990.905784       3120.406911
       Pressure         (GPa) =      23.895152         23.150187
  ** Time :            9.14000 ps :
     Properties:                   Instantaneous       Averaged
       Kinetic energy    (eV) =      12.892794         12.504522
       Potential energy  (eV) =     -79.047566        -78.621616
       Total energy      (eV) =     -66.154773        -66.117094
       Temperature       (K)  =    3217.516288       3120.619404
       Pressure         (GPa) =      23.132132         23.150147
  ** Time :            9.16000 ps :
     Properties:                   Instantaneous       Averaged
       Kinetic energy    (eV) =      11.426832         12.502169
       Potential energy  (eV) =     -77.521794        -78.619215
       Total energy      (eV) =     -66.094963        -66.117046
       Temperature       (K)  =    2851.671820       3120.032182
       Pressure         (GPa) =      24.226652         23.152498
  ** Time :            9.18000 ps :
     Properties:                   Instantaneous       Averaged
       Kinetic energy    (eV) =      11.157686         12.499240
       Potential energy  (eV) =     -77.285369        -78.616309
       Total energy      (eV) =     -66.127683        -66.117069
       Temperature       (K)  =    2784.503932       3119.301184
       Pressure         (GPa) =      24.442786         23.155309
  ** Time :            9.20000 ps :
     Properties:                   Instantaneous       Averaged
       Kinetic energy    (eV) =      10.769857         12.495480
       Potential energy  (eV) =     -76.812421        -78.612387
       Total energy      (eV) =     -66.042565        -66.116907
       Temperature       (K)  =    2687.717615       3118.362958
       Pressure         (GPa) =      24.673178         23.158608
  ** Time :            9.22000 ps :
     Properties:                   Instantaneous       Averaged
       Kinetic energy    (eV) =      11.013853         12.492266
       Potential energy  (eV) =     -77.163273        -78.609244
       Total energy      (eV) =     -66.149420        -66.116978
       Temperature       (K)  =    2748.609151       3117.560889
       Pressure         (GPa) =      24.647149         23.161837
  ** Time :            9.24000 ps :
     Properties:                   Instantaneous       Averaged
       Kinetic energy    (eV) =      10.976375         12.488985
       Potential energy  (eV) =     -77.124245        -78.606030
       Total energy      (eV) =     -66.147870        -66.117044
       Temperature       (K)  =    2739.256170       3116.742048
       Pressure         (GPa) =      24.966526         23.165744
  ** Time :            9.26000 ps :
     Properties:                   Instantaneous       Averaged
       Kinetic energy    (eV) =      10.111676         12.483851
       Potential energy  (eV) =     -76.162220        -78.600751
       Total energy      (eV) =     -66.050544        -66.116901
       Temperature       (K)  =    2523.462637       3115.460667
       Pressure         (GPa) =      25.885080         23.171617
  ** Time :            9.28000 ps :
     Properties:                   Instantaneous       Averaged
       Kinetic energy    (eV) =      11.829684         12.482441
       Potential energy  (eV) =     -77.990684        -78.599437
       Total energy      (eV) =     -66.161000        -66.116996
       Temperature       (K)  =    2952.207379       3115.108828
       Pressure         (GPa) =      24.130695         23.173684
  ** Time :            9.30000 ps :
     Properties:                   Instantaneous       Averaged
       Kinetic energy    (eV) =      12.779532         12.483080
       Potential energy  (eV) =     -78.918202        -78.600122
       Total energy      (eV) =     -66.138670        -66.117042
       Temperature       (K)  =    3189.250618       3115.268273
       Pressure         (GPa) =      23.227137         23.173799
  ** Time :            9.32000 ps :
     Properties:                   Instantaneous       Averaged
       Kinetic energy    (eV) =      12.026326         12.482099
       Potential energy  (eV) =     -78.100658        -78.599050
       Total energy      (eV) =     -66.074333        -66.116951
       Temperature       (K)  =    3001.281143       3115.023665
       Pressure         (GPa) =      23.769884         23.175078
  ** Time :            9.34000 ps :
     Properties:                   Instantaneous       Averaged
       Kinetic energy    (eV) =      13.575533         12.484441
       Potential energy  (eV) =     -79.754326        -78.601524
       Total energy      (eV) =     -66.178793        -66.117083
       Temperature       (K)  =    3387.900201       3115.607983
       Pressure         (GPa) =      22.012443         23.172588
  ** Time :            9.36000 ps :
     Properties:                   Instantaneous       Averaged
       Kinetic energy    (eV) =      13.962521         12.487599
       Potential energy  (eV) =     -80.055011        -78.604630
       Total energy      (eV) =     -66.092490        -66.117031
       Temperature       (K)  =    3484.476720       3116.396164
       Pressure         (GPa) =      21.584196         23.169194
  ** Time :            9.38000 ps :
     Properties:                   Instantaneous       Averaged
       Kinetic energy    (eV) =      13.785352         12.490366
       Potential energy  (eV) =     -79.909571        -78.607412
       Total energy      (eV) =     -66.124220        -66.117046
       Temperature       (K)  =    3440.262356       3117.086711
       Pressure         (GPa) =      21.788426         23.166250
  ** Time :            9.40000 ps :
     Properties:                   Instantaneous       Averaged
       Kinetic energy    (eV) =      12.768038         12.490957
       Potential energy  (eV) =     -78.819922        -78.607864
       Total energy      (eV) =     -66.051884        -66.116907
       Temperature       (K)  =    3186.382264       3117.234148
       Pressure         (GPa) =      22.557568         23.164955
  ** Time :            9.42000 ps :
     Properties:                   Instantaneous       Averaged
       Kinetic energy    (eV) =      13.528252         12.493159
       Potential energy  (eV) =     -79.704251        -78.610192
       Total energy      (eV) =     -66.175999        -66.117033
       Temperature       (K)  =    3376.100835       3117.783759
       Pressure         (GPa) =      22.452526         23.163443
  ** Time :            9.44000 ps :
     Properties:                   Instantaneous       Averaged
       Kinetic energy    (eV) =      12.741435         12.493685
       Potential energy  (eV) =     -78.844317        -78.610688
       Total energy      (eV) =     -66.102882        -66.117003
       Temperature       (K)  =    3179.743149       3117.915029
       Pressure         (GPa) =      23.779774         23.164748
  ** Time :            9.46000 ps :
     Properties:                   Instantaneous       Averaged
       Kinetic energy    (eV) =      12.499679         12.493698
       Potential energy  (eV) =     -78.563865        -78.610589
       Total energy      (eV) =     -66.064185        -66.116891
       Temperature       (K)  =    3119.410896       3117.918191
       Pressure         (GPa) =      24.049186         23.166618
  ** Time :            9.48000 ps :
     Properties:                   Instantaneous       Averaged
       Kinetic energy    (eV) =      14.377331         12.497672
       Potential energy  (eV) =     -80.557199        -78.614696
       Total energy      (eV) =     -66.179868        -66.117024
       Temperature       (K)  =    3587.996222       3118.909917
       Pressure         (GPa) =      22.244220         23.164672
  ** Time :            9.50000 ps :
     Properties:                   Instantaneous       Averaged
       Kinetic energy    (eV) =      13.567980         12.499925
       Potential energy  (eV) =     -79.663056        -78.616903
       Total energy      (eV) =     -66.095076        -66.116978
       Temperature       (K)  =    3386.015302       3119.472244
       Pressure         (GPa) =      22.941542         23.164202
  ** Time :            9.52000 ps :
     Properties:                   Instantaneous       Averaged
       Kinetic energy    (eV) =      12.739935         12.500429
       Potential energy  (eV) =     -78.840376        -78.617373
       Total energy      (eV) =     -66.100440        -66.116943
       Temperature       (K)  =    3179.368939       3119.598077
       Pressure         (GPa) =      23.748213         23.165429
  ** Time :            9.54000 ps :
     Properties:                   Instantaneous       Averaged
       Kinetic energy    (eV) =      12.089942         12.499569
       Potential energy  (eV) =     -78.237116        -78.616575
       Total energy      (eV) =     -66.147174        -66.117007
       Temperature       (K)  =    3017.157193       3119.383317
       Pressure         (GPa) =      24.129422         23.167450
  ** Time :            9.56000 ps :
     Properties:                   Instantaneous       Averaged
       Kinetic energy    (eV) =      10.444355         12.495269
       Potential energy  (eV) =     -76.483711        -78.612113
       Total energy      (eV) =     -66.039355        -66.116844
       Temperature       (K)  =    2606.485737       3118.310309
       Pressure         (GPa) =      25.340225         23.171996
  ** Time :            9.58000 ps :
     Properties:                   Instantaneous       Averaged
       Kinetic energy    (eV) =      11.592424         12.493384
       Potential energy  (eV) =     -77.725725        -78.610263
       Total energy      (eV) =     -66.133300        -66.116878
       Temperature       (K)  =    2892.997027       3117.839927
       Pressure         (GPa) =      24.128437         23.173993
  ** Time :            9.60000 ps :
     Properties:                   Instantaneous       Averaged
       Kinetic energy    (eV) =      12.407262         12.493205
       Potential energy  (eV) =     -78.527125        -78.610090
       Total energy      (eV) =     -66.119862        -66.116885
       Temperature       (K)  =    3096.347348       3117.795150
       Pressure         (GPa) =      23.088402         23.173814
  ** Time :            9.62000 ps :
     Properties:                   Instantaneous       Averaged
       Kinetic energy    (eV) =      12.582824         12.493391
       Potential energy  (eV) =     -78.695346        -78.610267
       Total energy      (eV) =     -66.112522        -66.116876
       Temperature       (K)  =    3140.160345       3117.841648
       Pressure         (GPa) =      22.731571         23.172895
  ** Time :            9.64000 ps :
     Properties:                   Instantaneous       Averaged
       Kinetic energy    (eV) =      12.059792         12.492492
       Potential energy  (eV) =     -78.164200        -78.609341
       Total energy      (eV) =     -66.104409        -66.116850
       Temperature       (K)  =    3009.632814       3117.617148
       Pressure         (GPa) =      22.962463         23.172458
  ** Time :            9.66000 ps :
     Properties:                   Instantaneous       Averaged
       Kinetic energy    (eV) =      13.132681         12.493817
       Potential energy  (eV) =     -79.300645        -78.610773
       Total energy      (eV) =     -66.167964        -66.116956
       Temperature       (K)  =    3277.382378       3117.947925
       Pressure         (GPa) =      22.054251         23.170143
  ** Time :            9.68000 ps :
     Properties:                   Instantaneous       Averaged
       Kinetic energy    (eV) =      12.844242         12.494541
       Potential energy  (eV) =     -78.994339        -78.611565
       Total energy      (eV) =     -66.150098        -66.117024
       Temperature       (K)  =    3205.399620       3118.128610
       Pressure         (GPa) =      22.761229         23.169298
  ** Time :            9.70000 ps :
     Properties:                   Instantaneous       Averaged
       Kinetic energy    (eV) =      10.194988         12.489800
       Potential energy  (eV) =     -76.261112        -78.606719
       Total energy      (eV) =     -66.066124        -66.116919
       Temperature       (K)  =    2544.253848       3116.945363
       Pressure         (GPa) =      25.312016         23.173716
  ** Time :            9.72000 ps :
     Properties:                   Instantaneous       Averaged
       Kinetic energy    (eV) =      11.413260         12.487585
       Potential energy  (eV) =     -77.471651        -78.604383
       Total energy      (eV) =     -66.058391        -66.116799
       Temperature       (K)  =    2848.284888       3116.392564
       Pressure         (GPa) =      24.321213         23.176077
  ** Time :            9.74000 ps :
     Properties:                   Instantaneous       Averaged
       Kinetic energy    (eV) =      15.132638         12.493016
       Potential energy  (eV) =     -81.323033        -78.609966
       Total energy      (eV) =     -66.190395        -66.116950
       Temperature       (K)  =    3776.490121       3117.748000
       Pressure         (GPa) =      20.823517         23.171247
  ** Time :            9.76000 ps :
     Properties:                   Instantaneous       Averaged
       Kinetic energy    (eV) =      14.433632         12.496993
       Potential energy  (eV) =     -80.571805        -78.613986
       Total energy      (eV) =     -66.138173        -66.116993
       Temperature       (K)  =    3602.046819       3118.740416
       Pressure         (GPa) =      21.062303         23.166925
  ** Time :            9.78000 ps :
     Properties:                   Instantaneous       Averaged
       Kinetic energy    (eV) =      11.379916         12.494708
       Potential energy  (eV) =     -77.433491        -78.611572
       Total energy      (eV) =     -66.053575        -66.116864
       Temperature       (K)  =    2839.963514       3118.170320
       Pressure         (GPa) =      24.019035         23.168668
  ** Time :            9.80000 ps :
     Properties:                   Instantaneous       Averaged
       Kinetic energy    (eV) =      11.532864         12.492745
       Potential energy  (eV) =     -77.626806        -78.609562
       Total energy      (eV) =     -66.093942        -66.116817
       Temperature       (K)  =    2878.133182       3117.680448
       Pressure         (GPa) =      24.133075         23.170636
  ** Time :            9.82000 ps :
     Properties:                   Instantaneous       Averaged
       Kinetic energy    (eV) =      14.045641         12.495908
       Potential energy  (eV) =     -80.217894        -78.612838
       Total energy      (eV) =     -66.172253        -66.116930
       Temperature       (K)  =    3505.219926       3118.469735
       Pressure         (GPa) =      21.791888         23.167828
  ** Time :            9.84000 ps :
     Properties:                   Instantaneous       Averaged
       Kinetic energy    (eV) =      13.960555         12.498885
       Potential energy  (eV) =     -80.066694        -78.615793
       Total energy      (eV) =     -66.106139        -66.116908
       Temperature       (K)  =    3483.986003       3119.212654
       Pressure         (GPa) =      21.510191         23.164459
  ** Time :            9.86000 ps :
     Properties:                   Instantaneous       Averaged
       Kinetic energy    (eV) =      13.115619         12.500136
       Potential energy  (eV) =     -79.176698        -78.616930
       Total energy      (eV) =     -66.061079        -66.116794
       Temperature       (K)  =    3273.124331       3119.524848
       Pressure         (GPa) =      22.062293         23.162223
  ** Time :            9.88000 ps :
     Properties:                   Instantaneous       Averaged
       Kinetic energy    (eV) =      14.432453         12.504048
       Potential energy  (eV) =     -80.611739        -78.620969
       Total energy      (eV) =     -66.179287        -66.116921
       Temperature       (K)  =    3601.752458       3120.501017
       Pressure         (GPa) =      20.846213         23.157535
  ** Time :            9.90000 ps :
     Properties:                   Instantaneous       Averaged
       Kinetic energy    (eV) =      12.536296         12.504113
       Potential energy  (eV) =     -78.652199        -78.621032
       Total energy      (eV) =     -66.115902        -66.116919
       Temperature       (K)  =    3128.549048       3120.517276
       Pressure         (GPa) =      22.560634         23.156329
  ** Time :            9.92000 ps :
     Properties:                   Instantaneous       Averaged
       Kinetic energy    (eV) =      10.513373         12.500099
       Potential energy  (eV) =     -76.614420        -78.616986
       Total energy      (eV) =     -66.101047        -66.116887
       Temperature       (K)  =    2623.709815       3119.515648
       Pressure         (GPa) =      24.956515         23.159958
  ** Time :            9.94000 ps :
     Properties:                   Instantaneous       Averaged
       Kinetic energy    (eV) =      10.100005         12.495270
       Potential energy  (eV) =     -76.177175        -78.612077
       Total energy      (eV) =     -66.077170        -66.116807
       Temperature       (K)  =    2520.549792       3118.310485
       Pressure         (GPa) =      25.970593         23.165613
  ** Time :            9.96000 ps :
     Properties:                   Instantaneous       Averaged
       Kinetic energy    (eV) =      11.560420         12.493393
       Potential energy  (eV) =     -77.691648        -78.610229
       Total energy      (eV) =     -66.131228        -66.116836
       Temperature       (K)  =    2885.009981       3117.842010
       Pressure         (GPa) =      24.788398         23.168872
  ** Time :            9.98000 ps :
     Properties:                   Instantaneous       Averaged
       Kinetic energy    (eV) =      13.696844         12.495804
       Potential energy  (eV) =     -79.775342        -78.612564
       Total energy      (eV) =     -66.078498        -66.116759
       Temperature       (K)  =    3418.174477       3118.443879
       Pressure         (GPa) =      22.455775         23.167443
  ** Time :           10.00000 ps :
     Properties:                   Instantaneous       Averaged
       Kinetic energy    (eV) =      15.581400         12.501976
       Potential energy  (eV) =     -81.706714        -78.618752
       Total energy      (eV) =     -66.125315        -66.116776
       Temperature       (K)  =    3888.482787       3119.983957
       Pressure         (GPa) =      20.387935         23.161884

  Peak dynamic memory used =       0.57 MB 


  Timing analysis for GULP :

--------------------------------------------------------------------------------
  Task / Subroutine                                          Time (Seconds)
--------------------------------------------------------------------------------
  Calculation of real space energy and derivatives                2.1440
  Calculation of many-body energy and derivatives                 1.1000
  Molecular dynamics - velocity correction                        0.0040
--------------------------------------------------------------------------------
  Total CPU time                                                  3.5040
--------------------------------------------------------------------------------


  Dump file written as Recovery_2_3000_0.01.res                                
  GULP ASCII trajectory file written as Trajectories_2_3000_0.01.trg            


  Job Finished at 17:40.36 17th May        2018                               

