********************************************************************************
*                       GENERAL UTILITY LATTICE PROGRAM                        *
*                                 Julian Gale                                  *
*                       Curtin Institute for Computation                       *
*                           Department of Chemistry                            *
*                    Curtin University, Western Australia                      *
********************************************************************************
* Version = 5.0.0 * Last modified =  18th April 2018                           *
********************************************************************************
*  single       - perform a single point run                                   *
*  md           - perform molecular dynamics run                               *
*  conv         - constant volume calculation                                  *
********************************************************************************
* molecular dynamics of silver                                                 *
********************************************************************************


  Job Started  at 17:41.58 17th May        2018                               

  Number of CPUs =     1


  Total number of configurations input =   1

********************************************************************************
*  Input for Configuration =   1                                               *
********************************************************************************

  Formula = Ag32                                                        

  Number of irreducible atoms/shells =      32


  Total number atoms/shells =      32

  Dimensionality = 3               :  Bulk   



  Supercell dimensions :  x =   2  y =   2  z =   2

  Cartesian lattice vectors (Angstroms) :

        8.170000    0.000000    0.000000
        0.000000    8.170000    0.000000
        0.000000    0.000000    8.170000

  Cell parameters (Angstroms/Degrees):

  a =       8.1700    alpha =  90.0000
  b =       8.1700    beta  =  90.0000
  c =       8.1700    gamma =  90.0000

  Initial cell volume =         545.338513 Angs**3

  Temperature of configuration =  3000.     K 

  Pressure of configuration =         0.000 GPa 

  Fractional coordinates of asymmetric unit :

--------------------------------------------------------------------------------
   No.  Atomic       x           y          z         Charge      Occupancy
        Label      (Frac)      (Frac)     (Frac)        (e)         (Frac)  
--------------------------------------------------------------------------------
      1 Ag    c    0.000000 *  0.000000 *  0.000000 *   0.00000    1.000000    
      2 Ag    c    0.000000 *  0.000000 *  0.500000 *   0.00000    1.000000    
      3 Ag    c    0.000000 *  0.500000 *  0.000000 *   0.00000    1.000000    
      4 Ag    c    0.000000 *  0.500000 *  0.500000 *   0.00000    1.000000    
      5 Ag    c    0.500000 *  0.000000 *  0.000000 *   0.00000    1.000000    
      6 Ag    c    0.500000 *  0.000000 *  0.500000 *   0.00000    1.000000    
      7 Ag    c    0.500000 *  0.500000 *  0.000000 *   0.00000    1.000000    
      8 Ag    c    0.500000 *  0.500000 *  0.500000 *   0.00000    1.000000    
      9 Ag    c    0.000000 *  0.250000 *  0.250000 *   0.00000    1.000000    
     10 Ag    c    0.000000 *  0.250000 *  0.750000 *   0.00000    1.000000    
     11 Ag    c    0.000000 *  0.750000 *  0.250000 *   0.00000    1.000000    
     12 Ag    c    0.000000 *  0.750000 *  0.750000 *   0.00000    1.000000    
     13 Ag    c    0.500000 *  0.250000 *  0.250000 *   0.00000    1.000000    
     14 Ag    c    0.500000 *  0.250000 *  0.750000 *   0.00000    1.000000    
     15 Ag    c    0.500000 *  0.750000 *  0.250000 *   0.00000    1.000000    
     16 Ag    c    0.500000 *  0.750000 *  0.750000 *   0.00000    1.000000    
     17 Ag    c    0.250000 *  0.000000 *  0.250000 *   0.00000    1.000000    
     18 Ag    c    0.250000 *  0.000000 *  0.750000 *   0.00000    1.000000    
     19 Ag    c    0.250000 *  0.500000 *  0.250000 *   0.00000    1.000000    
     20 Ag    c    0.250000 *  0.500000 *  0.750000 *   0.00000    1.000000    
     21 Ag    c    0.750000 *  0.000000 *  0.250000 *   0.00000    1.000000    
     22 Ag    c    0.750000 *  0.000000 *  0.750000 *   0.00000    1.000000    
     23 Ag    c    0.750000 *  0.500000 *  0.250000 *   0.00000    1.000000    
     24 Ag    c    0.750000 *  0.500000 *  0.750000 *   0.00000    1.000000    
     25 Ag    c    0.250000 *  0.250000 *  0.000000 *   0.00000    1.000000    
     26 Ag    c    0.250000 *  0.250000 *  0.500000 *   0.00000    1.000000    
     27 Ag    c    0.250000 *  0.750000 *  0.000000 *   0.00000    1.000000    
     28 Ag    c    0.250000 *  0.750000 *  0.500000 *   0.00000    1.000000    
     29 Ag    c    0.750000 *  0.250000 *  0.000000 *   0.00000    1.000000    
     30 Ag    c    0.750000 *  0.250000 *  0.500000 *   0.00000    1.000000    
     31 Ag    c    0.750000 *  0.750000 *  0.000000 *   0.00000    1.000000    
     32 Ag    c    0.750000 *  0.750000 *  0.500000 *   0.00000    1.000000    
--------------------------------------------------------------------------------



********************************************************************************
*  General input information                                                   *
********************************************************************************

  Species output for all configurations : 

--------------------------------------------------------------------------------
  Species    Type    Atomic    Atomic    Charge       Radii (Angs)     Library
                     Number     Mass       (e)     Cova   Ionic  VDW   Symbol
--------------------------------------------------------------------------------
    Ag       Core       47     107.87   0.000000   1.590  0.000  2.370          
--------------------------------------------------------------------------------


  Lattice summation method               =    Ewald          (3-D)
                                         =    Parry          (2-D)
                                         =    Saunders et al (1-D)
  Accuracy factor for lattice sums       =   12.000


  Time limit = Infinity

  Maximum range for interatomic potentials =    100000.000000 Angstroms

  General interatomic potentials :

--------------------------------------------------------------------------------
Atom  Types   Potential      Parameter       Value         Units   Cutoffs(Ang)
  1     2                                                            Min /  Max 
--------------------------------------------------------------------------------
Ag   c Ag   c Many-body                                             0.000  8.000
--------------------------------------------------------------------------------
Ag   c Ag   c Buckingham    Buckingham A     11454.950    eV        0.000 12.000
                            Buckingham rho  0.26432400    Ang       
                            Buckingham C     0.0000000    eV*Ang^6  
--------------------------------------------------------------------------------

  Embedded Atom Model Densities :

--------------------------------------------------------------------------------
  Atom(s)       Functional Form          A          B          C         n      
--------------------------------------------------------------------------------
  Ag   c        Exponential          1.388      2.173      2.889         0
--------------------------------------------------------------------------------


  Embedded Atom Model alloy parameters :

--------------------------------------------------------------------------------
  Atom(s)                          Scale factor 
--------------------------------------------------------------------------------
  Ag    c                            1.000000
--------------------------------------------------------------------------------

  Embedded Atom Model functional = Square Root

--------------------------------------------------------------------------------
  Atom                     A     
--------------------------------------------------------------------------------
  Ag    c               1.000000
--------------------------------------------------------------------------------


  Manybody second derivative cross term cutoffs to be scale by = 0.50000000

********************************************************************************
*  Output for configuration   1                                                *
********************************************************************************


  Components of energy : 

--------------------------------------------------------------------------------
  Interatomic potentials     =          39.71625760 eV    
  Many-body potentials       =        -134.45860512 eV    
  Monopole - monopole (real) =           0.00000000 eV    
  Monopole - monopole (recip)=           0.00000000 eV    
  Monopole - monopole (total)=           0.00000000 eV    
--------------------------------------------------------------------------------
  Total lattice energy       =         -94.74234752 eV    
--------------------------------------------------------------------------------
  Total lattice energy       =           -9141.1883 kJ/(mole unit cells)
--------------------------------------------------------------------------------

  Equations of motion will be integrated using the leapfrog Verlet algorithm.

********************************************************************************
*  Molecular Dynamics                                                          *
********************************************************************************

  Microcanonical ensemble (NVE) to be used

  No. of mobile ions        =                 32

  No. of degrees of freedom =                 93

  Time step                 =           0.003000 ps
  Equilibration time        =           5.000000 ps
  Production time           =          10.000000 ps
  Scaling time              =           5.001000 ps
  Scaling frequency         =           0.003000 ps
  Sampling frequency        =           0.021000 ps
  Write frequency           =           0.021000 ps
  TD-Force start time       =           0.000000 ps
  TD-Field start time       =           0.000000 ps



  Molecular dynamics equilibration :

  ** Time :            0.02100 ps :
     Properties:                   Instantaneous       Averaged
       Kinetic energy    (eV) =      11.660666         11.660666
       Potential energy  (eV) =     -92.735973        -92.735973
       Total energy      (eV) =     -81.075307        -81.075307
       Temperature       (K)  =    2910.027324       2910.027324
       Pressure         (GPa) =       5.108346          5.108346
  ** Time :            0.04200 ps :
     Properties:                   Instantaneous       Averaged
       Kinetic energy    (eV) =      11.308306         11.484486
       Potential energy  (eV) =     -84.844102        -88.790038
       Total energy      (eV) =     -73.535796        -77.305552
       Temperature       (K)  =    2822.092734       2866.060029
       Pressure         (GPa) =      14.772784          9.940565
  ** Time :            0.06300 ps :
     Properties:                   Instantaneous       Averaged
       Kinetic energy    (eV) =      12.029554         11.666175
       Potential energy  (eV) =     -80.567816        -86.049297
       Total energy      (eV) =     -68.538262        -74.383122
       Temperature       (K)  =    3002.086771       2911.402277
       Pressure         (GPa) =      20.325512         13.402214
  ** Time :            0.08400 ps :
     Properties:                   Instantaneous       Averaged
       Kinetic energy    (eV) =      11.906351         11.726219
       Potential energy  (eV) =     -80.829256        -84.744287
       Total energy      (eV) =     -68.922905        -73.018068
       Temperature       (K)  =    2971.340382       2926.386803
       Pressure         (GPa) =      20.097262         15.075976
  ** Time :            0.10500 ps :
     Properties:                   Instantaneous       Averaged
       Kinetic energy    (eV) =      11.927214         11.766418
       Potential energy  (eV) =     -79.455329        -83.686495
       Total energy      (eV) =     -67.528115        -71.920077
       Temperature       (K)  =    2976.546850       2936.418812
       Pressure         (GPa) =      21.612897         16.383360
  ** Time :            0.12600 ps :
     Properties:                   Instantaneous       Averaged
       Kinetic energy    (eV) =      11.827856         11.776658
       Potential energy  (eV) =     -78.099080        -82.755260
       Total energy      (eV) =     -66.271225        -70.978602
       Temperature       (K)  =    2951.751043       2938.974184
       Pressure         (GPa) =      23.464423         17.563537
  ** Time :            0.14700 ps :
     Properties:                   Instantaneous       Averaged
       Kinetic energy    (eV) =      11.933725         11.799096
       Potential energy  (eV) =     -75.731548        -81.751872
       Total energy      (eV) =     -63.797823        -69.952776
       Temperature       (K)  =    2978.171735       2944.573834
       Pressure         (GPa) =      25.790307         18.738790
  ** Time :            0.16800 ps :
     Properties:                   Instantaneous       Averaged
       Kinetic energy    (eV) =      12.244764         11.854804
       Potential energy  (eV) =     -77.956676        -81.277473
       Total energy      (eV) =     -65.711912        -69.422668
       Temperature       (K)  =    3055.794340       2958.476397
       Pressure         (GPa) =      23.612918         19.348056
  ** Time :            0.18900 ps :
     Properties:                   Instantaneous       Averaged
       Kinetic energy    (eV) =      12.011966         11.872267
       Potential energy  (eV) =     -79.907658        -81.125271
       Total energy      (eV) =     -67.895692        -69.253004
       Temperature       (K)  =    2997.697548       2962.834303
       Pressure         (GPa) =      21.401533         19.576220
  ** Time :            0.21000 ps :
     Properties:                   Instantaneous       Averaged
       Kinetic energy    (eV) =      11.957862         11.880826
       Potential energy  (eV) =     -79.412857        -80.954030
       Total energy      (eV) =     -67.454996        -69.073203
       Temperature       (K)  =    2984.195255       2964.970398
       Pressure         (GPa) =      21.667439         19.785342
  ** Time :            0.23100 ps :
     Properties:                   Instantaneous       Averaged
       Kinetic energy    (eV) =      12.047833         11.896009
       Potential energy  (eV) =     -79.587604        -80.829809
       Total energy      (eV) =     -67.539771        -68.933800
       Temperature       (K)  =    3006.648348       2968.759303
       Pressure         (GPa) =      21.429112         19.934776
  ** Time :            0.25200 ps :
     Properties:                   Instantaneous       Averaged
       Kinetic energy    (eV) =      12.021307         11.906450
       Potential energy  (eV) =     -80.403982        -80.794324
       Total energy      (eV) =     -68.382675        -68.887873
       Temperature       (K)  =    3000.028545       2971.365073
       Pressure         (GPa) =      20.647853         19.994199
  ** Time :            0.27300 ps :
     Properties:                   Instantaneous       Averaged
       Kinetic energy    (eV) =      11.996479         11.913376
       Potential energy  (eV) =     -80.134231        -80.743547
       Total energy      (eV) =     -68.137752        -68.830172
       Temperature       (K)  =    2993.832626       2973.093346
       Pressure         (GPa) =      20.717835         20.049863
  ** Time :            0.29400 ps :
     Properties:                   Instantaneous       Averaged
       Kinetic energy    (eV) =      11.945646         11.915681
       Potential energy  (eV) =     -80.556947        -80.730219
       Total energy      (eV) =     -68.611302        -68.814538
       Temperature       (K)  =    2981.146648       2973.668582
       Pressure         (GPa) =      20.640463         20.092049
  ** Time :            0.31500 ps :
     Properties:                   Instantaneous       Averaged
       Kinetic energy    (eV) =      11.696589         11.901074
       Potential energy  (eV) =     -77.601996        -80.521670
       Total energy      (eV) =     -65.905407        -68.620596
       Temperature       (K)  =    2918.992348       2970.023500
       Pressure         (GPa) =      23.976471         20.351010
  ** Time :            0.33600 ps :
     Properties:                   Instantaneous       Averaged
       Kinetic energy    (eV) =      12.174562         11.918167
       Potential energy  (eV) =     -76.973225        -80.299893
       Total energy      (eV) =     -64.798663        -68.381725
       Temperature       (K)  =    3038.274867       2974.289210
       Pressure         (GPa) =      24.807793         20.629559
  ** Time :            0.35700 ps :
     Properties:                   Instantaneous       Averaged
       Kinetic energy    (eV) =      11.834861         11.913267
       Potential energy  (eV) =     -77.501114        -80.135259
       Total energy      (eV) =     -65.666253        -68.221992
       Temperature       (K)  =    2953.499295       2973.066274
       Pressure         (GPa) =      23.938871         20.824225
  ** Time :            0.37800 ps :
     Properties:                   Instantaneous       Averaged
       Kinetic energy    (eV) =      12.133598         11.925508
       Potential energy  (eV) =     -77.197885        -79.972071
       Total energy      (eV) =     -65.064287        -68.046564
       Temperature       (K)  =    3028.052004       2976.121037
       Pressure         (GPa) =      24.203409         21.011957
  ** Time :            0.39900 ps :
     Properties:                   Instantaneous       Averaged
       Kinetic energy    (eV) =      11.958127         11.927225
       Potential energy  (eV) =     -78.721191        -79.906235
       Total energy      (eV) =     -66.763064        -67.979011
       Temperature       (K)  =    2984.261588       2976.549487
       Pressure         (GPa) =      23.112362         21.122505
  ** Time :            0.42000 ps :
     Properties:                   Instantaneous       Averaged
       Kinetic energy    (eV) =      11.949283         11.928327
       Potential energy  (eV) =     -77.241171        -79.772982
       Total energy      (eV) =     -65.291888        -67.844655
       Temperature       (K)  =    2982.054414       2976.824733
       Pressure         (GPa) =      24.441385         21.288449
  ** Time :            0.44100 ps :
     Properties:                   Instantaneous       Averaged
       Kinetic energy    (eV) =      12.094185         11.936225
       Potential energy  (eV) =     -78.435757        -79.709305
       Total energy      (eV) =     -66.341572        -67.773079
       Temperature       (K)  =    3018.215983       2978.795745
       Pressure         (GPa) =      22.551925         21.348614
  ** Time :            0.46200 ps :
     Properties:                   Instantaneous       Averaged
       Kinetic energy    (eV) =      12.021817         11.940116
       Potential energy  (eV) =     -79.568476        -79.702903
       Total energy      (eV) =     -67.546659        -67.762788
       Temperature       (K)  =    3000.155965       2979.766664
       Pressure         (GPa) =      21.162520         21.340156
  ** Time :            0.48300 ps :
     Properties:                   Instantaneous       Averaged
       Kinetic energy    (eV) =      11.908303         11.938733
       Potential energy  (eV) =     -78.655683        -79.657372
       Total energy      (eV) =     -66.747380        -67.718639
       Temperature       (K)  =    2971.827502       2979.421483
       Pressure         (GPa) =      22.390249         21.385812
  ** Time :            0.50400 ps :
     Properties:                   Instantaneous       Averaged
       Kinetic energy    (eV) =      12.115754         11.946109
       Potential energy  (eV) =     -78.786660        -79.621093
       Total energy      (eV) =     -66.670906        -67.674984
       Temperature       (K)  =    3023.598851       2981.262207
       Pressure         (GPa) =      22.290763         21.423518
  ** Time :            0.52500 ps :
     Properties:                   Instantaneous       Averaged
       Kinetic energy    (eV) =      11.967160         11.946951
       Potential energy  (eV) =     -80.096078        -79.640092
       Total energy      (eV) =     -68.128919        -67.693141
       Temperature       (K)  =    2986.515638       2981.472344
       Pressure         (GPa) =      21.011049         21.407019
  ** Time :            0.54600 ps :
     Properties:                   Instantaneous       Averaged
       Kinetic energy    (eV) =      11.988963         11.948567
       Potential energy  (eV) =     -79.387694        -79.630384
       Total energy      (eV) =     -67.398731        -67.681818
       Temperature       (K)  =    2991.956929       2981.875597
       Pressure         (GPa) =      22.080947         21.432940
  ** Time :            0.56700 ps :
     Properties:                   Instantaneous       Averaged
       Kinetic energy    (eV) =      12.031464         11.951637
       Potential energy  (eV) =     -79.856950        -79.638776
       Total energy      (eV) =     -67.825486        -67.687139
       Temperature       (K)  =    3002.563366       2982.641811
       Pressure         (GPa) =      21.631062         21.440277
  ** Time :            0.58800 ps :
     Properties:                   Instantaneous       Averaged
       Kinetic energy    (eV) =      12.020981         11.954113
       Potential energy  (eV) =     -80.281071        -79.661715
       Total energy      (eV) =     -68.260090        -67.707601
       Temperature       (K)  =    2999.947334       2983.259865
       Pressure         (GPa) =      20.874797         21.420082
  ** Time :            0.60900 ps :
     Properties:                   Instantaneous       Averaged
       Kinetic energy    (eV) =      11.998081         11.955630
       Potential energy  (eV) =     -80.748794        -79.699200
       Total energy      (eV) =     -68.750712        -67.743571
       Temperature       (K)  =    2994.232479       2983.638231
       Pressure         (GPa) =      20.430084         21.385944
  ** Time :            0.63000 ps :
     Properties:                   Instantaneous       Averaged
       Kinetic energy    (eV) =      11.890087         11.953445
       Potential energy  (eV) =     -79.365895        -79.688090
       Total energy      (eV) =     -67.475808        -67.734645
       Temperature       (K)  =    2967.281475       2983.093006
       Pressure         (GPa) =      21.918617         21.403700
  ** Time :            0.65100 ps :
     Properties:                   Instantaneous       Averaged
       Kinetic energy    (eV) =      12.109129         11.958467
       Potential energy  (eV) =     -80.073103        -79.700510
       Total energy      (eV) =     -67.963974        -67.742043
       Temperature       (K)  =    3021.945511       2984.346313
       Pressure         (GPa) =      21.760005         21.415193
  ** Time :            0.67200 ps :
     Properties:                   Instantaneous       Averaged
       Kinetic energy    (eV) =      12.064904         11.961793
       Potential energy  (eV) =     -82.232981        -79.779650
       Total energy      (eV) =     -70.168076        -67.817857
       Temperature       (K)  =    3010.908770       2985.176390
       Pressure         (GPa) =      19.419582         21.352831
  ** Time :            0.69300 ps :
     Properties:                   Instantaneous       Averaged
       Kinetic energy    (eV) =      11.919484         11.960511
       Potential energy  (eV) =     -81.582752        -79.834289
       Total energy      (eV) =     -69.663268        -67.873778
       Temperature       (K)  =    2974.617827       2984.856433
       Pressure         (GPa) =      19.631927         21.300682
  ** Time :            0.71400 ps :
     Properties:                   Instantaneous       Averaged
       Kinetic energy    (eV) =      11.880235         11.958150
       Potential energy  (eV) =     -80.401392        -79.850969
       Total energy      (eV) =     -68.521158        -67.892819
       Temperature       (K)  =    2964.822762       2984.267208
       Pressure         (GPa) =      21.024485         21.292558
  ** Time :            0.73500 ps :
     Properties:                   Instantaneous       Averaged
       Kinetic energy    (eV) =      11.980301         11.958783
       Potential energy  (eV) =     -79.196707        -79.832275
       Total energy      (eV) =     -67.216406        -67.873493
       Temperature       (K)  =    2989.795302       2984.425153
       Pressure         (GPa) =      22.484354         21.326610
  ** Time :            0.75600 ps :
     Properties:                   Instantaneous       Averaged
       Kinetic energy    (eV) =      12.114618         11.963112
       Potential energy  (eV) =     -80.578254        -79.852997
       Total energy      (eV) =     -68.463636        -67.889885
       Temperature       (K)  =    3023.315292       2985.505435
       Pressure         (GPa) =      20.983050         21.317066
  ** Time :            0.77700 ps :
     Properties:                   Instantaneous       Averaged
       Kinetic energy    (eV) =      11.850810         11.960076
       Potential energy  (eV) =     -80.175060        -79.861701
       Total energy      (eV) =     -68.324249        -67.901625
       Temperature       (K)  =    2957.479631       2984.747981
       Pressure         (GPa) =      21.245307         21.315127
  ** Time :            0.79800 ps :
     Properties:                   Instantaneous       Averaged
       Kinetic energy    (eV) =      11.986225         11.960765
       Potential energy  (eV) =     -78.589332        -79.828218
       Total energy      (eV) =     -66.603107        -67.867453
       Temperature       (K)  =    2991.273693       2984.919710
       Pressure         (GPa) =      23.099898         21.362095
  ** Time :            0.81900 ps :
     Properties:                   Instantaneous       Averaged
       Kinetic energy    (eV) =      12.117736         11.964789
       Potential energy  (eV) =     -80.160812        -79.836746
       Total energy      (eV) =     -68.043076        -67.871957
       Temperature       (K)  =    3024.093410       2985.924164
       Pressure         (GPa) =      21.226767         21.358625
  ** Time :            0.84000 ps :
     Properties:                   Instantaneous       Averaged
       Kinetic energy    (eV) =      11.984401         11.965280
       Potential energy  (eV) =     -80.616406        -79.856238
       Total energy      (eV) =     -68.632006        -67.890958
       Temperature       (K)  =    2990.818297       2986.046517
       Pressure         (GPa) =      20.321893         21.332706
  ** Time :            0.86100 ps :
     Properties:                   Instantaneous       Averaged
       Kinetic energy    (eV) =      11.928451         11.964381
       Potential energy  (eV) =     -79.982289        -79.859312
       Total energy      (eV) =     -68.053837        -67.894931
       Temperature       (K)  =    2976.855679       2985.822350
       Pressure         (GPa) =      21.156320         21.328404
  ** Time :            0.88200 ps :
     Properties:                   Instantaneous       Averaged
       Kinetic energy    (eV) =      12.114609         11.967958
       Potential energy  (eV) =     -80.331387        -79.870552
       Total energy      (eV) =     -68.216778        -67.902594
       Temperature       (K)  =    3023.313031       2986.714985
       Pressure         (GPa) =      21.057911         21.321964
  ** Time :            0.90300 ps :
     Properties:                   Instantaneous       Averaged
       Kinetic energy    (eV) =      12.002938         11.968772
       Potential energy  (eV) =     -81.766919        -79.914653
       Total energy      (eV) =     -69.763981        -67.945882
       Temperature       (K)  =    2995.444479       2986.917997
       Pressure         (GPa) =      19.429210         21.277946
  ** Time :            0.92400 ps :
     Properties:                   Instantaneous       Averaged
       Kinetic energy    (eV) =      11.776260         11.964397
       Potential energy  (eV) =     -79.763611        -79.911221
       Total energy      (eV) =     -67.987351        -67.946824
       Temperature       (K)  =    2938.874970       2985.826110
       Pressure         (GPa) =      21.124958         21.274469
  ** Time :            0.94500 ps :
     Properties:                   Instantaneous       Averaged
       Kinetic energy    (eV) =      11.953805         11.964161
       Potential energy  (eV) =     -78.093537        -79.870828
       Total energy      (eV) =     -66.139733        -67.906667
       Temperature       (K)  =    2983.182807       2985.767370
       Pressure         (GPa) =      23.103475         21.315114
  ** Time :            0.96600 ps :
     Properties:                   Instantaneous       Averaged
       Kinetic energy    (eV) =      11.949636         11.963845
       Potential energy  (eV) =     -77.886509        -79.827690
       Total energy      (eV) =     -65.936873        -67.863845
       Temperature       (K)  =    2982.142478       2985.688568
       Pressure         (GPa) =      23.943408         21.372251
  ** Time :            0.98700 ps :
     Properties:                   Instantaneous       Averaged
       Kinetic energy    (eV) =      11.895075         11.962382
       Potential energy  (eV) =     -75.995274        -79.746150
       Total energy      (eV) =     -64.100199        -67.783767
       Temperature       (K)  =    2968.526272       2985.323413
       Pressure         (GPa) =      26.023272         21.471209
  ** Time :            1.00800 ps :
     Properties:                   Instantaneous       Averaged
       Kinetic energy    (eV) =      12.120830         11.965683
       Potential energy  (eV) =     -77.024472        -79.689448
       Total energy      (eV) =     -64.903642        -67.723765
       Temperature       (K)  =    3024.865562       2986.147207
       Pressure         (GPa) =      25.031715         21.545386
  ** Time :            1.02900 ps :
     Properties:                   Instantaneous       Averaged
       Kinetic energy    (eV) =      11.920710         11.964765
       Potential energy  (eV) =     -77.454645        -79.643840
       Total energy      (eV) =     -65.533936        -67.679074
       Temperature       (K)  =    2974.923624       2985.918155
       Pressure         (GPa) =      24.742879         21.610641
  ** Time :            1.05000 ps :
     Properties:                   Instantaneous       Averaged
       Kinetic energy    (eV) =      12.168327         11.968837
       Potential energy  (eV) =     -78.378899        -79.618541
       Total energy      (eV) =     -66.210572        -67.649704
       Temperature       (K)  =    3036.718948       2986.934171
       Pressure         (GPa) =      23.871432         21.655857
  ** Time :            1.07100 ps :
     Properties:                   Instantaneous       Averaged
       Kinetic energy    (eV) =      12.062852         11.970680
       Potential energy  (eV) =     -79.697592        -79.620091
       Total energy      (eV) =     -67.634740        -67.649411
       Temperature       (K)  =    3010.396615       2987.394219
       Pressure         (GPa) =      22.023067         21.663057
  ** Time :            1.09200 ps :
     Properties:                   Instantaneous       Averaged
       Kinetic energy    (eV) =      11.805029         11.967494
       Potential energy  (eV) =     -79.140103        -79.610860
       Total energy      (eV) =     -67.335074        -67.643366
       Temperature       (K)  =    2946.054352       2986.599221
       Pressure         (GPa) =      22.403362         21.677294
  ** Time :            1.11300 ps :
     Properties:                   Instantaneous       Averaged
       Kinetic energy    (eV) =      11.966435         11.967474
       Potential energy  (eV) =     -77.003397        -79.561663
       Total energy      (eV) =     -65.036962        -67.594189
       Temperature       (K)  =    2986.334786       2986.594232
       Pressure         (GPa) =      24.332499         21.727392
  ** Time :            1.13400 ps :
     Properties:                   Instantaneous       Averaged
       Kinetic energy    (eV) =      12.142106         11.970708
       Potential energy  (eV) =     -78.748710        -79.546608
       Total energy      (eV) =     -66.606605        -67.575900
       Temperature       (K)  =    3030.175063       2987.401284
       Pressure         (GPa) =      22.449577         21.740766
  ** Time :            1.15500 ps :
     Properties:                   Instantaneous       Averaged
       Kinetic energy    (eV) =      11.944199         11.970226
       Potential energy  (eV) =     -79.892935        -79.552905
       Total energy      (eV) =     -67.948736        -67.582679
       Temperature       (K)  =    2980.785652       2987.281000
       Pressure         (GPa) =      21.427236         21.735065
  ** Time :            1.17600 ps :
     Properties:                   Instantaneous       Averaged
       Kinetic energy    (eV) =      11.959922         11.970042
       Potential energy  (eV) =     -78.273449        -79.530058
       Total energy      (eV) =     -66.313527        -67.560015
       Temperature       (K)  =    2984.709372       2987.235078
       Pressure         (GPa) =      23.104043         21.759511
  ** Time :            1.19700 ps :
     Properties:                   Instantaneous       Averaged
       Kinetic energy    (eV) =      12.259258         11.975116
       Potential energy  (eV) =     -81.235213        -79.559973
       Total energy      (eV) =     -68.975955        -67.584856
       Temperature       (K)  =    3059.411484       2988.501331
       Pressure         (GPa) =      20.362014         21.734994
  ** Time :            1.21800 ps :
     Properties:                   Instantaneous       Averaged
       Kinetic energy    (eV) =      11.855599         11.973056
       Potential energy  (eV) =     -81.907080        -79.600440
       Total energy      (eV) =     -70.051481        -67.627384
       Temperature       (K)  =    2958.674592       2987.987077
       Pressure         (GPa) =      19.713983         21.700149
  ** Time :            1.23900 ps :
     Properties:                   Instantaneous       Averaged
       Kinetic energy    (eV) =      11.765252         11.969534
       Potential energy  (eV) =     -78.834950        -79.587466
       Total energy      (eV) =     -67.069698        -67.617932
       Temperature       (K)  =    2936.127691       2987.108104
       Pressure         (GPa) =      22.829089         21.719283
  ** Time :            1.26000 ps :
     Properties:                   Instantaneous       Averaged
       Kinetic energy    (eV) =      12.038824         11.970688
       Potential energy  (eV) =     -77.654875        -79.555256
       Total energy      (eV) =     -65.616051        -67.584567
       Temperature       (K)  =    3004.400119       2987.396304
       Pressure         (GPa) =      24.005092         21.757380
  ** Time :            1.28100 ps :
     Properties:                   Instantaneous       Averaged
       Kinetic energy    (eV) =      12.015422         11.971422
       Potential energy  (eV) =     -78.201909        -79.533070
       Total energy      (eV) =     -66.186487        -67.561648
       Temperature       (K)  =    2998.560015       2987.579316
       Pressure         (GPa) =      23.517466         21.786234
  ** Time :            1.30200 ps :
     Properties:                   Instantaneous       Averaged
       Kinetic energy    (eV) =      12.113072         11.973706
       Potential energy  (eV) =     -79.274548        -79.528900
       Total energy      (eV) =     -67.161475        -67.555194
       Temperature       (K)  =    3022.929538       2988.149481
       Pressure         (GPa) =      22.708405         21.801108
  ** Time :            1.32300 ps :
     Properties:                   Instantaneous       Averaged
       Kinetic energy    (eV) =      12.099854         11.975709
       Potential energy  (eV) =     -81.063767        -79.553263
       Total energy      (eV) =     -68.963913        -67.577554
       Temperature       (K)  =    3019.630805       2988.649184
       Pressure         (GPa) =      20.783866         21.784961
  ** Time :            1.34400 ps :
     Properties:                   Instantaneous       Averaged
       Kinetic energy    (eV) =      11.990312         11.975937
       Potential energy  (eV) =     -81.409341        -79.582264
       Total energy      (eV) =     -69.419029        -67.606327
       Temperature       (K)  =    2992.293641       2988.706129
       Pressure         (GPa) =      19.853282         21.754778
  ** Time :            1.36500 ps :
     Properties:                   Instantaneous       Averaged
       Kinetic energy    (eV) =      11.926546         11.975177
       Potential energy  (eV) =     -81.489946        -79.611613
       Total energy      (eV) =     -69.563399        -67.636436
       Temperature       (K)  =    2976.380277       2988.516500
       Pressure         (GPa) =      19.585777         21.721409
  ** Time :            1.38600 ps :
     Properties:                   Instantaneous       Averaged
       Kinetic energy    (eV) =      11.841253         11.973148
       Potential energy  (eV) =     -79.358561        -79.607779
       Total energy      (eV) =     -67.517308        -67.634631
       Temperature       (K)  =    2955.094410       2988.010105
       Pressure         (GPa) =      22.136207         21.727694
  ** Time :            1.40700 ps :
     Properties:                   Instantaneous       Averaged
       Kinetic energy    (eV) =      11.918617         11.972334
       Potential energy  (eV) =     -78.028140        -79.584202
       Total energy      (eV) =     -66.109523        -67.611868
       Temperature       (K)  =    2974.401327       2987.806989
       Pressure         (GPa) =      24.133509         21.763602
  ** Time :            1.42800 ps :
     Properties:                   Instantaneous       Averaged
       Kinetic energy    (eV) =      11.798497         11.969778
       Potential energy  (eV) =     -75.997772        -79.531461
       Total energy      (eV) =     -64.199276        -67.561683
       Temperature       (K)  =    2944.424284       2987.169008
       Pressure         (GPa) =      26.547267         21.833950
  ** Time :            1.44900 ps :
     Properties:                   Instantaneous       Averaged
       Kinetic energy    (eV) =      12.149245         11.972379
       Potential energy  (eV) =     -76.019819        -79.480567
       Total energy      (eV) =     -63.870573        -67.508189
       Temperature       (K)  =    3031.956832       2987.818107
       Pressure         (GPa) =      26.759331         21.905332
  ** Time :            1.47000 ps :
     Properties:                   Instantaneous       Averaged
       Kinetic energy    (eV) =      11.963056         11.972245
       Potential energy  (eV) =     -77.166765        -79.447513
       Total energy      (eV) =     -65.203710        -67.475268
       Temperature       (K)  =    2985.491456       2987.784869
       Pressure         (GPa) =      25.479118         21.956386
  ** Time :            1.49100 ps :
     Properties:                   Instantaneous       Averaged
       Kinetic energy    (eV) =      11.863681         11.970716
       Potential energy  (eV) =     -75.611235        -79.393481
       Total energy      (eV) =     -63.747554        -67.422765
       Temperature       (K)  =    2960.691654       2987.403275
       Pressure         (GPa) =      26.658105         22.022607
  ** Time :            1.51200 ps :
     Properties:                   Instantaneous       Averaged
       Kinetic energy    (eV) =      12.066077         11.972041
       Potential energy  (eV) =     -75.060623        -79.333302
       Total energy      (eV) =     -62.994546        -67.361262
       Temperature       (K)  =    3011.201348       2987.733803
       Pressure         (GPa) =      26.978803         22.091444
  ** Time :            1.53300 ps :
     Properties:                   Instantaneous       Averaged
       Kinetic energy    (eV) =      12.207138         11.975261
       Potential energy  (eV) =     -77.112764        -79.302884
       Total energy      (eV) =     -64.905626        -67.327623
       Temperature       (K)  =    3046.404587       2988.537513
       Pressure         (GPa) =      24.643154         22.126398
  ** Time :            1.55400 ps :
     Properties:                   Instantaneous       Averaged
       Kinetic energy    (eV) =      11.944424         11.974845
       Potential energy  (eV) =     -78.681754        -79.294490
       Total energy      (eV) =     -66.737329        -67.319646
       Temperature       (K)  =    2980.841814       2988.433517
       Pressure         (GPa) =      23.009059         22.138326
  ** Time :            1.57500 ps :
     Properties:                   Instantaneous       Averaged
       Kinetic energy    (eV) =      12.065267         11.976050
       Potential energy  (eV) =     -78.126640        -79.278919
       Total energy      (eV) =     -66.061372        -67.302869
       Temperature       (K)  =    3010.999352       2988.734395
       Pressure         (GPa) =      23.487712         22.156318
  ** Time :            1.59600 ps :
     Properties:                   Instantaneous       Averaged
       Kinetic energy    (eV) =      12.087892         11.977522
       Potential energy  (eV) =     -79.687939        -79.284301
       Total energy      (eV) =     -67.600047        -67.306779
       Temperature       (K)  =    3016.645537       2989.101646
       Pressure         (GPa) =      21.732139         22.150737
  ** Time :            1.61700 ps :
     Properties:                   Instantaneous       Averaged
       Kinetic energy    (eV) =      11.976562         11.977509
       Potential energy  (eV) =     -80.197230        -79.296157
       Total energy      (eV) =     -68.220668        -67.318648
       Temperature       (K)  =    2988.862113       2989.098536
       Pressure         (GPa) =      21.020394         22.136057
  ** Time :            1.63800 ps :
     Properties:                   Instantaneous       Averaged
       Kinetic energy    (eV) =      11.911338         11.976661
       Potential energy  (eV) =     -78.927915        -79.291436
       Total energy      (eV) =     -67.016577        -67.314775
       Temperature       (K)  =    2972.584912       2988.886823
       Pressure         (GPa) =      22.578831         22.141734
  ** Time :            1.65900 ps :
     Properties:                   Instantaneous       Averaged
       Kinetic energy    (eV) =      11.894869         11.975626
       Potential energy  (eV) =     -78.340517        -79.279399
       Total energy      (eV) =     -66.445647        -67.303774
       Temperature       (K)  =    2968.474885       2988.628444
       Pressure         (GPa) =      23.816969         22.162939
  ** Time :            1.68000 ps :
     Properties:                   Instantaneous       Averaged
       Kinetic energy    (eV) =      12.090516         11.977062
       Potential energy  (eV) =     -77.181119        -79.253171
       Total energy      (eV) =     -65.090602        -67.276109
       Temperature       (K)  =    3017.300479       2988.986844
       Pressure         (GPa) =      24.893437         22.197070
  ** Time :            1.70100 ps :
     Properties:                   Instantaneous       Averaged
       Kinetic energy    (eV) =      12.059618         11.978081
       Potential energy  (eV) =     -79.218862        -79.252747
       Total energy      (eV) =     -67.159244        -67.274666
       Temperature       (K)  =    3009.589485       2989.241198
       Pressure         (GPa) =      22.355020         22.199020
  ** Time :            1.72200 ps :
     Properties:                   Instantaneous       Averaged
       Kinetic energy    (eV) =      11.982842         11.978139
       Potential energy  (eV) =     -79.472885        -79.255432
       Total energy      (eV) =     -67.490043        -67.277293
       Temperature       (K)  =    2990.429383       2989.255688
       Pressure         (GPa) =      21.918291         22.195597
  ** Time :            1.74300 ps :
     Properties:                   Instantaneous       Averaged
       Kinetic energy    (eV) =      11.960137         11.977922
       Potential energy  (eV) =     -79.446997        -79.257740
       Total energy      (eV) =     -67.486859        -67.279818
       Temperature       (K)  =    2984.763209       2989.201561
       Pressure         (GPa) =      22.338359         22.197317
  ** Time :            1.76400 ps :
     Properties:                   Instantaneous       Averaged
       Kinetic energy    (eV) =      12.070047         11.979019
       Potential energy  (eV) =     -79.108819        -79.255967
       Total energy      (eV) =     -67.038771        -67.276948
       Temperature       (K)  =    3012.192233       2989.475260
       Pressure         (GPa) =      22.570361         22.201758
  ** Time :            1.78500 ps :
     Properties:                   Instantaneous       Averaged
       Kinetic energy    (eV) =      12.086391         11.980282
       Potential energy  (eV) =     -80.631381        -79.272148
       Total energy      (eV) =     -68.544989        -67.291866
       Temperature       (K)  =    3016.271076       2989.790505
       Pressure         (GPa) =      20.746711         22.184640
  ** Time :            1.80600 ps :
     Properties:                   Instantaneous       Averaged
       Kinetic energy    (eV) =      12.061737         11.981229
       Potential energy  (eV) =     -82.447984        -79.309077
       Total energy      (eV) =     -70.386247        -67.327847
       Temperature       (K)  =    3010.118398       2990.026876
       Pressure         (GPa) =      18.595273         22.142903
  ** Time :            1.82700 ps :
     Properties:                   Instantaneous       Averaged
       Kinetic energy    (eV) =      11.881708         11.980085
       Potential energy  (eV) =     -81.814304        -79.337872
       Total energy      (eV) =     -69.932596        -67.357787
       Temperature       (K)  =    2965.190542       2989.741401
       Pressure         (GPa) =      18.977271         22.106516
  ** Time :            1.84800 ps :
     Properties:                   Instantaneous       Averaged
       Kinetic energy    (eV) =      11.983424         11.980123
       Potential energy  (eV) =     -80.851710        -79.355075
       Total energy      (eV) =     -68.868285        -67.374952
       Temperature       (K)  =    2990.574641       2989.750869
       Pressure         (GPa) =      20.120569         22.083949
  ** Time :            1.86900 ps :
     Properties:                   Instantaneous       Averaged
       Kinetic energy    (eV) =      11.929100         11.979550
       Potential energy  (eV) =     -80.446712        -79.367341
       Total energy      (eV) =     -68.517612        -67.387791
       Temperature       (K)  =    2977.017513       2989.607798
       Pressure         (GPa) =      21.106551         22.072967
  ** Time :            1.89000 ps :
     Properties:                   Instantaneous       Averaged
       Kinetic energy    (eV) =      12.023844         11.980042
       Potential energy  (eV) =     -80.124975        -79.375759
       Total energy      (eV) =     -68.101132        -67.395717
       Temperature       (K)  =    3000.661726       2989.730619
       Pressure         (GPa) =      21.890984         22.070945
  ** Time :            1.91100 ps :
     Properties:                   Instantaneous       Averaged
       Kinetic energy    (eV) =      12.151539         11.981927
       Potential energy  (eV) =     -81.184419        -79.395634
       Total energy      (eV) =     -69.032880        -67.413707
       Temperature       (K)  =    3032.529241       2990.200934
       Pressure         (GPa) =      20.500682         22.053689
  ** Time :            1.93200 ps :
     Properties:                   Instantaneous       Averaged
       Kinetic energy    (eV) =      12.089822         11.983099
       Potential energy  (eV) =     -83.428031        -79.439464
       Total energy      (eV) =     -71.338209        -67.456365
       Temperature       (K)  =    3017.127098       2990.493609
       Pressure         (GPa) =      17.612925         22.005420
  ** Time :            1.95300 ps :
     Properties:                   Instantaneous       Averaged
       Kinetic energy    (eV) =      11.861722         11.981794
       Potential energy  (eV) =     -82.931695        -79.477015
       Total energy      (eV) =     -71.069974        -67.495221
       Temperature       (K)  =    2960.202682       2990.167901
       Pressure         (GPa) =      17.733650         21.959487
  ** Time :            1.97400 ps :
     Properties:                   Instantaneous       Averaged
       Kinetic energy    (eV) =      11.881512         11.980728
       Potential energy  (eV) =     -80.624872        -79.489227
       Total energy      (eV) =     -68.743360        -67.508499
       Temperature       (K)  =    2965.141438       2989.901662
       Pressure         (GPa) =      20.479493         21.943742
  ** Time :            1.99500 ps :
     Properties:                   Instantaneous       Averaged
       Kinetic energy    (eV) =      11.929331         11.980187
       Potential energy  (eV) =     -79.699543        -79.491440
       Total energy      (eV) =     -67.770212        -67.511254
       Temperature       (K)  =    2977.075288       2989.766647
       Pressure         (GPa) =      22.119106         21.945588
  ** Time :            2.01600 ps :
     Properties:                   Instantaneous       Averaged
       Kinetic energy    (eV) =      11.937520         11.979742
       Potential energy  (eV) =     -78.791153        -79.484146
       Total energy      (eV) =     -66.853633        -67.504404
       Temperature       (K)  =    2979.118864       2989.655733
       Pressure         (GPa) =      23.467721         21.961444
  ** Time :            2.03700 ps :
     Properties:                   Instantaneous       Averaged
       Kinetic energy    (eV) =      11.986732         11.979814
       Potential energy  (eV) =     -78.314442        -79.472087
       Total energy      (eV) =     -66.327709        -67.492273
       Temperature       (K)  =    2991.400173       2989.673717
       Pressure         (GPa) =      24.083206         21.983318
  ** Time :            2.05800 ps :
     Properties:                   Instantaneous       Averaged
       Kinetic energy    (eV) =      12.017338         11.980197
       Potential energy  (eV) =     -78.876357        -79.466008
       Total energy      (eV) =     -66.859020        -67.485811
       Temperature       (K)  =    2999.038075       2989.769271
       Pressure         (GPa) =      23.347990         21.997243
  ** Time :            2.07900 ps :
     Properties:                   Instantaneous       Averaged
       Kinetic energy    (eV) =      11.962225         11.980015
       Potential energy  (eV) =     -78.468680        -79.455934
       Total energy      (eV) =     -66.506455        -67.475919
       Temperature       (K)  =    2985.284183       2989.723967
       Pressure         (GPa) =      23.519193         22.012616
  ** Time :            2.10000 ps :
     Properties:                   Instantaneous       Averaged
       Kinetic energy    (eV) =      11.900947         11.979225
       Potential energy  (eV) =     -78.004326        -79.441418
       Total energy      (eV) =     -66.103378        -67.462193
       Temperature       (K)  =    2969.991771       2989.526645
       Pressure         (GPa) =      23.733447         22.029824
  ** Time :            2.12100 ps :
     Properties:                   Instantaneous       Averaged
       Kinetic energy    (eV) =      11.870117         11.978145
       Potential energy  (eV) =     -75.890667        -79.406262
       Total energy      (eV) =     -64.020550        -67.428118
       Temperature       (K)  =    2962.297814       2989.257053
       Pressure         (GPa) =      25.986316         22.068998
  ** Time :            2.14200 ps :
     Properties:                   Instantaneous       Averaged
       Kinetic energy    (eV) =      11.969718         11.978062
       Potential energy  (eV) =     -75.390299        -79.366890
       Total energy      (eV) =     -63.420581        -67.388828
       Temperature       (K)  =    2987.154059       2989.236435
       Pressure         (GPa) =      26.641676         22.113828
  ** Time :            2.16300 ps :
     Properties:                   Instantaneous       Averaged
       Kinetic energy    (eV) =      12.298470         11.981173
       Potential energy  (eV) =     -77.182939        -79.345686
       Total energy      (eV) =     -64.884469        -67.364514
       Temperature       (K)  =    3069.197121       2990.012753
       Pressure         (GPa) =      24.429556         22.136311
  ** Time :            2.18400 ps :
     Properties:                   Instantaneous       Averaged
       Kinetic energy    (eV) =      12.146111         11.982759
       Potential energy  (eV) =     -81.404339        -79.365481
       Total energy      (eV) =     -69.258227        -67.382723
       Temperature       (K)  =    3031.174745       2990.408541
       Pressure         (GPa) =      19.926392         22.115061
  ** Time :            2.20500 ps :
     Properties:                   Instantaneous       Averaged
       Kinetic energy    (eV) =      11.905717         11.982025
       Potential energy  (eV) =     -81.082487        -79.381834
       Total energy      (eV) =     -69.176770        -67.399809
       Temperature       (K)  =    2971.182131       2990.225432
       Pressure         (GPa) =      20.029958         22.095203
  ** Time :            2.22600 ps :
     Properties:                   Instantaneous       Averaged
       Kinetic energy    (eV) =      11.855239         11.980829
       Potential energy  (eV) =     -79.462042        -79.382590
       Total energy      (eV) =     -67.606804        -67.401762
       Temperature       (K)  =    2958.584819       2989.926936
       Pressure         (GPa) =      22.090074         22.095155
  ** Time :            2.24700 ps :
     Properties:                   Instantaneous       Averaged
       Kinetic energy    (eV) =      12.003091         11.981037
       Potential energy  (eV) =     -78.440915        -79.373790
       Total energy      (eV) =     -66.437823        -67.392753
       Temperature       (K)  =    2995.482798       2989.978860
       Pressure         (GPa) =      23.508413         22.108363
  ** Time :            2.26800 ps :
     Properties:                   Instantaneous       Averaged
       Kinetic energy    (eV) =      11.932403         11.980587
       Potential energy  (eV) =     -78.396174        -79.364738
       Total energy      (eV) =     -66.463771        -67.384151
       Temperature       (K)  =    2977.841737       2989.866479
       Pressure         (GPa) =      23.355361         22.119909
  ** Time :            2.28900 ps :
     Properties:                   Instantaneous       Averaged
       Kinetic energy    (eV) =      12.214950         11.982737
       Potential energy  (eV) =     -79.740071        -79.368181
       Total energy      (eV) =     -67.525121        -67.385444
       Temperature       (K)  =    3048.353970       2990.403062
       Pressure         (GPa) =      21.858466         22.117511
  ** Time :            2.31000 ps :
     Properties:                   Instantaneous       Averaged
       Kinetic energy    (eV) =      11.842292         11.981460
       Potential energy  (eV) =     -80.179205        -79.375554
       Total energy      (eV) =     -68.336913        -67.394094
       Temperature       (K)  =    2955.353850       2990.084433
       Pressure         (GPa) =      21.328374         22.110337
  ** Time :            2.33100 ps :
     Properties:                   Instantaneous       Averaged
       Kinetic energy    (eV) =      11.899455         11.980721
       Potential energy  (eV) =     -77.839128        -79.361712
       Total energy      (eV) =     -65.939673        -67.380991
       Temperature       (K)  =    2969.619466       2989.900064
       Pressure         (GPa) =      23.766593         22.125258
  ** Time :            2.35200 ps :
     Properties:                   Instantaneous       Averaged
       Kinetic energy    (eV) =      12.071500         11.981532
       Potential energy  (eV) =     -77.957231        -79.349172
       Total energy      (eV) =     -65.885731        -67.367641
       Temperature       (K)  =    3012.554747       2990.102337
       Pressure         (GPa) =      23.907802         22.141173
  ** Time :            2.37300 ps :
     Properties:                   Instantaneous       Averaged
       Kinetic energy    (eV) =      11.869225         11.980538
       Potential energy  (eV) =     -78.037240        -79.337562
       Total energy      (eV) =     -66.168015        -67.357024
       Temperature       (K)  =    2962.075286       2989.854310
       Pressure         (GPa) =      23.833574         22.156150
  ** Time :            2.39400 ps :
     Properties:                   Instantaneous       Averaged
       Kinetic energy    (eV) =      12.191879         11.982392
       Potential energy  (eV) =     -77.845927        -79.324478
       Total energy      (eV) =     -65.654048        -67.342086
       Temperature       (K)  =    3042.596421       2990.316961
       Pressure         (GPa) =      23.669268         22.169423
  ** Time :            2.41500 ps :
     Properties:                   Instantaneous       Averaged
       Kinetic energy    (eV) =      12.184420         11.984148
       Potential energy  (eV) =     -80.351931        -79.333412
       Total energy      (eV) =     -68.167510        -67.349264
       Temperature       (K)  =    3040.735129       2990.755379
       Pressure         (GPa) =      20.703097         22.156673
  ** Time :            2.43600 ps :
     Properties:                   Instantaneous       Averaged
       Kinetic energy    (eV) =      12.035736         11.984593
       Potential energy  (eV) =     -82.624748        -79.361786
       Total energy      (eV) =     -70.589012        -67.377193
       Temperature       (K)  =    3003.629640       2990.866364
       Pressure         (GPa) =      18.575849         22.125803
  ** Time :            2.45700 ps :
     Properties:                   Instantaneous       Averaged
       Kinetic energy    (eV) =      11.868609         11.983602
       Potential energy  (eV) =     -81.713160        -79.381883
       Total energy      (eV) =     -69.844551        -67.398281
       Temperature       (K)  =    2961.921492       2990.618972
       Pressure         (GPa) =      19.739062         22.105404
  ** Time :            2.47800 ps :
     Properties:                   Instantaneous       Averaged
       Kinetic energy    (eV) =      12.118883         11.984748
       Potential energy  (eV) =     -81.125335        -79.396658
       Total energy      (eV) =     -69.006452        -67.411910
       Temperature       (K)  =    3024.379645       2990.905080
       Pressure         (GPa) =      20.354723         22.090568
  ** Time :            2.49900 ps :
     Properties:                   Instantaneous       Averaged
       Kinetic energy    (eV) =      11.919097         11.984197
       Potential energy  (eV) =     -82.202147        -79.420233
       Total energy      (eV) =     -70.283050        -67.436037
       Temperature       (K)  =    2974.521218       2990.767400
       Pressure         (GPa) =      19.143046         22.065799
  ** Time :            2.52000 ps :
     Properties:                   Instantaneous       Averaged
       Kinetic energy    (eV) =      11.891455         11.983424
       Potential energy  (eV) =     -80.168619        -79.426470
       Total energy      (eV) =     -68.277164        -67.443046
       Temperature       (K)  =    2967.622963       2990.574530
       Pressure         (GPa) =      21.145829         22.058132
  ** Time :            2.54100 ps :
     Properties:                   Instantaneous       Averaged
       Kinetic energy    (eV) =      11.856748         11.982377
       Potential energy  (eV) =     -78.434697        -79.418274
       Total energy      (eV) =     -66.577949        -67.435897
       Temperature       (K)  =    2958.961491       2990.313265
       Pressure         (GPa) =      23.208411         22.067639
  ** Time :            2.56200 ps :
     Properties:                   Instantaneous       Averaged
       Kinetic energy    (eV) =      12.153709         11.983781
       Potential energy  (eV) =     -79.476837        -79.418754
       Total energy      (eV) =     -67.323129        -67.434972
       Temperature       (K)  =    3033.070704       2990.663736
       Pressure         (GPa) =      22.389432         22.070276
  ** Time :            2.58300 ps :
     Properties:                   Instantaneous       Averaged
       Kinetic energy    (eV) =      11.902495         11.983120
       Potential energy  (eV) =     -79.722240        -79.421221
       Total energy      (eV) =     -67.819746        -67.438101
       Temperature       (K)  =    2970.377907       2990.498811
       Pressure         (GPa) =      22.284325         22.072017
  ** Time :            2.60400 ps :
     Properties:                   Instantaneous       Averaged
       Kinetic energy    (eV) =      11.867278         11.982186
       Potential energy  (eV) =     -78.027948        -79.409985
       Total energy      (eV) =     -66.160670        -67.427799
       Temperature       (K)  =    2961.589250       2990.265669
       Pressure         (GPa) =      24.103368         22.088398
  ** Time :            2.62500 ps :
     Properties:                   Instantaneous       Averaged
       Kinetic energy    (eV) =      11.981700         11.982182
       Potential energy  (eV) =     -77.109487        -79.391581
       Total energy      (eV) =     -65.127787        -67.409399
       Temperature       (K)  =    2990.144359       2990.264698
       Pressure         (GPa) =      24.764539         22.109807
  ** Time :            2.64600 ps :
     Properties:                   Instantaneous       Averaged
       Kinetic energy    (eV) =      12.123051         11.983300
       Potential energy  (eV) =     -78.059988        -79.381013
       Total energy      (eV) =     -65.936938        -67.397712
       Temperature       (K)  =    3025.419742       2990.543707
       Pressure         (GPa) =      23.344198         22.119604
  ** Time :            2.66700 ps :
     Properties:                   Instantaneous       Averaged
       Kinetic energy    (eV) =      12.055839         11.983871
       Potential energy  (eV) =     -79.437217        -79.381455
       Total energy      (eV) =     -67.381378        -67.397584
       Temperature       (K)  =    3008.646372       2990.686247
       Pressure         (GPa) =      21.931456         22.118123
  ** Time :            2.68800 ps :
     Properties:                   Instantaneous       Averaged
       Kinetic energy    (eV) =      12.034308         11.984265
       Potential energy  (eV) =     -80.346756        -79.388997
       Total energy      (eV) =     -68.312448        -67.404731
       Temperature       (K)  =    3003.273243       2990.784583
       Pressure         (GPa) =      21.359213         22.112194
  ** Time :            2.70900 ps :
     Properties:                   Instantaneous       Averaged
       Kinetic energy    (eV) =      11.816950         11.982968
       Potential energy  (eV) =     -79.017433        -79.386116
       Total energy      (eV) =     -67.200483        -67.403148
       Temperature       (K)  =    2949.029426       2990.460900
       Pressure         (GPa) =      22.614461         22.116087
  ** Time :            2.73000 ps :
     Properties:                   Instantaneous       Averaged
       Kinetic energy    (eV) =      12.029539         11.983327
       Potential energy  (eV) =     -79.112313        -79.384010
       Total energy      (eV) =     -67.082774        -67.400683
       Temperature       (K)  =    3002.082906       2990.550300
       Pressure         (GPa) =      22.534393         22.119305
  ** Time :            2.75100 ps :
     Properties:                   Instantaneous       Averaged
       Kinetic energy    (eV) =      12.073925         11.984018
       Potential energy  (eV) =     -79.180252        -79.382455
       Total energy      (eV) =     -67.106327        -67.398437
       Temperature       (K)  =    3013.159891       2990.722892
       Pressure         (GPa) =      22.316258         22.120809
  ** Time :            2.77200 ps :
     Properties:                   Instantaneous       Averaged
       Kinetic energy    (eV) =      12.032097         11.984382
       Potential energy  (eV) =     -80.055100        -79.387551
       Total energy      (eV) =     -68.023003        -67.403168
       Temperature       (K)  =    3002.721295       2990.813789
       Pressure         (GPa) =      21.310270         22.114668
  ** Time :            2.79300 ps :
     Properties:                   Instantaneous       Averaged
       Kinetic energy    (eV) =      12.067760         11.985009
       Potential energy  (eV) =     -81.074957        -79.400238
       Total energy      (eV) =     -69.007196        -67.415228
       Temperature       (K)  =    3011.621540       2990.970238
       Pressure         (GPa) =      20.427872         22.101985
  ** Time :            2.81400 ps :
     Properties:                   Instantaneous       Averaged
       Kinetic energy    (eV) =      11.848042         11.983987
       Potential energy  (eV) =     -80.115491        -79.405576
       Total energy      (eV) =     -68.267449        -67.421588
       Temperature       (K)  =    2956.788810       2990.715153
       Pressure         (GPa) =      21.502770         22.097514
  ** Time :            2.83500 ps :
     Properties:                   Instantaneous       Averaged
       Kinetic energy    (eV) =      11.969078         11.983877
       Potential energy  (eV) =     -78.997886        -79.402556
       Total energy      (eV) =     -67.028808        -67.418679
       Temperature       (K)  =    2986.994292       2990.687591
       Pressure         (GPa) =      22.589825         22.101160
  ** Time :            2.85600 ps :
     Properties:                   Instantaneous       Averaged
       Kinetic energy    (eV) =      11.990483         11.983925
       Potential energy  (eV) =     -78.725718        -79.397579
       Total energy      (eV) =     -66.735235        -67.413653
       Temperature       (K)  =    2992.336296       2990.699714
       Pressure         (GPa) =      22.800516         22.106303
  ** Time :            2.87700 ps :
     Properties:                   Instantaneous       Averaged
       Kinetic energy    (eV) =      11.953354         11.983702
       Potential energy  (eV) =     -78.716242        -79.392606
       Total energy      (eV) =     -66.762888        -67.408903
       Temperature       (K)  =    2983.070413       2990.644026
       Pressure         (GPa) =      22.934392         22.112347
  ** Time :            2.89800 ps :
     Properties:                   Instantaneous       Averaged
       Kinetic energy    (eV) =      12.138344         11.984823
       Potential energy  (eV) =     -79.331042        -79.392159
       Total energy      (eV) =     -67.192698        -67.407337
       Temperature       (K)  =    3029.236215       2990.923679
       Pressure         (GPa) =      22.234194         22.113230
  ** Time :            2.91900 ps :
     Properties:                   Instantaneous       Averaged
       Kinetic energy    (eV) =      11.973346         11.984740
       Potential energy  (eV) =     -80.442993        -79.399719
       Total energy      (eV) =     -68.469647        -67.414979
       Temperature       (K)  =    2988.059634       2990.903075
       Pressure         (GPa) =      21.148057         22.106286
  ** Time :            2.94000 ps :
     Properties:                   Instantaneous       Averaged
       Kinetic energy    (eV) =      11.904137         11.984165
       Potential energy  (eV) =     -79.480242        -79.400295
       Total energy      (eV) =     -67.576105        -67.416130
       Temperature       (K)  =    2970.787875       2990.759395
       Pressure         (GPa) =      22.045445         22.105852
  ** Time :            2.96100 ps :
     Properties:                   Instantaneous       Averaged
       Kinetic energy    (eV) =      11.885563         11.983465
       Potential energy  (eV) =     -77.882854        -79.389533
       Total energy      (eV) =     -65.997291        -67.406067
       Temperature       (K)  =    2966.152592       2990.584878
       Pressure         (GPa) =      23.760877         22.117590
  ** Time :            2.98200 ps :
     Properties:                   Instantaneous       Averaged
       Kinetic energy    (eV) =      11.996237         11.983555
       Potential energy  (eV) =     -77.289666        -79.374745
       Total energy      (eV) =     -65.293429        -67.391190
       Temperature       (K)  =    2993.772104       2990.607324
       Pressure         (GPa) =      24.640220         22.135355
  ** Time :            3.00300 ps :
     Properties:                   Instantaneous       Averaged
       Kinetic energy    (eV) =      12.024514         11.983842
       Potential energy  (eV) =     -77.538185        -79.361902
       Total energy      (eV) =     -65.513671        -67.378060
       Temperature       (K)  =    3000.828950       2990.678803
       Pressure         (GPa) =      24.107693         22.149147
  ** Time :            3.02400 ps :
     Properties:                   Instantaneous       Averaged
       Kinetic energy    (eV) =      12.073945         11.984467
       Potential energy  (eV) =     -78.729925        -79.357513
       Total energy      (eV) =     -66.655980        -67.373046
       Temperature       (K)  =    3013.164949       2990.834957
       Pressure         (GPa) =      22.949856         22.154708
  ** Time :            3.04500 ps :
     Properties:                   Instantaneous       Averaged
       Kinetic energy    (eV) =      11.931596         11.984103
       Potential energy  (eV) =     -78.461947        -79.351337
       Total energy      (eV) =     -66.530351        -67.367234
       Temperature       (K)  =    2977.640374       2990.743960
       Pressure         (GPa) =      23.119084         22.161359
  ** Time :            3.06600 ps :
     Properties:                   Instantaneous       Averaged
       Kinetic energy    (eV) =      12.095362         11.984865
       Potential energy  (eV) =     -79.174781        -79.350127
       Total energy      (eV) =     -67.079419        -67.365263
       Temperature       (K)  =    3018.509796       2990.934137
       Pressure         (GPa) =      21.979153         22.160111
  ** Time :            3.08700 ps :
     Properties:                   Instantaneous       Averaged
       Kinetic energy    (eV) =      11.925984         11.984464
       Potential energy  (eV) =     -79.022137        -79.347896
       Total energy      (eV) =     -67.096154        -67.363432
       Temperature       (K)  =    2976.239880       2990.834176
       Pressure         (GPa) =      21.785971         22.157565
  ** Time :            3.10800 ps :
     Properties:                   Instantaneous       Averaged
       Kinetic energy    (eV) =      11.973661         11.984391
       Potential energy  (eV) =     -78.706499        -79.343562
       Total energy      (eV) =     -66.732838        -67.359171
       Temperature       (K)  =    2988.138034       2990.815959
       Pressure         (GPa) =      22.423975         22.159365
  ** Time :            3.12900 ps :
     Properties:                   Instantaneous       Averaged
       Kinetic energy    (eV) =      12.083000         11.985053
       Potential energy  (eV) =     -78.615872        -79.338679
       Total energy      (eV) =     -66.532872        -67.353626
       Temperature       (K)  =    3015.424762       2990.981119
       Pressure         (GPa) =      22.425291         22.161150
  ** Time :            3.15000 ps :
     Properties:                   Instantaneous       Averaged
       Kinetic energy    (eV) =      12.177315         11.986335
       Potential energy  (eV) =     -81.563596        -79.353511
       Total energy      (eV) =     -69.386281        -67.367177
       Temperature       (K)  =    3038.961766       2991.300990
       Pressure         (GPa) =      19.492918         22.143362
  ** Time :            3.17100 ps :
     Properties:                   Instantaneous       Averaged
       Kinetic energy    (eV) =      11.927293         11.985944
       Potential energy  (eV) =     -82.005961        -79.371077
       Total energy      (eV) =     -70.078668        -67.385134
       Temperature       (K)  =    2976.566643       2991.203411
       Pressure         (GPa) =      18.883868         22.121776
  ** Time :            3.19200 ps :
     Properties:                   Instantaneous       Averaged
       Kinetic energy    (eV) =      11.885147         11.985281
       Potential energy  (eV) =     -80.524172        -79.378663
       Total energy      (eV) =     -68.639024        -67.393383
       Temperature       (K)  =    2966.048711       2991.037920
       Pressure         (GPa) =      20.426837         22.110625
  ** Time :            3.21300 ps :
     Properties:                   Instantaneous       Averaged
       Kinetic energy    (eV) =      11.661455         11.983164
       Potential energy  (eV) =     -77.849452        -79.368669
       Total energy      (eV) =     -66.187997        -67.385504
       Temperature       (K)  =    2910.224281       2990.509726
       Pressure         (GPa) =      23.164704         22.117514
  ** Time :            3.23400 ps :
     Properties:                   Instantaneous       Averaged
       Kinetic energy    (eV) =      12.235967         11.984806
       Potential energy  (eV) =     -77.599113        -79.357178
       Total energy      (eV) =     -65.363146        -67.372372
       Temperature       (K)  =    3053.598979       2990.919397
       Pressure         (GPa) =      23.518831         22.126614
  ** Time :            3.25500 ps :
     Properties:                   Instantaneous       Averaged
       Kinetic energy    (eV) =      12.001550         11.984914
       Potential energy  (eV) =     -79.064535        -79.355290
       Total energy      (eV) =     -67.062985        -67.370376
       Temperature       (K)  =    2995.098148       2990.946356
       Pressure         (GPa) =      21.871877         22.124970
  ** Time :            3.27600 ps :
     Properties:                   Instantaneous       Averaged
       Kinetic energy    (eV) =      11.937800         11.984612
       Potential energy  (eV) =     -79.170674        -79.354106
       Total energy      (eV) =     -67.232874        -67.369495
       Temperature       (K)  =    2979.188754       2990.870987
       Pressure         (GPa) =      21.950046         22.123849
  ** Time :            3.29700 ps :
     Properties:                   Instantaneous       Averaged
       Kinetic energy    (eV) =      11.969306         11.984514
       Potential energy  (eV) =     -78.100123        -79.346119
       Total energy      (eV) =     -66.130817        -67.361605
       Temperature       (K)  =    2987.051207       2990.846657
       Pressure         (GPa) =      23.246399         22.130999
  ** Time :            3.31800 ps :
     Properties:                   Instantaneous       Averaged
       Kinetic energy    (eV) =      12.201003         11.985884
       Potential energy  (eV) =     -79.717517        -79.348470
       Total energy      (eV) =     -67.516513        -67.362586
       Temperature       (K)  =    3044.873519       2991.188599
       Pressure         (GPa) =      21.700814         22.128276
  ** Time :            3.33900 ps :
     Properties:                   Instantaneous       Averaged
       Kinetic energy    (eV) =      12.024403         11.986127
       Potential energy  (eV) =     -81.284240        -79.360645
       Total energy      (eV) =     -69.259837        -67.374518
       Temperature       (K)  =    3000.801179       2991.249056
       Pressure         (GPa) =      20.238513         22.116391
  ** Time :            3.36000 ps :
     Properties:                   Instantaneous       Averaged
       Kinetic energy    (eV) =      11.911809         11.985662
       Potential energy  (eV) =     -80.935302        -79.370486
       Total energy      (eV) =     -69.023493        -67.384824
       Temperature       (K)  =    2972.702452       2991.133140
       Pressure         (GPa) =      20.930232         22.108978
  ** Time :            3.38100 ps :
     Properties:                   Instantaneous       Averaged
       Kinetic energy    (eV) =      11.994825         11.985719
       Potential energy  (eV) =     -80.260467        -79.376014
       Total energy      (eV) =     -68.265642        -67.390295
       Temperature       (K)  =    2993.419833       2991.147343
       Pressure         (GPa) =      21.627830         22.105989
  ** Time :            3.40200 ps :
     Properties:                   Instantaneous       Averaged
       Kinetic energy    (eV) =      11.810284         11.984636
       Potential energy  (eV) =     -79.136941        -79.374538
       Total energy      (eV) =     -67.326657        -67.389902
       Temperature       (K)  =    2947.365816       2990.877086
       Pressure         (GPa) =      22.383763         22.107704
  ** Time :            3.42300 ps :
     Properties:                   Instantaneous       Averaged
       Kinetic energy    (eV) =      11.970152         11.984547
       Potential energy  (eV) =     -76.810006        -79.358805
       Total energy      (eV) =     -64.839854        -67.374258
       Temperature       (K)  =    2987.262446       2990.854911
       Pressure         (GPa) =      24.172033         22.120368
  ** Time :            3.44400 ps :
     Properties:                   Instantaneous       Averaged
       Kinetic energy    (eV) =      12.048564         11.984938
[...]
       Pressure         (GPa) =      16.208931         17.186070
  ** Time :            9.09300 ps :
     Properties:                   Instantaneous       Averaged
       Kinetic energy    (eV) =      12.209248         11.876442
       Potential energy  (eV) =     -83.605034        -83.272948
       Total energy      (eV) =     -71.395787        -71.396506
       Temperature       (K)  =    3046.930942       2963.876241
       Pressure         (GPa) =      16.425121         17.184313
  ** Time :            9.11400 ps :
     Properties:                   Instantaneous       Averaged
       Kinetic energy    (eV) =      13.010728         11.879056
       Potential energy  (eV) =     -84.404686        -83.275556
       Total energy      (eV) =     -71.393958        -71.396500
       Temperature       (K)  =    3246.947875       2964.528480
       Pressure         (GPa) =      15.601340         17.180665
  ** Time :            9.13500 ps :
     Properties:                   Instantaneous       Averaged
       Kinetic energy    (eV) =      14.287683         11.884593
       Potential energy  (eV) =     -85.686907        -83.281099
       Total energy      (eV) =     -71.399223        -71.396507
       Temperature       (K)  =    3565.623840       2965.910309
       Pressure         (GPa) =      14.631324         17.174805
  ** Time :            9.15600 ps :
     Properties:                   Instantaneous       Averaged
       Kinetic energy    (eV) =      13.392219         11.888050
       Potential energy  (eV) =     -84.789239        -83.284558
       Total energy      (eV) =     -71.397019        -71.396508
       Temperature       (K)  =    3342.152568       2966.773250
       Pressure         (GPa) =      15.905221         17.171893
  ** Time :            9.17700 ps :
     Properties:                   Instantaneous       Averaged
       Kinetic energy    (eV) =      10.649187         11.885216
       Potential energy  (eV) =     -82.041662        -83.281714
       Total energy      (eV) =     -71.392475        -71.396499
       Temperature       (K)  =    2657.603465       2966.065767
       Pressure         (GPa) =      18.733177         17.175465
  ** Time :            9.19800 ps :
     Properties:                   Instantaneous       Averaged
       Kinetic energy    (eV) =       9.973524         11.880851
       Potential energy  (eV) =     -81.368172        -83.277345
       Total energy      (eV) =     -71.394648        -71.396494
       Temperature       (K)  =    2488.985507       2964.976543
       Pressure         (GPa) =      19.459528         17.180680
  ** Time :            9.21900 ps :
     Properties:                   Instantaneous       Averaged
       Kinetic energy    (eV) =      10.700701         11.878163
       Potential energy  (eV) =     -82.097494        -83.274658
       Total energy      (eV) =     -71.396794        -71.396495
       Temperature       (K)  =    2670.459051       2964.305660
       Pressure         (GPa) =      18.703021         17.184148
  ** Time :            9.24000 ps :
     Properties:                   Instantaneous       Averaged
       Kinetic energy    (eV) =      10.202076         11.874353
       Potential energy  (eV) =     -81.597841        -83.270847
       Total energy      (eV) =     -71.395765        -71.396493
       Temperature       (K)  =    2546.022664       2963.355017
       Pressure         (GPa) =      18.808975         17.187841
  ** Time :            9.26100 ps :
     Properties:                   Instantaneous       Averaged
       Kinetic energy    (eV) =      11.084573         11.872563
       Potential energy  (eV) =     -82.475389        -83.269043
       Total energy      (eV) =     -71.390817        -71.396480
       Temperature       (K)  =    2766.257881       2962.908085
       Pressure         (GPa) =      17.599318         17.188774
  ** Time :            9.28200 ps :
     Properties:                   Instantaneous       Averaged
       Kinetic energy    (eV) =      14.181760         11.877787
       Potential energy  (eV) =     -85.584411        -83.274281
       Total energy      (eV) =     -71.402651        -71.396494
       Temperature       (K)  =    3539.189660       2964.211889
       Pressure         (GPa) =      14.751544         17.183260
  ** Time :            9.30300 ps :
     Properties:                   Instantaneous       Averaged
       Kinetic energy    (eV) =      13.338368         11.881084
       Potential energy  (eV) =     -84.731479        -83.277571
       Total energy      (eV) =     -71.393111        -71.396487
       Temperature       (K)  =    3328.713375       2965.034692
       Pressure         (GPa) =      15.314653         17.179042
  ** Time :            9.32400 ps :
     Properties:                   Instantaneous       Averaged
       Kinetic energy    (eV) =      13.040621         11.883696
       Potential energy  (eV) =     -84.437080        -83.280182
       Total energy      (eV) =     -71.396458        -71.396487
       Temperature       (K)  =    3254.407993       2965.686433
       Pressure         (GPa) =      15.813745         17.175967
  ** Time :            9.34500 ps :
     Properties:                   Instantaneous       Averaged
       Kinetic energy    (eV) =      11.944757         11.883833
       Potential energy  (eV) =     -83.341530        -83.280320
       Total energy      (eV) =     -71.396772        -71.396487
       Temperature       (K)  =    2980.924890       2965.720677
       Pressure         (GPa) =      17.067087         17.175722
  ** Time :            9.36600 ps :
     Properties:                   Instantaneous       Averaged
       Kinetic energy    (eV) =      10.485508         11.880698
       Potential energy  (eV) =     -81.875494        -83.277170
       Total energy      (eV) =     -71.389986        -71.396473
       Temperature       (K)  =    2616.755728       2964.938244
       Pressure         (GPa) =      18.359812         17.178377
  ** Time :            9.38700 ps :
     Properties:                   Instantaneous       Averaged
       Kinetic energy    (eV) =      12.072963         11.881128
       Potential energy  (eV) =     -83.469921        -83.277602
       Total energy      (eV) =     -71.396958        -71.396474
       Temperature       (K)  =    3012.919986       2965.045586
       Pressure         (GPa) =      16.791081         17.177510
  ** Time :            9.40800 ps :
     Properties:                   Instantaneous       Averaged
       Kinetic energy    (eV) =      13.621234         11.885012
       Potential energy  (eV) =     -85.016770        -83.281484
       Total energy      (eV) =     -71.395536        -71.396472
       Temperature       (K)  =    3399.305190       2966.014916
       Pressure         (GPa) =      15.018498         17.172691
  ** Time :            9.42900 ps :
     Properties:                   Instantaneous       Averaged
       Kinetic energy    (eV) =      14.482513         11.890797
       Potential energy  (eV) =     -85.884624        -83.287281
       Total energy      (eV) =     -71.402111        -71.396484
       Temperature       (K)  =    3614.245502       2967.458636
       Pressure         (GPa) =      14.516524         17.166775
  ** Time :            9.45000 ps :
     Properties:                   Instantaneous       Averaged
       Kinetic energy    (eV) =      11.861950         11.890733
       Potential energy  (eV) =     -83.259606        -83.287220
       Total energy      (eV) =     -71.397656        -71.396487
       Temperature       (K)  =    2960.259667       2967.442639
       Pressure         (GPa) =      17.301433         17.167075
  ** Time :            9.47100 ps :
     Properties:                   Instantaneous       Averaged
       Kinetic energy    (eV) =      10.065929         11.886687
       Potential energy  (eV) =     -81.457873        -83.283164
       Total energy      (eV) =     -71.391944        -71.396477
       Temperature       (K)  =    2512.045963       2966.432890
       Pressure         (GPa) =      19.212123         17.171609
  ** Time :            9.49200 ps :
     Properties:                   Instantaneous       Averaged
       Kinetic energy    (eV) =      11.790246         11.886473
       Potential energy  (eV) =     -83.191891        -83.282962
       Total energy      (eV) =     -71.401645        -71.396488
       Temperature       (K)  =    2942.365184       2966.379643
       Pressure         (GPa) =      17.665317         17.172701
  ** Time :            9.51300 ps :
     Properties:                   Instantaneous       Averaged
       Kinetic energy    (eV) =      11.913763         11.886534
       Potential energy  (eV) =     -83.313538        -83.283029
       Total energy      (eV) =     -71.399775        -71.396496
       Temperature       (K)  =    2973.190034       2966.394677
       Pressure         (GPa) =      17.377981         17.173155
  ** Time :            9.53400 ps :
     Properties:                   Instantaneous       Averaged
       Kinetic energy    (eV) =       9.415890         11.881092
       Potential energy  (eV) =     -80.812495        -83.277587
       Total energy      (eV) =     -71.396605        -71.396496
       Temperature       (K)  =    2349.822700       2965.036589
       Pressure         (GPa) =      19.891573         17.179142
  ** Time :            9.55500 ps :
     Properties:                   Instantaneous       Averaged
       Kinetic energy    (eV) =       7.862437         11.872259
       Potential energy  (eV) =     -79.248887        -83.268733
       Total energy      (eV) =     -71.386451        -71.396474
       Temperature       (K)  =    1962.144024       2962.832429
       Pressure         (GPa) =      21.065519         17.187684
  ** Time :            9.57600 ps :
     Properties:                   Instantaneous       Averaged
       Kinetic energy    (eV) =      12.055943         11.872662
       Potential energy  (eV) =     -83.457193        -83.269146
       Total energy      (eV) =     -71.401250        -71.396484
       Temperature       (K)  =    3008.672340       2962.932955
       Pressure         (GPa) =      17.175673         17.187657
  ** Time :            9.59700 ps :
     Properties:                   Instantaneous       Averaged
       Kinetic energy    (eV) =      13.903782         11.877107
       Potential energy  (eV) =     -85.301403        -83.273593
       Total energy      (eV) =     -71.397621        -71.396487
       Temperature       (K)  =    3469.817677       2964.042112
       Pressure         (GPa) =      15.260232         17.183440
  ** Time :            9.61800 ps :
     Properties:                   Instantaneous       Averaged
       Kinetic energy    (eV) =      12.718561         11.878944
       Potential energy  (eV) =     -84.117866        -83.275437
       Total energy      (eV) =     -71.399305        -71.396493
       Temperature       (K)  =    3174.034840       2964.500612
       Pressure         (GPa) =      16.645674         17.182266
  ** Time :            9.63900 ps :
     Properties:                   Instantaneous       Averaged
       Kinetic energy    (eV) =      10.335329         11.875581
       Potential energy  (eV) =     -81.721549        -83.272051
       Total energy      (eV) =     -71.386220        -71.396470
       Temperature       (K)  =    2579.277086       2963.661345
       Pressure         (GPa) =      18.721172         17.185618
  ** Time :            9.66000 ps :
     Properties:                   Instantaneous       Averaged
       Kinetic energy    (eV) =      12.890585         11.877787
       Potential energy  (eV) =     -84.291664        -83.274268
       Total energy      (eV) =     -71.401078        -71.396481
       Temperature       (K)  =    3216.965149       2964.212005
       Pressure         (GPa) =      16.331682         17.183762
  ** Time :            9.68100 ps :
     Properties:                   Instantaneous       Averaged
       Kinetic energy    (eV) =      13.038770         11.880306
       Potential energy  (eV) =     -84.435728        -83.276787
       Total energy      (eV) =     -71.396958        -71.396482
       Temperature       (K)  =    3253.946006       2964.840495
       Pressure         (GPa) =      15.752025         17.180656
  ** Time :            9.70200 ps :
     Properties:                   Instantaneous       Averaged
       Kinetic energy    (eV) =      12.434686         11.881506
       Potential energy  (eV) =     -83.831094        -83.277987
       Total energy      (eV) =     -71.396408        -71.396481
       Temperature       (K)  =    3103.191302       2965.139956
       Pressure         (GPa) =      16.167247         17.178463
  ** Time :            9.72300 ps :
     Properties:                   Instantaneous       Averaged
       Kinetic energy    (eV) =      12.025255         11.881816
       Potential energy  (eV) =     -83.424953        -83.278305
       Total energy      (eV) =     -71.399698        -71.396488
       Temperature       (K)  =    3001.013903       2965.217438
       Pressure         (GPa) =      17.104954         17.178304
  ** Time :            9.74400 ps :
     Properties:                   Instantaneous       Averaged
       Kinetic energy    (eV) =       9.953313         11.877660
       Potential energy  (eV) =     -81.344975        -83.274138
       Total energy      (eV) =     -71.391662        -71.396478
       Temperature       (K)  =    2483.941506       2964.180205
       Pressure         (GPa) =      19.507967         17.183325
  ** Time :            9.76500 ps :
     Properties:                   Instantaneous       Averaged
       Kinetic energy    (eV) =      10.205689         11.874064
       Potential energy  (eV) =     -81.598842        -83.270535
       Total energy      (eV) =     -71.393153        -71.396471
       Temperature       (K)  =    2546.924316       2963.282880
       Pressure         (GPa) =      19.299922         17.187877
  ** Time :            9.78600 ps :
     Properties:                   Instantaneous       Averaged
       Kinetic energy    (eV) =      12.264018         11.874901
       Potential energy  (eV) =     -83.663814        -83.271379
       Total energy      (eV) =     -71.399796        -71.396478
       Temperature       (K)  =    3060.599326       2963.491714
       Pressure         (GPa) =      17.269129         17.188051
  ** Time :            9.80700 ps :
     Properties:                   Instantaneous       Averaged
       Kinetic energy    (eV) =      12.251871         11.875708
       Potential energy  (eV) =     -83.646486        -83.272182
       Total energy      (eV) =     -71.394615        -71.396474
       Temperature       (K)  =    3057.568146       2963.693162
       Pressure         (GPa) =      16.920505         17.187478
  ** Time :            9.82800 ps :
     Properties:                   Instantaneous       Averaged
       Kinetic energy    (eV) =      12.269935         11.876551
       Potential energy  (eV) =     -83.667171        -83.273026
       Total energy      (eV) =     -71.397236        -71.396476
       Temperature       (K)  =    3062.076119       2963.903382
       Pressure         (GPa) =      16.734442         17.186510
  ** Time :            9.84900 ps :
     Properties:                   Instantaneous       Averaged
       Kinetic energy    (eV) =      11.765796         11.876315
       Potential energy  (eV) =     -83.163964        -83.272794
       Total energy      (eV) =     -71.398168        -71.396479
       Temperature       (K)  =    2936.263541       2963.844449
       Pressure         (GPa) =      17.258017         17.186663
  ** Time :            9.87000 ps :
     Properties:                   Instantaneous       Averaged
       Kinetic energy    (eV) =      10.785700         11.873994
       Potential energy  (eV) =     -82.182214        -83.270473
       Total energy      (eV) =     -71.396514        -71.396479
       Temperature       (K)  =    2691.671444       2963.265357
       Pressure         (GPa) =      18.173196         17.188762
  ** Time :            9.89100 ps :
     Properties:                   Instantaneous       Averaged
       Kinetic energy    (eV) =      11.034675         11.872212
       Potential energy  (eV) =     -82.427562        -83.268684
       Total energy      (eV) =     -71.392887        -71.396472
       Temperature       (K)  =    2753.805528       2962.820644
       Pressure         (GPa) =      17.729635         17.189910
  ** Time :            9.91200 ps :
     Properties:                   Instantaneous       Averaged
       Kinetic energy    (eV) =      12.675986         11.873915
       Potential energy  (eV) =     -84.079555        -83.270402
       Total energy      (eV) =     -71.403569        -71.396487
       Temperature       (K)  =    3163.409927       2963.245622
       Pressure         (GPa) =      16.287372         17.187998
  ** Time :            9.93300 ps :
     Properties:                   Instantaneous       Averaged
       Kinetic energy    (eV) =      11.218627         11.872530
       Potential energy  (eV) =     -82.614938        -83.269016
       Total energy      (eV) =     -71.396310        -71.396486
       Temperature       (K)  =    2799.712503       2962.899886
       Pressure         (GPa) =      17.840486         17.189377
  ** Time :            9.95400 ps :
     Properties:                   Instantaneous       Averaged
       Kinetic energy    (eV) =      10.213951         11.869031
       Potential energy  (eV) =     -81.607225        -83.265510
       Total energy      (eV) =     -71.393274        -71.396479
       Temperature       (K)  =    2548.986146       2962.026650
       Pressure         (GPa) =      19.021746         17.193243
  ** Time :            9.97500 ps :
     Properties:                   Instantaneous       Averaged
       Kinetic energy    (eV) =      10.979819         11.867159
       Potential energy  (eV) =     -82.382647        -83.263651
       Total energy      (eV) =     -71.402828        -71.396493
       Temperature       (K)  =    2740.115651       2961.559469
       Pressure         (GPa) =      18.702602         17.196421
  ** Time :            9.99600 ps :
     Properties:                   Instantaneous       Averaged
       Kinetic energy    (eV) =       9.004077         11.861144
       Potential energy  (eV) =     -80.394894        -83.257625
       Total energy      (eV) =     -71.390817        -71.396481
       Temperature       (K)  =    2247.050989       2960.058401
       Pressure         (GPa) =      20.511819         17.203386

  Peak dynamic memory used =       0.57 MB 


  Timing analysis for GULP :

--------------------------------------------------------------------------------
  Task / Subroutine                                          Time (Seconds)
--------------------------------------------------------------------------------
  Calculation of real space energy and derivatives                6.8400
  Calculation of many-body energy and derivatives                 3.8520
  Molecular dynamics - update of geometry                         0.0080
  Molecular dynamics - predictor                                  0.0040
  Molecular dynamics - corrector                                  0.0080
  Molecular dynamics - velocity correction                        0.0080
--------------------------------------------------------------------------------
  Total CPU time                                                 10.9880
--------------------------------------------------------------------------------


  Dump file written as Recovery_2_3000_0.003.res                               
  GULP ASCII trajectory file written as Trajectories_2_3000_0.003.trg           


  Job Finished at 17:42.09 17th May        2018                               

