********************************************************************************
*                       GENERAL UTILITY LATTICE PROGRAM                        *
*                                 Julian Gale                                  *
*                       Curtin Institute for Computation                       *
*                           Department of Chemistry                            *
*                    Curtin University, Western Australia                      *
********************************************************************************
* Version = 5.0.0 * Last modified =  18th April 2018                           *
********************************************************************************
*  single       - perform a single point run                                   *
*  md           - perform molecular dynamics run                               *
*  conv         - constant volume calculation                                  *
********************************************************************************
* molecular dynamics of silver                                                 *
********************************************************************************


  Job Started  at 18:24.26 17th May        2018                               

  Number of CPUs =     1


  Total number of configurations input =   1

********************************************************************************
*  Input for Configuration =   1                                               *
********************************************************************************

  Formula = Ag32                                                        

  Number of irreducible atoms/shells =      32


  Total number atoms/shells =      32

  Dimensionality = 3               :  Bulk   



  Supercell dimensions :  x =   2  y =   2  z =   2

  Cartesian lattice vectors (Angstroms) :

        8.170000    0.000000    0.000000
        0.000000    8.170000    0.000000
        0.000000    0.000000    8.170000

  Cell parameters (Angstroms/Degrees):

  a =       8.1700    alpha =  90.0000
  b =       8.1700    beta  =  90.0000
  c =       8.1700    gamma =  90.0000

  Initial cell volume =         545.338513 Angs**3

  Temperature of configuration =  3000.     K 

  Pressure of configuration =         0.000 GPa 

  Fractional coordinates of asymmetric unit :

--------------------------------------------------------------------------------
   No.  Atomic       x           y          z         Charge      Occupancy
        Label      (Frac)      (Frac)     (Frac)        (e)         (Frac)  
--------------------------------------------------------------------------------
      1 Ag    c    0.000000 *  0.000000 *  0.000000 *   0.00000    1.000000    
      2 Ag    c    0.000000 *  0.000000 *  0.500000 *   0.00000    1.000000    
      3 Ag    c    0.000000 *  0.500000 *  0.000000 *   0.00000    1.000000    
      4 Ag    c    0.000000 *  0.500000 *  0.500000 *   0.00000    1.000000    
      5 Ag    c    0.500000 *  0.000000 *  0.000000 *   0.00000    1.000000    
      6 Ag    c    0.500000 *  0.000000 *  0.500000 *   0.00000    1.000000    
      7 Ag    c    0.500000 *  0.500000 *  0.000000 *   0.00000    1.000000    
      8 Ag    c    0.500000 *  0.500000 *  0.500000 *   0.00000    1.000000    
      9 Ag    c    0.000000 *  0.250000 *  0.250000 *   0.00000    1.000000    
     10 Ag    c    0.000000 *  0.250000 *  0.750000 *   0.00000    1.000000    
     11 Ag    c    0.000000 *  0.750000 *  0.250000 *   0.00000    1.000000    
     12 Ag    c    0.000000 *  0.750000 *  0.750000 *   0.00000    1.000000    
     13 Ag    c    0.500000 *  0.250000 *  0.250000 *   0.00000    1.000000    
     14 Ag    c    0.500000 *  0.250000 *  0.750000 *   0.00000    1.000000    
     15 Ag    c    0.500000 *  0.750000 *  0.250000 *   0.00000    1.000000    
     16 Ag    c    0.500000 *  0.750000 *  0.750000 *   0.00000    1.000000    
     17 Ag    c    0.250000 *  0.000000 *  0.250000 *   0.00000    1.000000    
     18 Ag    c    0.250000 *  0.000000 *  0.750000 *   0.00000    1.000000    
     19 Ag    c    0.250000 *  0.500000 *  0.250000 *   0.00000    1.000000    
     20 Ag    c    0.250000 *  0.500000 *  0.750000 *   0.00000    1.000000    
     21 Ag    c    0.750000 *  0.000000 *  0.250000 *   0.00000    1.000000    
     22 Ag    c    0.750000 *  0.000000 *  0.750000 *   0.00000    1.000000    
     23 Ag    c    0.750000 *  0.500000 *  0.250000 *   0.00000    1.000000    
     24 Ag    c    0.750000 *  0.500000 *  0.750000 *   0.00000    1.000000    
     25 Ag    c    0.250000 *  0.250000 *  0.000000 *   0.00000    1.000000    
     26 Ag    c    0.250000 *  0.250000 *  0.500000 *   0.00000    1.000000    
     27 Ag    c    0.250000 *  0.750000 *  0.000000 *   0.00000    1.000000    
     28 Ag    c    0.250000 *  0.750000 *  0.500000 *   0.00000    1.000000    
     29 Ag    c    0.750000 *  0.250000 *  0.000000 *   0.00000    1.000000    
     30 Ag    c    0.750000 *  0.250000 *  0.500000 *   0.00000    1.000000    
     31 Ag    c    0.750000 *  0.750000 *  0.000000 *   0.00000    1.000000    
     32 Ag    c    0.750000 *  0.750000 *  0.500000 *   0.00000    1.000000    
--------------------------------------------------------------------------------



********************************************************************************
*  General input information                                                   *
********************************************************************************

  Species output for all configurations : 

--------------------------------------------------------------------------------
  Species    Type    Atomic    Atomic    Charge       Radii (Angs)     Library
                     Number     Mass       (e)     Cova   Ionic  VDW   Symbol
--------------------------------------------------------------------------------
    Ag       Core       47     107.87   0.000000   1.590  0.000  2.370          
--------------------------------------------------------------------------------


  Lattice summation method               =    Ewald          (3-D)
                                         =    Parry          (2-D)
                                         =    Saunders et al (1-D)
  Accuracy factor for lattice sums       =   12.000


  Time limit = Infinity

  Maximum range for interatomic potentials =    100000.000000 Angstroms

  General interatomic potentials :

--------------------------------------------------------------------------------
Atom  Types   Potential      Parameter       Value         Units   Cutoffs(Ang)
  1     2                                                            Min /  Max 
--------------------------------------------------------------------------------
Ag   c Ag   c Many-body                                             0.000  8.000
--------------------------------------------------------------------------------
Ag   c Ag   c Buckingham    Buckingham A     11454.950    eV        0.000 12.000
                            Buckingham rho  0.26432400    Ang       
                            Buckingham C     0.0000000    eV*Ang^6  
--------------------------------------------------------------------------------

  Embedded Atom Model Densities :

--------------------------------------------------------------------------------
  Atom(s)       Functional Form          A          B          C         n      
--------------------------------------------------------------------------------
  Ag   c        Exponential          1.388      2.173      2.889         0
--------------------------------------------------------------------------------


  Embedded Atom Model alloy parameters :

--------------------------------------------------------------------------------
  Atom(s)                          Scale factor 
--------------------------------------------------------------------------------
  Ag    c                            1.000000
--------------------------------------------------------------------------------

  Embedded Atom Model functional = Square Root

--------------------------------------------------------------------------------
  Atom                     A     
--------------------------------------------------------------------------------
  Ag    c               1.000000
--------------------------------------------------------------------------------


  Manybody second derivative cross term cutoffs to be scale by = 0.50000000

********************************************************************************
*  Output for configuration   1                                                *
********************************************************************************


  Components of energy : 

--------------------------------------------------------------------------------
  Interatomic potentials     =          39.71625760 eV    
  Many-body potentials       =        -134.45860512 eV    
  Monopole - monopole (real) =           0.00000000 eV    
  Monopole - monopole (recip)=           0.00000000 eV    
  Monopole - monopole (total)=           0.00000000 eV    
--------------------------------------------------------------------------------
  Total lattice energy       =         -94.74234752 eV    
--------------------------------------------------------------------------------
  Total lattice energy       =           -9141.1883 kJ/(mole unit cells)
--------------------------------------------------------------------------------

  Equations of motion will be integrated using the leapfrog Verlet algorithm.

********************************************************************************
*  Molecular Dynamics                                                          *
********************************************************************************

  Microcanonical ensemble (NVE) to be used

  No. of mobile ions        =                 32

  No. of degrees of freedom =                 93

  Time step                 =           0.013000 ps
  Equilibration time        =           5.000000 ps
  Production time           =          10.000000 ps
  Scaling time              =           5.005000 ps
  Scaling frequency         =           0.013000 ps
  Sampling frequency        =           0.026000 ps
  Write frequency           =           0.026000 ps
  TD-Force start time       =           0.000000 ps
  TD-Field start time       =           0.000000 ps



  Molecular dynamics equilibration :

  ** Time :            0.02600 ps :
     Properties:                   Instantaneous       Averaged
       Kinetic energy    (eV) =      10.954168         10.954168
       Potential energy  (eV) =     -93.701190        -93.701190
       Total energy      (eV) =     -82.747022        -82.747022
       Temperature       (K)  =    2733.714239       2733.714239
       Pressure         (GPa) =       3.637404          3.637404
  ** Time :            0.05200 ps :
     Properties:                   Instantaneous       Averaged
       Kinetic energy    (eV) =       9.124479         10.039323
       Potential energy  (eV) =     -86.144934        -89.923062
       Total energy      (eV) =     -77.020455        -79.883739
       Temperature       (K)  =    2277.098252       2505.406245
       Pressure         (GPa) =      12.836178          8.236791
  ** Time :            0.07800 ps :
     Properties:                   Instantaneous       Averaged
       Kinetic energy    (eV) =      11.591530         10.556726
       Potential energy  (eV) =     -82.851522        -87.565882
       Total energy      (eV) =     -71.259991        -77.009156
       Temperature       (K)  =    2892.773891       2634.528794
       Pressure         (GPa) =      17.649574         11.374385
  ** Time :            0.10400 ps :
     Properties:                   Instantaneous       Averaged
       Kinetic energy    (eV) =      10.851240         10.630354
       Potential energy  (eV) =     -81.117886        -85.953883
       Total energy      (eV) =     -70.266646        -75.323529
       Temperature       (K)  =    2708.027612       2652.903498
       Pressure         (GPa) =      19.306817         13.357493
  ** Time :            0.13000 ps :
     Properties:                   Instantaneous       Averaged
       Kinetic energy    (eV) =      11.031677         10.710619
       Potential energy  (eV) =     -79.508856        -84.664878
       Total energy      (eV) =     -68.477180        -73.954259
       Temperature       (K)  =    2753.057193       2672.934237
       Pressure         (GPa) =      21.619786         15.009952
  ** Time :            0.15600 ps :
     Properties:                   Instantaneous       Averaged
       Kinetic energy    (eV) =      10.894118         10.741202
       Potential energy  (eV) =     -76.462450        -83.297806
       Total energy      (eV) =     -65.568332        -72.556604
       Temperature       (K)  =    2718.728127       2680.566552
       Pressure         (GPa) =      24.800521         16.641713
  ** Time :            0.18200 ps :
     Properties:                   Instantaneous       Averaged
       Kinetic energy    (eV) =      12.313661         10.965839
       Potential energy  (eV) =     -78.837958        -82.660685
       Total energy      (eV) =     -66.524296        -71.694846
       Temperature       (K)  =    3072.988412       2736.626818
       Pressure         (GPa) =      22.680056         17.504334
  ** Time :            0.20800 ps :
     Properties:                   Instantaneous       Averaged
       Kinetic energy    (eV) =      11.396713         11.019698
       Potential energy  (eV) =     -79.569629        -82.274303
       Total energy      (eV) =     -68.172916        -71.254605
       Temperature       (K)  =    2844.155408       2750.067892
       Pressure         (GPa) =      21.555594         18.010741
  ** Time :            0.23400 ps :
     Properties:                   Instantaneous       Averaged
       Kinetic energy    (eV) =      11.722587         11.097797
       Potential energy  (eV) =     -79.284342        -81.942085
       Total energy      (eV) =     -67.561755        -70.844288
       Temperature       (K)  =    2925.480331       2769.558163
       Pressure         (GPa) =      21.720142         18.422897
  ** Time :            0.26000 ps :
     Properties:                   Instantaneous       Averaged
       Kinetic energy    (eV) =      11.936111         11.181628
       Potential energy  (eV) =     -80.583637        -81.806240
       Total energy      (eV) =     -68.647526        -70.624612
       Temperature       (K)  =    2978.767257       2790.479072
       Pressure         (GPa) =      20.341235         18.614731
  ** Time :            0.28600 ps :
     Properties:                   Instantaneous       Averaged
       Kinetic energy    (eV) =      11.303280         11.192688
       Potential energy  (eV) =     -80.393079        -81.677771
       Total energy      (eV) =     -69.089799        -70.485083
       Temperature       (K)  =    2820.838260       2793.238998
       Pressure         (GPa) =      20.267015         18.764938
  ** Time :            0.31200 ps :
     Properties:                   Instantaneous       Averaged
       Kinetic energy    (eV) =      10.986527         11.175508
       Potential energy  (eV) =     -79.712372        -81.513988
       Total energy      (eV) =     -68.725845        -70.338480
       Temperature       (K)  =    2741.789655       2788.951553
       Pressure         (GPa) =      21.378377         18.982725
  ** Time :            0.33800 ps :
     Properties:                   Instantaneous       Averaged
       Kinetic energy    (eV) =      11.634889         11.210845
       Potential energy  (eV) =     -78.105979        -81.251833
       Total energy      (eV) =     -66.471090        -70.040989
       Temperature       (K)  =    2903.594563       2797.770246
       Pressure         (GPa) =      23.321987         19.316514
  ** Time :            0.36400 ps :
     Properties:                   Instantaneous       Averaged
       Kinetic energy    (eV) =      10.937415         11.191314
       Potential energy  (eV) =     -78.655255        -81.066363
       Total energy      (eV) =     -67.717840        -69.875049
       Temperature       (K)  =    2729.533400       2792.896185
       Pressure         (GPa) =      22.577608         19.549449
  ** Time :            0.39000 ps :
     Properties:                   Instantaneous       Averaged
       Kinetic energy    (eV) =      11.588930         11.217822
       Potential energy  (eV) =     -77.356803        -80.819059
       Total energy      (eV) =     -65.767873        -69.601238
       Temperature       (K)  =    2892.124899       2799.511433
       Pressure         (GPa) =      23.968203         19.844033
  ** Time :            0.41600 ps :
     Properties:                   Instantaneous       Averaged
       Kinetic energy    (eV) =      11.625298         11.243289
       Potential energy  (eV) =     -77.787272        -80.629573
       Total energy      (eV) =     -66.161975        -69.386284
       Temperature       (K)  =    2901.200847       2805.867021
       Pressure         (GPa) =      23.594231         20.078420
  ** Time :            0.44200 ps :
     Properties:                   Instantaneous       Averaged
       Kinetic energy    (eV) =      11.674235         11.268639
       Potential energy  (eV) =     -78.742356        -80.518560
       Total energy      (eV) =     -67.068121        -69.249921
       Temperature       (K)  =    2913.413623       2812.193292
       Pressure         (GPa) =      22.131991         20.199219
  ** Time :            0.46800 ps :
     Properties:                   Instantaneous       Averaged
       Kinetic energy    (eV) =      11.114916         11.260099
       Potential energy  (eV) =     -78.855452        -80.426165
       Total energy      (eV) =     -67.740536        -69.166067
       Temperature       (K)  =    2773.830324       2810.062016
       Pressure         (GPa) =      21.881253         20.292665
  ** Time :            0.49400 ps :
     Properties:                   Instantaneous       Averaged
       Kinetic energy    (eV) =      11.521129         11.273837
       Potential energy  (eV) =     -78.095237        -80.303485
       Total energy      (eV) =     -66.574108        -69.029648
       Temperature       (K)  =    2875.204561       2813.490571
       Pressure         (GPa) =      22.832687         20.426350
  ** Time :            0.52000 ps :
     Properties:                   Instantaneous       Averaged
       Kinetic energy    (eV) =      12.195688         11.319930
       Potential energy  (eV) =     -81.642592        -80.370440
       Total energy      (eV) =     -69.446904        -69.050510
       Temperature       (K)  =    3043.547020       2824.993393
       Pressure         (GPa) =      19.104916         20.360279
  ** Time :            0.54600 ps :
     Properties:                   Instantaneous       Averaged
       Kinetic energy    (eV) =      11.251414         11.316667
       Potential energy  (eV) =     -80.386631        -80.371211
       Total energy      (eV) =     -69.135217        -69.054544
       Temperature       (K)  =    2807.894791       2824.179174
       Pressure         (GPa) =      20.095416         20.347666
  ** Time :            0.57200 ps :
     Properties:                   Instantaneous       Averaged
       Kinetic energy    (eV) =      11.754461         11.336567
       Potential energy  (eV) =     -81.273693        -80.412233
       Total energy      (eV) =     -69.519232        -69.075666
       Temperature       (K)  =    2933.434661       2829.145333
       Pressure         (GPa) =      19.413675         20.305212
  ** Time :            0.59800 ps :
     Properties:                   Instantaneous       Averaged
       Kinetic energy    (eV) =      12.126790         11.370924
       Potential energy  (eV) =     -82.688634        -80.511207
       Total energy      (eV) =     -70.561844        -69.140283
       Temperature       (K)  =    3026.352971       2837.719578
       Pressure         (GPa) =      17.759944         20.194548
  ** Time :            0.62400 ps :
     Properties:                   Instantaneous       Averaged
       Kinetic energy    (eV) =      11.054460         11.357738
       Potential energy  (eV) =     -83.113138        -80.619621
       Total energy      (eV) =     -72.058678        -69.261883
       Temperature       (K)  =    2758.743082       2834.428891
       Pressure         (GPa) =      17.417533         20.078839
  ** Time :            0.65000 ps :
     Properties:                   Instantaneous       Averaged
       Kinetic energy    (eV) =      10.953312         11.341561
       Potential energy  (eV) =     -79.387983        -80.570355
       Total energy      (eV) =     -68.434670        -69.228794
       Temperature       (K)  =    2733.500698       2830.391763
       Pressure         (GPa) =      22.112634         20.160191
  ** Time :            0.67600 ps :
     Properties:                   Instantaneous       Averaged
       Kinetic energy    (eV) =      11.240207         11.337663
       Potential energy  (eV) =     -78.401940        -80.486955
       Total energy      (eV) =     -67.161733        -69.149292
       Temperature       (K)  =    2805.097777       2829.418917
       Pressure         (GPa) =      23.971051         20.306763
  ** Time :            0.70200 ps :
     Properties:                   Instantaneous       Averaged
       Kinetic energy    (eV) =      12.360261         11.375537
       Potential energy  (eV) =     -79.807685        -80.461796
       Total energy      (eV) =     -67.447424        -69.086260
       Temperature       (K)  =    3084.617697       2838.870724
       Pressure         (GPa) =      22.350115         20.382442
  ** Time :            0.72800 ps :
     Properties:                   Instantaneous       Averaged
       Kinetic energy    (eV) =      11.314305         11.373350
       Potential energy  (eV) =     -81.132778        -80.485760
       Total energy      (eV) =     -69.818472        -69.112410
       Temperature       (K)  =    2823.589859       2838.324979
       Pressure         (GPa) =      20.311961         20.379925
  ** Time :            0.75400 ps :
     Properties:                   Instantaneous       Averaged
       Kinetic energy    (eV) =      11.020276         11.361175
       Potential energy  (eV) =     -78.827927        -80.428593
       Total energy      (eV) =     -67.807651        -69.067418
       Temperature       (K)  =    2750.212164       2835.286606
       Pressure         (GPa) =      22.299335         20.446112
  ** Time :            0.78000 ps :
     Properties:                   Instantaneous       Averaged
       Kinetic energy    (eV) =      11.064866         11.351298
       Potential energy  (eV) =     -78.658585        -80.369593
       Total energy      (eV) =     -67.593719        -69.018295
       Temperature       (K)  =    2761.339895       2832.821715
       Pressure         (GPa) =      22.948947         20.529539
  ** Time :            0.80600 ps :
     Properties:                   Instantaneous       Averaged
       Kinetic energy    (eV) =      11.478065         11.355387
       Potential energy  (eV) =     -78.341220        -80.304162
       Total energy      (eV) =     -66.863155        -68.948774
       Temperature       (K)  =    2864.457457       2833.842223
       Pressure         (GPa) =      23.662512         20.630603
  ** Time :            0.83200 ps :
     Properties:                   Instantaneous       Averaged
       Kinetic energy    (eV) =      12.218234         11.382351
       Potential energy  (eV) =     -80.605619        -80.313582
       Total energy      (eV) =     -68.387385        -68.931231
       Temperature       (K)  =    3049.173603       2840.571329
       Pressure         (GPa) =      20.766091         20.634837
  ** Time :            0.85800 ps :
     Properties:                   Instantaneous       Averaged
       Kinetic energy    (eV) =      11.758336         11.393745
       Potential energy  (eV) =     -82.184436        -80.370275
       Total energy      (eV) =     -70.426100        -68.976530
       Temperature       (K)  =    2934.401709       2843.414674
       Pressure         (GPa) =      19.223929         20.592082
  ** Time :            0.88400 ps :
     Properties:                   Instantaneous       Averaged
       Kinetic energy    (eV) =      11.196818         11.387953
       Potential energy  (eV) =     -80.578396        -80.376396
       Total energy      (eV) =     -69.381578        -68.988443
       Temperature       (K)  =    2794.269739       2841.969234
       Pressure         (GPa) =      21.035509         20.605124
  ** Time :            0.91000 ps :
     Properties:                   Instantaneous       Averaged
       Kinetic energy    (eV) =      11.786752         11.399347
       Potential energy  (eV) =     -81.965218        -80.421791
       Total energy      (eV) =     -70.178465        -69.022444
       Temperature       (K)  =    2941.493374       2844.812781
       Pressure         (GPa) =      19.316821         20.568316
  ** Time :            0.93600 ps :
     Properties:                   Instantaneous       Averaged
       Kinetic energy    (eV) =      11.254423         11.395321
       Potential energy  (eV) =     -81.996185        -80.465524
       Total energy      (eV) =     -70.741762        -69.070203
       Temperature       (K)  =    2808.645576       2843.808137
       Pressure         (GPa) =      18.909526         20.522238
  ** Time :            0.96200 ps :
     Properties:                   Instantaneous       Averaged
       Kinetic energy    (eV) =      10.976666         11.384006
       Potential energy  (eV) =     -78.777094        -80.419891
       Total energy      (eV) =     -67.800427        -69.035884
       Temperature       (K)  =    2739.328842       2840.984372
       Pressure         (GPa) =      22.267587         20.569410
  ** Time :            0.98800 ps :
     Properties:                   Instantaneous       Averaged
       Kinetic energy    (eV) =      11.774584         11.394285
       Potential energy  (eV) =     -79.181156        -80.387293
       Total energy      (eV) =     -67.406572        -68.993008
       Temperature       (K)  =    2938.456660       2843.549432
       Pressure         (GPa) =      22.244526         20.613492
  ** Time :            1.01400 ps :
     Properties:                   Instantaneous       Averaged
       Kinetic energy    (eV) =      11.545440         11.398161
       Potential energy  (eV) =     -79.621803        -80.367665
       Total energy      (eV) =     -68.076363        -68.969504
       Temperature       (K)  =    2881.271574       2844.516667
       Pressure         (GPa) =      21.598077         20.638737
  ** Time :            1.04000 ps :
     Properties:                   Instantaneous       Averaged
       Kinetic energy    (eV) =      11.852167         11.409511
       Potential energy  (eV) =     -81.244703        -80.389591
       Total energy      (eV) =     -69.392536        -68.980080
       Temperature       (K)  =    2957.818173       2847.349204
       Pressure         (GPa) =      19.847877         20.618966
  ** Time :            1.06600 ps :
     Properties:                   Instantaneous       Averaged
       Kinetic energy    (eV) =      10.977804         11.398981
       Potential energy  (eV) =     -79.678043        -80.372236
       Total energy      (eV) =     -68.700239        -68.973254
       Temperature       (K)  =    2739.612811       2844.721487
       Pressure         (GPa) =      21.789415         20.647514
  ** Time :            1.09200 ps :
     Properties:                   Instantaneous       Averaged
       Kinetic energy    (eV) =      11.157893         11.393241
       Potential energy  (eV) =     -77.924951        -80.313967
       Total energy      (eV) =     -66.767058        -68.920726
       Temperature       (K)  =    2784.555729       2843.288969
       Pressure         (GPa) =      24.481415         20.738797
  ** Time :            1.11800 ps :
     Properties:                   Instantaneous       Averaged
       Kinetic energy    (eV) =      11.923496         11.405573
       Potential energy  (eV) =     -78.656377        -80.275418
       Total energy      (eV) =     -66.732882        -68.869846
       Temperature       (K)  =    2975.618880       2846.366409
       Pressure         (GPa) =      24.072965         20.816336
  ** Time :            1.14400 ps :
     Properties:                   Instantaneous       Averaged
       Kinetic energy    (eV) =      12.265062         11.425106
       Potential energy  (eV) =     -81.708037        -80.307978
       Total energy      (eV) =     -69.442975        -68.882872
       Temperature       (K)  =    3060.859908       2851.241261
       Pressure         (GPa) =      20.197965         20.802282
  ** Time :            1.17000 ps :
     Properties:                   Instantaneous       Averaged
       Kinetic energy    (eV) =      11.453780         11.425744
       Potential energy  (eV) =     -82.418451        -80.354877
       Total energy      (eV) =     -70.964671        -68.929134
       Temperature       (K)  =    2858.396908       2851.400276
       Pressure         (GPa) =      18.648147         20.754412
  ** Time :            1.19600 ps :
     Properties:                   Instantaneous       Averaged
       Kinetic energy    (eV) =      10.876660         11.413807
       Potential energy  (eV) =     -79.900609        -80.345002
       Total energy      (eV) =     -69.023949        -68.931195
       Temperature       (K)  =    2714.371394       2848.421387
       Pressure         (GPa) =      21.518501         20.771023
  ** Time :            1.22200 ps :
     Properties:                   Instantaneous       Averaged
       Kinetic energy    (eV) =      11.518657         11.416038
       Potential energy  (eV) =     -79.211777        -80.320891
       Total energy      (eV) =     -67.693120        -68.904853
       Temperature       (K)  =    2874.587663       2848.978116
       Pressure         (GPa) =      22.962303         20.817646
  ** Time :            1.24800 ps :
     Properties:                   Instantaneous       Averaged
       Kinetic energy    (eV) =      11.693146         11.421811
       Potential energy  (eV) =     -79.600408        -80.305881
       Total energy      (eV) =     -67.907262        -68.884070
       Temperature       (K)  =    2918.133056       2850.418844
       Pressure         (GPa) =      22.302187         20.848574
  ** Time :            1.27400 ps :
     Properties:                   Instantaneous       Averaged
       Kinetic energy    (eV) =      11.375359         11.420863
       Potential energy  (eV) =     -80.780908        -80.315575
       Total energy      (eV) =     -69.405549        -68.894712
       Temperature       (K)  =    2838.826345       2850.182263
       Pressure         (GPa) =      20.799262         20.847567
  ** Time :            1.30000 ps :
     Properties:                   Instantaneous       Averaged
       Kinetic energy    (eV) =      10.875885         11.409963
       Potential energy  (eV) =     -78.704693        -80.283358
       Total energy      (eV) =     -67.828808        -68.873394
       Temperature       (K)  =    2714.177986       2847.462177
       Pressure         (GPa) =      22.706364         20.884743
  ** Time :            1.32600 ps :
     Properties:                   Instantaneous       Averaged
       Kinetic energy    (eV) =      12.418292         11.429735
       Potential energy  (eV) =     -79.691407        -80.271751
       Total energy      (eV) =     -67.273115        -68.842016
       Temperature       (K)  =    3099.099851       2852.396249
       Pressure         (GPa) =      21.921031         20.905063
  ** Time :            1.35200 ps :
     Properties:                   Instantaneous       Averaged
       Kinetic energy    (eV) =      11.149079         11.424337
       Potential energy  (eV) =     -81.010535        -80.285958
       Total energy      (eV) =     -69.861456        -68.861621
       Temperature       (K)  =    2782.356151       2851.049324
       Pressure         (GPa) =      19.846038         20.884697
  ** Time :            1.37800 ps :
     Properties:                   Instantaneous       Averaged
       Kinetic energy    (eV) =      11.392509         11.423737
       Potential energy  (eV) =     -79.195111        -80.265376
       Total energy      (eV) =     -67.802601        -68.841639
       Temperature       (K)  =    2843.106391       2850.899457
       Pressure         (GPa) =      22.111661         20.907847
  ** Time :            1.40400 ps :
     Properties:                   Instantaneous       Averaged
       Kinetic energy    (eV) =      11.742673         11.429643
       Potential energy  (eV) =     -80.503145        -80.269779
       Total energy      (eV) =     -68.760471        -68.840136
       Temperature       (K)  =    2930.492961       2852.373411
       Pressure         (GPa) =      21.144340         20.912227
  ** Time :            1.43000 ps :
     Properties:                   Instantaneous       Averaged
       Kinetic energy    (eV) =      11.898868         11.438174
       Potential energy  (eV) =     -81.620639        -80.294340
       Total energy      (eV) =     -69.721771        -68.856166
       Temperature       (K)  =    2969.472899       2854.502493
       Pressure         (GPa) =      19.599695         20.888362
  ** Time :            1.45600 ps :
     Properties:                   Instantaneous       Averaged
       Kinetic energy    (eV) =      11.013359         11.430588
       Potential energy  (eV) =     -81.538360        -80.316555
       Total energy      (eV) =     -70.525000        -68.885966
       Temperature       (K)  =    2748.485968       2852.609341
       Pressure         (GPa) =      19.575147         20.864912
  ** Time :            1.48200 ps :
     Properties:                   Instantaneous       Averaged
       Kinetic energy    (eV) =      10.800806         11.419540
       Potential energy  (eV) =     -77.525341        -80.267586
       Total energy      (eV) =     -66.724536        -68.848047
       Temperature       (K)  =    2695.441207       2849.852005
       Pressure         (GPa) =      23.340822         20.908349
  ** Time :            1.50800 ps :
     Properties:                   Instantaneous       Averaged
       Kinetic energy    (eV) =      11.948774         11.428664
       Potential energy  (eV) =     -80.026400        -80.263428
       Total energy      (eV) =     -68.077627        -68.834764
       Temperature       (K)  =    2981.927302       2852.129165
       Pressure         (GPa) =      20.935599         20.908819
  ** Time :            1.53400 ps :
     Properties:                   Instantaneous       Averaged
       Kinetic energy    (eV) =      10.799697         11.418004
       Potential energy  (eV) =     -78.362145        -80.231203
       Total energy      (eV) =     -67.562448        -68.813199
       Temperature       (K)  =    2695.164605       2849.468749
       Pressure         (GPa) =      22.305729         20.932495
  ** Time :            1.56000 ps :
     Properties:                   Instantaneous       Averaged
       Kinetic energy    (eV) =      11.179942         11.414036
       Potential energy  (eV) =     -79.886161        -80.225452
       Total energy      (eV) =     -68.706219        -68.811416
       Temperature       (K)  =    2790.058247       2848.478574
       Pressure         (GPa) =      21.546981         20.942737
  ** Time :            1.58600 ps :
     Properties:                   Instantaneous       Averaged
       Kinetic energy    (eV) =      11.851710         11.421211
       Potential energy  (eV) =     -78.461042        -80.196527
       Total energy      (eV) =     -66.609332        -68.775316
       Temperature       (K)  =    2957.704215       2850.269158
       Pressure         (GPa) =      23.409249         20.983171
  ** Time :            1.61200 ps :
     Properties:                   Instantaneous       Averaged
       Kinetic energy    (eV) =      11.332984         11.419788
       Potential energy  (eV) =     -80.050151        -80.194166
       Total energy      (eV) =     -68.717167        -68.774378
       Temperature       (K)  =    2828.251163       2849.914029
       Pressure         (GPa) =      21.627579         20.993565
  ** Time :            1.63800 ps :
     Properties:                   Instantaneous       Averaged
       Kinetic energy    (eV) =      11.694639         11.424151
       Potential energy  (eV) =     -79.754727        -80.187191
       Total energy      (eV) =     -68.060088        -68.763040
       Temperature       (K)  =    2918.505682       2851.002786
       Pressure         (GPa) =      21.883966         21.007698
  ** Time :            1.66400 ps :
     Properties:                   Instantaneous       Averaged
       Kinetic energy    (eV) =      11.102058         11.419118
       Potential energy  (eV) =     -78.382807        -80.158998
       Total energy      (eV) =     -67.280748        -68.739879
       Temperature       (K)  =    2770.621546       2849.746829
       Pressure         (GPa) =      23.051885         21.039639
  ** Time :            1.69000 ps :
     Properties:                   Instantaneous       Averaged
       Kinetic energy    (eV) =      11.516210         11.420612
       Potential energy  (eV) =     -78.348270        -80.131140
       Total energy      (eV) =     -66.832060        -68.710528
       Temperature       (K)  =    2873.977049       2850.119601
       Pressure         (GPa) =      23.029652         21.070254
  ** Time :            1.71600 ps :
     Properties:                   Instantaneous       Averaged
       Kinetic energy    (eV) =      11.897199         11.427833
       Potential energy  (eV) =     -77.781732        -80.095543
       Total energy      (eV) =     -65.884534        -68.667710
       Temperature       (K)  =    2969.056264       2851.921672
       Pressure         (GPa) =      23.345495         21.104728
  ** Time :            1.74200 ps :
     Properties:                   Instantaneous       Averaged
       Kinetic energy    (eV) =      11.066472         11.422439
       Potential energy  (eV) =     -79.917600        -80.092887
       Total energy      (eV) =     -68.851128        -68.670448
       Temperature       (K)  =    2761.740737       2850.575688
       Pressure         (GPa) =      21.267058         21.107151
  ** Time :            1.76800 ps :
     Properties:                   Instantaneous       Averaged
       Kinetic energy    (eV) =      11.664549         11.426000
       Potential energy  (eV) =     -79.090589        -80.078148
       Total energy      (eV) =     -67.426040        -68.652148
       Temperature       (K)  =    2910.996411       2851.464228
       Pressure         (GPa) =      22.147880         21.122455
  ** Time :            1.79400 ps :
     Properties:                   Instantaneous       Averaged
       Kinetic energy    (eV) =      11.819490         11.431703
       Potential energy  (eV) =     -79.715461        -80.072891
       Total energy      (eV) =     -67.895971        -68.641189
       Temperature       (K)  =    2949.663343       2852.887404
       Pressure         (GPa) =      21.841360         21.132874
  ** Time :            1.82000 ps :
     Properties:                   Instantaneous       Averaged
       Kinetic energy    (eV) =       9.875376         11.409469
       Potential energy  (eV) =     -77.904183        -80.041910
       Total energy      (eV) =     -68.028807        -68.632440
       Temperature       (K)  =    2464.491679       2847.338893
       Pressure         (GPa) =      23.372945         21.164875
  ** Time :            1.84600 ps :
     Properties:                   Instantaneous       Averaged
       Kinetic energy    (eV) =      12.079506         11.418907
       Potential energy  (eV) =     -77.246627        -80.002540
       Total energy      (eV) =     -65.167121        -68.583633
       Temperature       (K)  =    3014.552740       2849.694018
       Pressure         (GPa) =      24.338374         21.209573
  ** Time :            1.87200 ps :
     Properties:                   Instantaneous       Averaged
       Kinetic energy    (eV) =      11.264954         11.416768
       Potential energy  (eV) =     -78.190700        -79.977375
       Total energy      (eV) =     -66.925746        -68.560607
       Temperature       (K)  =    2811.273762       2849.160403
       Pressure         (GPa) =      23.409598         21.240128
  ** Time :            1.89800 ps :
     Properties:                   Instantaneous       Averaged
       Kinetic energy    (eV) =      11.536471         11.418408
       Potential energy  (eV) =     -79.500981        -79.970849
       Total energy      (eV) =     -67.964510        -68.552441
       Temperature       (K)  =    2879.033284       2849.569621
       Pressure         (GPa) =      21.885641         21.248971
  ** Time :            1.92400 ps :
     Properties:                   Instantaneous       Averaged
       Kinetic energy    (eV) =      11.817534         11.423802
       Potential energy  (eV) =     -79.826008        -79.968892
       Total energy      (eV) =     -68.008475        -68.545090
       Temperature       (K)  =    2949.175183       2850.915642
       Pressure         (GPa) =      20.930192         21.244663
  ** Time :            1.95000 ps :
     Properties:                   Instantaneous       Averaged
       Kinetic energy    (eV) =      11.267627         11.421719
       Potential energy  (eV) =     -79.862832        -79.967478
       Total energy      (eV) =     -68.595205        -68.545758
       Temperature       (K)  =    2811.940834       2850.395978
       Pressure         (GPa) =      20.851099         21.239416
  ** Time :            1.97600 ps :
     Properties:                   Instantaneous       Averaged
       Kinetic energy    (eV) =      11.258728         11.419575
       Potential energy  (eV) =     -79.916615        -79.966809
       Total energy      (eV) =     -68.657887        -68.547234
       Temperature       (K)  =    2809.719951       2849.860767
       Pressure         (GPa) =      21.376472         21.241219
  ** Time :            2.00200 ps :
     Properties:                   Instantaneous       Averaged
       Kinetic energy    (eV) =      11.122806         11.415721
       Potential energy  (eV) =     -79.014547        -79.954441
       Total energy      (eV) =     -67.891740        -68.538721
       Temperature       (K)  =    2775.799461       2848.898932
       Pressure         (GPa) =      22.468062         21.257152
  ** Time :            2.02800 ps :
     Properties:                   Instantaneous       Averaged
       Kinetic energy    (eV) =      12.012866         11.423376
       Potential energy  (eV) =     -79.314246        -79.946234
       Total energy      (eV) =     -67.301381        -68.522858
       Temperature       (K)  =    2997.922051       2850.809484
       Pressure         (GPa) =      21.519092         21.260510
  ** Time :            2.05400 ps :
     Properties:                   Instantaneous       Averaged
       Kinetic energy    (eV) =      10.874021         11.416422
       Potential energy  (eV) =     -79.538656        -79.941075
       Total energy      (eV) =     -68.664635        -68.524652
       Temperature       (K)  =    2713.712721       2849.074082
       Pressure         (GPa) =      20.823309         21.254976
  ** Time :            2.08000 ps :
     Properties:                   Instantaneous       Averaged
       Kinetic energy    (eV) =      11.796236         11.421170
       Potential energy  (eV) =     -80.314939        -79.945748
       Total energy      (eV) =     -68.518703        -68.524578
       Temperature       (K)  =    2943.860082       2850.258907
       Pressure         (GPa) =      21.080411         21.252794
  ** Time :            2.10600 ps :
     Properties:                   Instantaneous       Averaged
       Kinetic energy    (eV) =      10.949351         11.415345
       Potential energy  (eV) =     -79.356605        -79.938475
       Total energy      (eV) =     -68.407254        -68.523129
       Temperature       (K)  =    2732.511970       2848.805241
       Pressure         (GPa) =      22.707467         21.270753
  ** Time :            2.13200 ps :
     Properties:                   Instantaneous       Averaged
       Kinetic energy    (eV) =      11.814063         11.420208
       Potential energy  (eV) =     -78.776001        -79.924298
       Total energy      (eV) =     -66.961938        -68.504091
       Temperature       (K)  =    2948.309029       2850.018702
       Pressure         (GPa) =      22.861701         21.290155
  ** Time :            2.15800 ps :
     Properties:                   Instantaneous       Averaged
       Kinetic energy    (eV) =      11.726458         11.423897
       Potential energy  (eV) =     -81.007139        -79.937344
       Total energy      (eV) =     -69.280681        -68.513447
       Temperature       (K)  =    2926.446261       2850.939516
       Pressure         (GPa) =      19.654787         21.270452
  ** Time :            2.18400 ps :
     Properties:                   Instantaneous       Averaged
       Kinetic energy    (eV) =      11.303921         11.422469
       Potential energy  (eV) =     -79.431825        -79.931326
       Total energy      (eV) =     -68.127904        -68.508857
       Temperature       (K)  =    2820.998277       2850.583073
       Pressure         (GPa) =      21.508704         21.273288
  ** Time :            2.21000 ps :
     Properties:                   Instantaneous       Averaged
       Kinetic energy    (eV) =      11.913257         11.428243
       Potential energy  (eV) =     -80.553453        -79.938645
       Total energy      (eV) =     -68.640196        -68.510402
       Temperature       (K)  =    2973.063773       2852.024022
       Pressure         (GPa) =      20.864168         21.268475
  ** Time :            2.23600 ps :
     Properties:                   Instantaneous       Averaged
       Kinetic energy    (eV) =      10.508625         11.417550
       Potential energy  (eV) =     -79.562385        -79.934270
       Total energy      (eV) =     -69.053760        -68.516721
       Temperature       (K)  =    2622.524725       2849.355426
       Pressure         (GPa) =      21.766789         21.274269
  ** Time :            2.26200 ps :
     Properties:                   Instantaneous       Averaged
       Kinetic energy    (eV) =      12.345823         11.428220
       Potential energy  (eV) =     -78.436058        -79.917049
       Total energy      (eV) =     -66.090235        -68.488830
       Temperature       (K)  =    3081.014584       2852.018175
       Pressure         (GPa) =      23.342162         21.298038
  ** Time :            2.28800 ps :
     Properties:                   Instantaneous       Averaged
       Kinetic energy    (eV) =      11.439757         11.428351
       Potential energy  (eV) =     -80.195968        -79.920219
       Total energy      (eV) =     -68.756210        -68.491868
       Temperature       (K)  =    2854.897543       2852.050895
       Pressure         (GPa) =      21.086433         21.295633
  ** Time :            2.31400 ps :
     Properties:                   Instantaneous       Averaged
       Kinetic energy    (eV) =      11.857420         11.433172
       Potential energy  (eV) =     -81.179219        -79.934365
       Total energy      (eV) =     -69.321799        -68.501193
       Temperature       (K)  =    2959.129107       2853.254021
       Pressure         (GPa) =      20.392827         21.285489
  ** Time :            2.34000 ps :
     Properties:                   Instantaneous       Averaged
       Kinetic energy    (eV) =      11.284727         11.431522
       Potential energy  (eV) =     -79.156357        -79.925721
       Total energy      (eV) =     -67.871631        -68.494198
       Temperature       (K)  =    2816.208168       2852.842400
       Pressure         (GPa) =      22.617773         21.300293
  ** Time :            2.36600 ps :
     Properties:                   Instantaneous       Averaged
       Kinetic energy    (eV) =      11.408848         11.431273
       Potential energy  (eV) =     -80.463414        -79.931629
       Total energy      (eV) =     -69.054566        -68.500356
       Temperature       (K)  =    2847.183892       2852.780219
       Pressure         (GPa) =      21.485445         21.302327
  ** Time :            2.39200 ps :
     Properties:                   Instantaneous       Averaged
       Kinetic energy    (eV) =      10.182652         11.417701
       Potential energy  (eV) =     -76.407643        -79.893325
       Total energy      (eV) =     -66.224991        -68.475624
       Temperature       (K)  =    2541.175291       2849.393209
       Pressure         (GPa) =      25.160971         21.344269
  ** Time :            2.41800 ps :
     Properties:                   Instantaneous       Averaged
       Kinetic energy    (eV) =      12.194896         11.426058
       Potential energy  (eV) =     -76.532561        -79.857188
       Total energy      (eV) =     -64.337665        -68.431130
       Temperature       (K)  =    3043.349448       2851.478760
       Pressure         (GPa) =      25.625947         21.390309
  ** Time :            2.44400 ps :
     Properties:                   Instantaneous       Averaged
       Kinetic energy    (eV) =      11.554401         11.427423
       Potential energy  (eV) =     -78.216568        -79.839734
       Total energy      (eV) =     -66.662167        -68.412311
       Temperature       (K)  =    2883.507988       2851.819496
       Pressure         (GPa) =      23.879543         21.416790
  ** Time :            2.47000 ps :
     Properties:                   Instantaneous       Averaged
       Kinetic energy    (eV) =      11.657163         11.429842
       Potential energy  (eV) =     -77.938192        -79.819718
       Total energy      (eV) =     -66.281029        -68.389876
       Temperature       (K)  =    2909.153161       2852.423008
       Pressure         (GPa) =      24.330204         21.447457
  ** Time :            2.49600 ps :
     Properties:                   Instantaneous       Averaged
       Kinetic energy    (eV) =      11.262303         11.428097
       Potential energy  (eV) =     -78.195488        -79.802799
       Total energy      (eV) =     -66.933185        -68.374703
       Temperature       (K)  =    2810.612144       2851.987479
       Pressure         (GPa) =      24.251808         21.476669
  ** Time :            2.52200 ps :
     Properties:                   Instantaneous       Averaged
       Kinetic energy    (eV) =      11.784977         11.431776
       Potential energy  (eV) =     -78.413750        -79.788479
       Total energy      (eV) =     -66.628773        -68.356703
       Temperature       (K)  =    2941.050287       2852.905652
       Pressure         (GPa) =      24.230699         21.505061
  ** Time :            2.54800 ps :
     Properties:                   Instantaneous       Averaged
       Kinetic energy    (eV) =      11.982411         11.437394
       Potential energy  (eV) =     -78.819858        -79.778595
       Total energy      (eV) =     -66.837446        -68.341201
       Temperature       (K)  =    2990.321909       2854.307859
       Pressure         (GPa) =      22.857338         21.518860
  ** Time :            2.57400 ps :
     Properties:                   Instantaneous       Averaged
       Kinetic energy    (eV) =      11.762599         11.440679
       Potential energy  (eV) =     -82.322883        -79.804295
       Total energy      (eV) =     -70.560284        -68.363616
       Temperature       (K)  =    2935.465640       2855.127634
       Pressure         (GPa) =      18.877808         21.492183
  ** Time :            2.60000 ps :
     Properties:                   Instantaneous       Averaged
       Kinetic energy    (eV) =      10.829979         11.434572
       Potential energy  (eV) =     -78.923451        -79.795487
       Total energy      (eV) =     -68.093472        -68.360914
       Temperature       (K)  =    2702.721633       2853.603574
       Pressure         (GPa) =      22.087571         21.498137
  ** Time :            2.62600 ps :
     Properties:                   Instantaneous       Averaged
       Kinetic energy    (eV) =      11.870955         11.438893
       Potential energy  (eV) =     -81.226740        -79.809657
       Total energy      (eV) =     -69.355785        -68.370764
       Temperature       (K)  =    2962.506785       2854.681824
       Pressure         (GPa) =      19.874476         21.482061
  ** Time :            2.65200 ps :
     Properties:                   Instantaneous       Averaged
       Kinetic energy    (eV) =      11.405518         11.438566
       Potential energy  (eV) =     -80.653633        -79.817932
       Total energy      (eV) =     -69.248115        -68.379366
       Temperature       (K)  =    2846.352780       2854.600167
       Pressure         (GPa) =      20.304439         21.470516
  ** Time :            2.67800 ps :
     Properties:                   Instantaneous       Averaged
       Kinetic energy    (eV) =      11.672798         11.440840
       Potential energy  (eV) =     -81.602130        -79.835254
       Total energy      (eV) =     -69.929332        -68.394414
       Temperature       (K)  =    2913.054897       2855.167688
       Pressure         (GPa) =      19.667684         21.453012
  ** Time :            2.70400 ps :
     Properties:                   Instantaneous       Averaged
       Kinetic energy    (eV) =      11.146127         11.438006
       Potential energy  (eV) =     -78.908306        -79.826341
       Total energy      (eV) =     -67.762179        -68.388335
       Temperature       (K)  =    2781.619311       2854.460492
       Pressure         (GPa) =      22.081643         21.459057
  ** Time :            2.73000 ps :
     Properties:                   Instantaneous       Averaged
       Kinetic energy    (eV) =      12.058493         11.443915
       Potential energy  (eV) =     -81.122921        -79.838689
       Total energy      (eV) =     -69.064427        -68.394774
       Temperature       (K)  =    3009.308845       2855.935238
       Pressure         (GPa) =      19.759529         21.442871
  ** Time :            2.75600 ps :
     Properties:                   Instantaneous       Averaged
       Kinetic energy    (eV) =      10.868441         11.438486
       Potential energy  (eV) =     -79.202419        -79.832687
       Total energy      (eV) =     -68.333977        -68.394200
       Temperature       (K)  =    2712.320329       2854.580381
       Pressure         (GPa) =      21.296773         21.441493
  ** Time :            2.78200 ps :
     Properties:                   Instantaneous       Averaged
       Kinetic energy    (eV) =      11.405483         11.438178
       Potential energy  (eV) =     -80.075101        -79.834952
       Total energy      (eV) =     -68.669618        -68.396774
       Temperature       (K)  =    2846.344088       2854.503406
       Pressure         (GPa) =      21.357279         21.440706
  ** Time :            2.80800 ps :
     Properties:                   Instantaneous       Averaged
       Kinetic energy    (eV) =      11.439854         11.438194
       Potential energy  (eV) =     -79.476140        -79.831630
       Total energy      (eV) =     -68.036285        -68.393436
       Temperature       (K)  =    2854.921767       2854.507280
       Pressure         (GPa) =      22.379246         21.449396
  ** Time :            2.83400 ps :
     Properties:                   Instantaneous       Averaged
       Kinetic energy    (eV) =      11.575205         11.439451
       Potential energy  (eV) =     -78.125261        -79.815975
       Total energy      (eV) =     -66.550056        -68.376525
       Temperature       (K)  =    2888.699694       2854.820972
       Pressure         (GPa) =      23.518281         21.468376
  ** Time :            2.86000 ps :
     Properties:                   Instantaneous       Averaged
       Kinetic energy    (eV) =      10.915459         11.434687
       Potential energy  (eV) =     -77.388353        -79.793906
       Total energy      (eV) =     -66.472894        -68.359219
       Temperature       (K)  =    2724.054048       2853.632181
       Pressure         (GPa) =      24.532215         21.496229
  ** Time :            2.88600 ps :
     Properties:                   Instantaneous       Averaged
       Kinetic energy    (eV) =      11.432454         11.434667
       Potential energy  (eV) =     -76.214168        -79.761656
       Total energy      (eV) =     -64.781714        -68.326989
       Temperature       (K)  =    2853.074881       2853.627161
       Pressure         (GPa) =      26.135678         21.538026
  ** Time :            2.91200 ps :
     Properties:                   Instantaneous       Averaged
       Kinetic energy    (eV) =      11.475895         11.435035
       Potential energy  (eV) =     -76.086658        -79.728844
       Total energy      (eV) =     -64.610763        -68.293809
       Temperature       (K)  =    2863.916030       2853.719026
       Pressure         (GPa) =      26.840210         21.585367
  ** Time :            2.93800 ps :
     Properties:                   Instantaneous       Averaged
       Kinetic energy    (eV) =      11.344375         11.434233
       Potential energy  (eV) =     -75.997783        -79.695825
       Total energy      (eV) =     -64.653408        -68.261593
       Temperature       (K)  =    2831.093939       2853.518804
       Pressure         (GPa) =      26.625647         21.629971
  ** Time :            2.96400 ps :
     Properties:                   Instantaneous       Averaged
       Kinetic energy    (eV) =      12.488330         11.443479
       Potential energy  (eV) =     -77.012427        -79.672287
       Total energy      (eV) =     -64.524096        -68.228808
       Temperature       (K)  =    3116.578667       2855.826346
       Pressure         (GPa) =      25.002134         21.659552
  ** Time :            2.99000 ps :
     Properties:                   Instantaneous       Averaged
       Kinetic energy    (eV) =      11.595239         11.444799
       Potential energy  (eV) =     -79.974144        -79.674912
       Total energy      (eV) =     -68.378905        -68.230113
       Temperature       (K)  =    2893.699530       2856.155678
       Pressure         (GPa) =      21.470689         21.657909
  ** Time :            3.01600 ps :
     Properties:                   Instantaneous       Averaged
       Kinetic energy    (eV) =      11.780379         11.447692
       Potential energy  (eV) =     -79.829306        -79.676243
       Total energy      (eV) =     -68.048927        -68.228551
       Temperature       (K)  =    2939.902895       2856.877637
       Pressure         (GPa) =      22.001030         21.660867
  ** Time :            3.04200 ps :
     Properties:                   Instantaneous       Averaged
       Kinetic energy    (eV) =      11.567950         11.448720
       Potential energy  (eV) =     -80.083703        -79.679725
       Total energy      (eV) =     -68.515753        -68.231006
       Temperature       (K)  =    2886.889262       2857.134147
       Pressure         (GPa) =      21.765529         21.661762
  ** Time :            3.06800 ps :
     Properties:                   Instantaneous       Averaged
       Kinetic energy    (eV) =      11.874258         11.452326
       Potential energy  (eV) =     -81.179658        -79.692436
       Total energy      (eV) =     -69.305400        -68.240111
       Temperature       (K)  =    2963.331227       2858.034122
       Pressure         (GPa) =      20.284648         21.650091
  ** Time :            3.09400 ps :
     Properties:                   Instantaneous       Averaged
       Kinetic energy    (eV) =      11.155665         11.449833
       Potential energy  (eV) =     -79.662318        -79.692183
       Total energy      (eV) =     -68.506653        -68.242350
       Temperature       (K)  =    2783.999771       2857.411985
       Pressure         (GPa) =      21.820870         21.651527
  ** Time :            3.12000 ps :
     Properties:                   Instantaneous       Averaged
       Kinetic energy    (eV) =      11.316636         11.448723
       Potential energy  (eV) =     -79.570401        -79.691169
       Total energy      (eV) =     -68.253765        -68.242446
       Temperature       (K)  =    2824.171345       2857.134979
       Pressure         (GPa) =      22.448507         21.658168
  ** Time :            3.14600 ps :
     Properties:                   Instantaneous       Averaged
       Kinetic energy    (eV) =      12.102529         11.454126
       Potential energy  (eV) =     -79.928731        -79.693132
       Total energy      (eV) =     -67.826202        -68.239006
       Temperature       (K)  =    3020.298268       2858.483436
       Pressure         (GPa) =      21.826609         21.659560
  ** Time :            3.17200 ps :
     Properties:                   Instantaneous       Averaged
       Kinetic energy    (eV) =      11.154272         11.451668
       Potential energy  (eV) =     -80.063169        -79.696165
       Total energy      (eV) =     -68.908897        -68.244496
       Temperature       (K)  =    2783.652077       2857.870064
       Pressure         (GPa) =      21.169430         21.655543
  ** Time :            3.19800 ps :
     Properties:                   Instantaneous       Averaged
       Kinetic energy    (eV) =      12.010066         11.456208
       Potential energy  (eV) =     -80.009870        -79.698715
       Total energy      (eV) =     -67.999805        -68.242507
       Temperature       (K)  =    2997.223259       2859.003017
       Pressure         (GPa) =      21.388766         21.653374
  ** Time :            3.22400 ps :
     Properties:                   Instantaneous       Averaged
       Kinetic energy    (eV) =      11.275942         11.454755
       Potential energy  (eV) =     -80.900852        -79.708410
       Total energy      (eV) =     -69.624910        -68.253656
       Temperature       (K)  =    2814.016018       2858.640219
       Pressure         (GPa) =      20.338208         21.642768
  ** Time :            3.25000 ps :
     Properties:                   Instantaneous       Averaged
       Kinetic energy    (eV) =      11.332148         11.453774
       Potential energy  (eV) =     -79.785753        -79.709029
       Total energy      (eV) =     -68.453605        -68.255255
       Temperature       (K)  =    2828.042579       2858.395438
       Pressure         (GPa) =      21.937774         21.645128
  ** Time :            3.27600 ps :
     Properties:                   Instantaneous       Averaged
       Kinetic energy    (eV) =      11.517880         11.454282
       Potential energy  (eV) =     -79.054096        -79.703831
       Total energy      (eV) =     -67.536216        -68.249548
       Temperature       (K)  =    2874.393743       2858.522408
       Pressure         (GPa) =      22.834329         21.654566
  ** Time :            3.30200 ps :
     Properties:                   Instantaneous       Averaged
       Kinetic energy    (eV) =      11.695256         11.456180
       Potential energy  (eV) =     -79.262747        -79.700358
       Total energy      (eV) =     -67.567492        -68.244178
       Temperature       (K)  =    2918.659567       2858.995929
       Pressure         (GPa) =      22.522781         21.661402
  ** Time :            3.32800 ps :
     Properties:                   Instantaneous       Averaged
       Kinetic energy    (eV) =      11.621970         11.457475
       Potential energy  (eV) =     -80.034281        -79.702967
       Total energy      (eV) =     -68.412310        -68.245491
       Temperature       (K)  =    2900.370498       2859.319168
       Pressure         (GPa) =      21.600538         21.660927
  ** Time :            3.35400 ps :
     Properties:                   Instantaneous       Averaged
       Kinetic energy    (eV) =      11.418814         11.457175
       Potential energy  (eV) =     -78.810216        -79.696046
       Total energy      (eV) =     -67.391401        -68.238871
       Temperature       (K)  =    2849.671029       2859.244376
       Pressure         (GPa) =      22.942448         21.670861
  ** Time :            3.38000 ps :
     Properties:                   Instantaneous       Averaged
       Kinetic energy    (eV) =      11.856436         11.460247
       Potential energy  (eV) =     -80.025448        -79.698580
       Total energy      (eV) =     -68.169012        -68.238333
       Temperature       (K)  =    2958.883539       2860.010831
       Pressure         (GPa) =      21.824652         21.672044
  ** Time :            3.40600 ps :
     Properties:                   Instantaneous       Averaged
       Kinetic energy    (eV) =      11.635671         11.461586
       Potential energy  (eV) =     -81.456733        -79.712001
       Total energy      (eV) =     -69.821062        -68.250415
       Temperature       (K)  =    2903.789652       2860.345021
       Pressure         (GPa) =      20.183954         21.660684
  ** Time :            3.43200 ps :
     Properties:                   Instantaneous       Averaged
       Kinetic energy    (eV) =      11.398246         11.461106
       Potential energy  (eV) =     -80.533691        -79.718226
       Total energy      (eV) =     -69.135444        -68.257120
       Temperature       (K)  =    2844.538117       2860.225272
       Pressure         (GPa) =      21.009592         21.655752
  ** Time :            3.45800 ps :
     Properties:                   Instantaneous       Averaged
       Kinetic energy    (eV) =      11.812925         11.463751
       Potential energy  (eV) =     -79.302329        -79.715099
       Total energy      (eV) =     -67.489404        -68.251348
       Temperature       (K)  =    2948.025015       2860.885420
       Pressure         (GPa) =      22.144294         21.659425
  ** Time :            3.48400 ps :
     Properties:                   Instantaneous       Averaged
       Kinetic energy    (eV) =      10.841269         11.459106
       Potential energy  (eV) =     -78.357991        -79.704971
       Total energy      (eV) =     -67.516723        -68.245865
       Temperature       (K)  =    2705.539112       2859.726119
       Pressure         (GPa) =      22.528232         21.665909
  ** Time :            3.51000 ps :
     Properties:                   Instantaneous       Averaged
       Kinetic energy    (eV) =      11.627441         11.460353
       Potential energy  (eV) =     -78.027161        -79.692543
       Total energy      (eV) =     -66.399720        -68.232190
       Temperature       (K)  =    2901.735845       2860.037302
       Pressure         (GPa) =      23.022541         21.675958
  ** Time :            3.53600 ps :
     Properties:                   Instantaneous       Averaged
       Kinetic energy    (eV) =      11.770305         11.462632
       Potential energy  (eV) =     -78.759532        -79.685683
       Total energy      (eV) =     -66.989226        -68.223051
       Temperature       (K)  =    2937.388867       2860.606064
       Pressure         (GPa) =      22.404689         21.681316
  ** Time :            3.56200 ps :
     Properties:                   Instantaneous       Averaged
       Kinetic energy    (eV) =      11.322935         11.461612
       Potential energy  (eV) =     -78.865200        -79.679694
       Total energy      (eV) =     -67.542265        -68.218081
       Temperature       (K)  =    2825.743368       2860.351592
       Pressure         (GPa) =      22.790489         21.689412
  ** Time :            3.58800 ps :
     Properties:                   Instantaneous       Averaged
       Kinetic energy    (eV) =      11.139620         11.459279
       Potential energy  (eV) =     -75.998724        -79.653020
       Total energy      (eV) =     -64.859104        -68.193741
       Temperature       (K)  =    2779.995529       2859.769301
       Pressure         (GPa) =      25.980691         21.720509
  ** Time :            3.61400 ps :
     Properties:                   Instantaneous       Averaged
       Kinetic energy    (eV) =      12.174975         11.464428
       Potential energy  (eV) =     -77.921565        -79.640563
       Total energy      (eV) =     -65.746590        -68.176136
       Temperature       (K)  =    3038.378006       2861.054256
       Pressure         (GPa) =      24.222178         21.738506
  ** Time :            3.64000 ps :
     Properties:                   Instantaneous       Averaged
       Kinetic energy    (eV) =      11.330233         11.463469
       Potential energy  (eV) =     -78.805740        -79.634600
       Total energy      (eV) =     -67.475507        -68.171131
       Temperature       (K)  =    2827.564613       2860.815044
       Pressure         (GPa) =      22.811182         21.746168
  ** Time :            3.66600 ps :
     Properties:                   Instantaneous       Averaged
       Kinetic energy    (eV) =      11.815896         11.465969
       Potential energy  (eV) =     -79.775292        -79.635598
       Total energy      (eV) =     -67.959395        -68.169630
       Temperature       (K)  =    2948.766525       2861.438814
       Pressure         (GPa) =      21.942585         21.747561
  ** Time :            3.69200 ps :
     Properties:                   Instantaneous       Averaged
       Kinetic energy    (eV) =      11.102085         11.463406
       Potential energy  (eV) =     -78.788888        -79.629635
       Total energy      (eV) =     -67.686804        -68.166229
       Temperature       (K)  =    2770.628186       2860.799302
       Pressure         (GPa) =      22.641106         21.753854
  ** Time :            3.71800 ps :
     Properties:                   Instantaneous       Averaged
       Kinetic energy    (eV) =      11.416339         11.463077
       Potential energy  (eV) =     -77.196280        -79.612619
       Total energy      (eV) =     -65.779941        -68.149542
       Temperature       (K)  =    2849.053390       2860.717163
       Pressure         (GPa) =      23.700652         21.767468
  ** Time :            3.74400 ps :
     Properties:                   Instantaneous       Averaged
       Kinetic energy    (eV) =      12.195708         11.468165
       Potential energy  (eV) =     -79.184436        -79.609645
       Total energy      (eV) =     -66.988728        -68.141481
       Temperature       (K)  =    3043.552013       2861.986849
       Pressure         (GPa) =      21.969166         21.768868
  ** Time :            3.77000 ps :
     Properties:                   Instantaneous       Averaged
       Kinetic energy    (eV) =      10.668510         11.462650
       Potential energy  (eV) =     -77.835753        -79.597412
       Total energy      (eV) =     -67.167243        -68.134762
       Temperature       (K)  =    2662.425542       2860.610565
       Pressure         (GPa) =      23.096879         21.778027
  ** Time :            3.79600 ps :
     Properties:                   Instantaneous       Averaged
       Kinetic energy    (eV) =      11.596758         11.463568
       Potential energy  (eV) =     -77.420637        -79.582502
       Total energy      (eV) =     -65.823879        -68.118934
       Temperature       (K)  =    2894.078474       2860.839797
       Pressure         (GPa) =      23.972396         21.793057
  ** Time :            3.82200 ps :
     Properties:                   Instantaneous       Averaged
       Kinetic energy    (eV) =      12.020877         11.467360
       Potential energy  (eV) =     -78.616412        -79.575930
       Total energy      (eV) =     -66.595536        -68.108571
       Temperature       (K)  =    2999.921268       2861.785929
       Pressure         (GPa) =      22.999426         21.801264
  ** Time :            3.84800 ps :
     Properties:                   Instantaneous       Averaged
       Kinetic energy    (eV) =      11.984675         11.470855
       Potential energy  (eV) =     -80.017478        -79.578914
       Total energy      (eV) =     -68.032803        -68.108059
       Temperature       (K)  =    2990.886794       2862.658232
       Pressure         (GPa) =      21.308302         21.797933
  ** Time :            3.87400 ps :
     Properties:                   Instantaneous       Averaged
       Kinetic energy    (eV) =      11.073529         11.468188
       Potential energy  (eV) =     -80.119035        -79.582539
       Total energy      (eV) =     -69.045506        -68.114350
       Temperature       (K)  =    2763.501837       2861.992753
       Pressure         (GPa) =      21.352560         21.794944
  ** Time :            3.90000 ps :
     Properties:                   Instantaneous       Averaged
       Kinetic energy    (eV) =      10.901456         11.464410
       Potential energy  (eV) =     -77.422295        -79.568137
       Total energy      (eV) =     -66.520839        -68.103727
       Temperature       (K)  =    2720.559489       2861.049865
       Pressure         (GPa) =      23.912355         21.809060
  ** Time :            3.92600 ps :
     Properties:                   Instantaneous       Averaged
       Kinetic energy    (eV) =      12.373565         11.470431
       Potential energy  (eV) =     -78.840393        -79.563318
       Total energy      (eV) =     -66.466828        -68.092887
       Temperature       (K)  =    3087.937822       2862.552434
       Pressure         (GPa) =      22.963908         21.816708
  ** Time :            3.95200 ps :
     Properties:                   Instantaneous       Averaged
       Kinetic energy    (eV) =      11.415332         11.470069
       Potential energy  (eV) =     -79.812116        -79.564954
       Total energy      (eV) =     -68.396785        -68.094886
       Temperature       (K)  =    2848.801889       2862.461970
       Pressure         (GPa) =      21.750452         21.816272
  ** Time :            3.97800 ps :
     Properties:                   Instantaneous       Averaged
       Kinetic energy    (eV) =      11.869411         11.472679
       Potential energy  (eV) =     -80.876790        -79.573528
       Total energy      (eV) =     -69.007379        -68.100850
       Temperature       (K)  =    2962.121582       2863.113340
       Pressure         (GPa) =      20.534684         21.807896
  ** Time :            4.00400 ps :
     Properties:                   Instantaneous       Averaged
       Kinetic energy    (eV) =      10.666881         11.467446
       Potential energy  (eV) =     -78.425431        -79.566073
       Total energy      (eV) =     -67.758549        -68.098627
       Temperature       (K)  =    2662.019183       2861.807534
       Pressure         (GPa) =      22.491639         21.812335
  ** Time :            4.03000 ps :
     Properties:                   Instantaneous       Averaged
       Kinetic energy    (eV) =      11.338300         11.466613
       Potential energy  (eV) =     -78.271603        -79.557722
       Total energy      (eV) =     -66.933304        -68.091109
       Temperature       (K)  =    2829.577808       2861.599600
       Pressure         (GPa) =      22.950487         21.819678
  ** Time :            4.05600 ps :
     Properties:                   Instantaneous       Averaged
       Kinetic energy    (eV) =      11.714044         11.468199
       Potential energy  (eV) =     -79.132830        -79.554998
       Total energy      (eV) =     -67.418786        -68.086799
       Temperature       (K)  =    2923.348279       2861.995425
       Pressure         (GPa) =      22.499059         21.824033
  ** Time :            4.08200 ps :
     Properties:                   Instantaneous       Averaged
       Kinetic energy    (eV) =      11.626573         11.469208
       Potential energy  (eV) =     -79.345721        -79.553665
       Total energy      (eV) =     -67.719148        -68.084457
       Temperature       (K)  =    2901.519143       2862.247168
       Pressure         (GPa) =      22.021919         21.825294
  ** Time :            4.10800 ps :
     Properties:                   Instantaneous       Averaged
       Kinetic energy    (eV) =      10.927237         11.465778
       Potential energy  (eV) =     -80.055916        -79.556844
       Total energy      (eV) =     -69.128678        -68.091066
       Temperature       (K)  =    2726.993381       2861.391132
       Pressure         (GPa) =      21.076296         21.820553
  ** Time :            4.13400 ps :
     Properties:                   Instantaneous       Averaged
       Kinetic energy    (eV) =      11.814159         11.467969
       Potential energy  (eV) =     -78.011744        -79.547126
       Total energy      (eV) =     -66.197585        -68.079158
       Temperature       (K)  =    2948.332895       2861.937935
       Pressure         (GPa) =      22.810904         21.826782
  ** Time :            4.16000 ps :
     Properties:                   Instantaneous       Averaged
       Kinetic energy    (eV) =      11.716060         11.469519
       Potential energy  (eV) =     -79.859695        -79.549080
       Total energy      (eV) =     -68.143635        -68.079561
       Temperature       (K)  =    2923.851451       2862.324895
       Pressure         (GPa) =      21.022964         21.821758
  ** Time :            4.18600 ps :
     Properties:                   Instantaneous       Averaged
       Kinetic energy    (eV) =      11.087678         11.467148
       Potential energy  (eV) =     -79.492830        -79.548731
       Total energy      (eV) =     -68.405153        -68.081583
       Temperature       (K)  =    2767.032746       2861.733018
       Pressure         (GPa) =      21.651733         21.820702
  ** Time :            4.21200 ps :
     Properties:                   Instantaneous       Averaged
       Kinetic energy    (eV) =      11.825247         11.469358
       Potential energy  (eV) =     -77.332570        -79.535051
       Total energy      (eV) =     -65.507323        -68.065693
       Temperature       (K)  =    2951.100008       2862.284666
       Pressure         (GPa) =      23.879026         21.833408
  ** Time :            4.23800 ps :
     Properties:                   Instantaneous       Averaged
       Kinetic energy    (eV) =      11.441114         11.469185
       Potential energy  (eV) =     -79.553022        -79.535161
       Total energy      (eV) =     -68.111907        -68.065976
       Temperature       (K)  =    2855.236208       2862.241424
       Pressure         (GPa) =      21.752963         21.832914
  ** Time :            4.26400 ps :
     Properties:                   Instantaneous       Averaged
       Kinetic energy    (eV) =      11.842788         11.471463
[...]
       Kinetic energy    (eV) =       9.585088         12.475368
       Potential energy  (eV) =     -75.397654        -78.505049
       Total energy      (eV) =     -65.812566        -66.029681
       Temperature       (K)  =    2392.047582       3113.343785
       Pressure         (GPa) =      25.843278         23.279048
  ** Time :            8.86600 ps :
     Properties:                   Instantaneous       Averaged
       Kinetic energy    (eV) =      10.451667         12.469433
       Potential energy  (eV) =     -76.577216        -78.499396
       Total energy      (eV) =     -66.125549        -66.029962
       Temperature       (K)  =    2608.310506       3111.862749
       Pressure         (GPa) =      25.367646         23.285172
  ** Time :            8.89200 ps :
     Properties:                   Instantaneous       Averaged
       Kinetic energy    (eV) =      11.579844         12.466832
       Potential energy  (eV) =     -77.710644        -78.497090
       Total energy      (eV) =     -66.130800        -66.030257
       Temperature       (K)  =    2889.857409       3111.213611
       Pressure         (GPa) =      24.430592         23.288522
  ** Time :            8.91800 ps :
     Properties:                   Instantaneous       Averaged
       Kinetic energy    (eV) =      11.617851         12.464357
       Potential energy  (eV) =     -77.664425        -78.494662
       Total energy      (eV) =     -66.046574        -66.030305
       Temperature       (K)  =    2899.342344       3110.595911
       Pressure         (GPa) =      24.086251         23.290847
  ** Time :            8.94400 ps :
     Properties:                   Instantaneous       Averaged
       Kinetic energy    (eV) =      12.672138         12.464961
       Potential energy  (eV) =     -78.808818        -78.495575
       Total energy      (eV) =     -66.136680        -66.030614
       Temperature       (K)  =    3162.449539       3110.746648
       Pressure         (GPa) =      22.739407         23.289244
  ** Time :            8.97000 ps :
     Properties:                   Instantaneous       Averaged
       Kinetic energy    (eV) =      12.188401         12.464160
       Potential energy  (eV) =     -78.058029        -78.494307
       Total energy      (eV) =     -65.869628        -66.030147
       Temperature       (K)  =    3041.728564       3110.546595
       Pressure         (GPa) =      23.107403         23.288717
  ** Time :            8.99600 ps :
     Properties:                   Instantaneous       Averaged
       Kinetic energy    (eV) =      14.924827         12.471271
       Potential energy  (eV) =     -81.187226        -78.502090
       Total energy      (eV) =     -66.262399        -66.030819
       Temperature       (K)  =    3724.629058       3112.321400
       Pressure         (GPa) =      20.680301         23.281179
  ** Time :            9.02200 ps :
     Properties:                   Instantaneous       Averaged
       Kinetic energy    (eV) =      11.469840         12.468385
       Potential energy  (eV) =     -77.484663        -78.499158
       Total energy      (eV) =     -66.014824        -66.030773
       Temperature       (K)  =    2862.404911       3111.601180
       Pressure         (GPa) =      23.971810         23.283169
  ** Time :            9.04800 ps :
     Properties:                   Instantaneous       Averaged
       Kinetic energy    (eV) =      11.277799         12.464964
       Potential energy  (eV) =     -77.459747        -78.496171
       Total energy      (eV) =     -66.181948        -66.031207
       Temperature       (K)  =    2814.479352       3110.747381
       Pressure         (GPa) =      24.650713         23.287099
  ** Time :            9.07400 ps :
     Properties:                   Instantaneous       Averaged
       Kinetic energy    (eV) =      11.814202         12.463099
       Potential energy  (eV) =     -77.944226        -78.494590
       Total energy      (eV) =     -66.130024        -66.031490
       Temperature       (K)  =    2948.343645       3110.282041
       Pressure         (GPa) =      24.156291         23.289589
  ** Time :            9.10000 ps :
     Properties:                   Instantaneous       Averaged
       Kinetic energy    (eV) =      11.185962         12.459450
       Potential energy  (eV) =     -77.241361        -78.491009
       Total energy      (eV) =     -66.055399        -66.031558
       Temperature       (K)  =    2791.560509       3109.371408
       Pressure         (GPa) =      24.646379         23.293466
  ** Time :            9.12600 ps :
     Properties:                   Instantaneous       Averaged
       Kinetic energy    (eV) =      10.587295         12.454117
       Potential energy  (eV) =     -76.685402        -78.485865
       Total energy      (eV) =     -66.098107        -66.031748
       Temperature       (K)  =    2642.157605       3108.040315
       Pressure         (GPa) =      25.691019         23.300296
  ** Time :            9.15200 ps :
     Properties:                   Instantaneous       Averaged
       Kinetic energy    (eV) =      10.373049         12.448205
       Potential energy  (eV) =     -76.480258        -78.480167
       Total energy      (eV) =     -66.107208        -66.031962
       Temperature       (K)  =    2588.690664       3106.564890
       Pressure         (GPa) =      25.666860         23.307019
  ** Time :            9.17800 ps :
     Properties:                   Instantaneous       Averaged
       Kinetic energy    (eV) =      11.448839         12.445373
       Potential energy  (eV) =     -77.538288        -78.477499
       Total energy      (eV) =     -66.089448        -66.032125
       Temperature       (K)  =    2857.164008       3105.858372
       Pressure         (GPa) =      24.095357         23.309253
  ** Time :            9.20400 ps :
     Properties:                   Instantaneous       Averaged
       Kinetic energy    (eV) =      12.733739         12.446188
       Potential energy  (eV) =     -78.878247        -78.478631
       Total energy      (eV) =     -66.144508        -66.032443
       Temperature       (K)  =    3177.822657       3106.061661
       Pressure         (GPa) =      23.050864         23.308523
  ** Time :            9.23000 ps :
     Properties:                   Instantaneous       Averaged
       Kinetic energy    (eV) =      11.696874         12.444077
       Potential energy  (eV) =     -77.747079        -78.476570
       Total energy      (eV) =     -66.050205        -66.032493
       Temperature       (K)  =    2919.063364       3105.534905
       Pressure         (GPa) =      24.046720         23.310602
  ** Time :            9.25600 ps :
     Properties:                   Instantaneous       Averaged
       Kinetic energy    (eV) =      11.723107         12.442052
       Potential energy  (eV) =     -77.836382        -78.474772
       Total energy      (eV) =     -66.113274        -66.032720
       Temperature       (K)  =    2925.610120       3105.029498
       Pressure         (GPa) =      23.625076         23.311486
  ** Time :            9.28200 ps :
     Properties:                   Instantaneous       Averaged
       Kinetic energy    (eV) =      11.455329         12.439288
       Potential energy  (eV) =     -77.609849        -78.472349
       Total energy      (eV) =     -66.154520        -66.033061
       Temperature       (K)  =    2858.783598       3104.339734
       Pressure         (GPa) =      23.912346         23.313169
  ** Time :            9.30800 ps :
     Properties:                   Instantaneous       Averaged
       Kinetic energy    (eV) =      12.055541         12.438216
       Potential energy  (eV) =     -78.239326        -78.471698
       Total energy      (eV) =     -66.183785        -66.033482
       Temperature       (K)  =    3008.571933       3104.072226
       Pressure         (GPa) =      23.316920         23.313179
  ** Time :            9.33400 ps :
     Properties:                   Instantaneous       Averaged
       Kinetic energy    (eV) =      10.826051         12.433726
       Potential energy  (eV) =     -76.854250        -78.467193
       Total energy      (eV) =     -66.028198        -66.033467
       Temperature       (K)  =    2701.741510       3102.951527
       Pressure         (GPa) =      24.780205         23.317266
  ** Time :            9.36000 ps :
     Properties:                   Instantaneous       Averaged
       Kinetic energy    (eV) =      12.584019         12.434143
       Potential energy  (eV) =     -78.793810        -78.468100
       Total energy      (eV) =     -66.209792        -66.033957
       Temperature       (K)  =    3140.458522       3103.055714
       Pressure         (GPa) =      23.300730         23.317220
  ** Time :            9.38600 ps :
     Properties:                   Instantaneous       Averaged
       Kinetic energy    (eV) =      12.974352         12.435639
       Potential energy  (eV) =     -79.043581        -78.469694
       Total energy      (eV) =     -66.069229        -66.034055
       Temperature       (K)  =    3237.869978       3103.429160
       Pressure         (GPa) =      22.662721         23.315407
  ** Time :            9.41200 ps :
     Properties:                   Instantaneous       Averaged
       Kinetic energy    (eV) =      13.241422         12.437865
       Potential energy  (eV) =     -79.508411        -78.472564
       Total energy      (eV) =     -66.266989        -66.034698
       Temperature       (K)  =    3304.519573       3103.984659
       Pressure         (GPa) =      22.007527         23.311794
  ** Time :            9.43800 ps :
     Properties:                   Instantaneous       Averaged
       Kinetic energy    (eV) =      11.037410         12.434007
       Potential energy  (eV) =     -77.264880        -78.469237
       Total energy      (eV) =     -66.227469        -66.035229
       Temperature       (K)  =    2754.488064       3103.021858
       Pressure         (GPa) =      23.858360         23.313299
  ** Time :            9.46400 ps :
     Properties:                   Instantaneous       Averaged
       Kinetic energy    (eV) =       9.764193         12.426673
       Potential energy  (eV) =     -75.898758        -78.462175
       Total energy      (eV) =     -66.134565        -66.035502
       Temperature       (K)  =    2436.745016       3101.191427
       Pressure         (GPa) =      25.125238         23.318277
  ** Time :            9.49000 ps :
     Properties:                   Instantaneous       Averaged
       Kinetic energy    (eV) =      11.551631         12.424275
       Potential energy  (eV) =     -77.669402        -78.460003
       Total energy      (eV) =     -66.117771        -66.035727
       Temperature       (K)  =    2882.816616       3100.593140
       Pressure         (GPa) =      23.797513         23.319590
  ** Time :            9.51600 ps :
     Properties:                   Instantaneous       Averaged
       Kinetic energy    (eV) =      13.102372         12.426128
       Potential energy  (eV) =     -79.423858        -78.462636
       Total energy      (eV) =     -66.321486        -66.036508
       Temperature       (K)  =    3269.818430       3101.055504
       Pressure         (GPa) =      22.636873         23.317725
  ** Time :            9.54200 ps :
     Properties:                   Instantaneous       Averaged
       Kinetic energy    (eV) =      11.655216         12.424028
       Potential energy  (eV) =     -77.828707        -78.460909
       Total energy      (eV) =     -66.173491        -66.036881
       Temperature       (K)  =    2908.667187       3100.531285
       Pressure         (GPa) =      24.428891         23.320753
  ** Time :            9.56800 ps :
     Properties:                   Instantaneous       Averaged
       Kinetic energy    (eV) =      11.491891         12.421495
       Potential energy  (eV) =     -77.507169        -78.458317
       Total energy      (eV) =     -66.015277        -66.036823
       Temperature       (K)  =    2867.908059       3099.899157
       Pressure         (GPa) =      24.459841         23.323848
  ** Time :            9.59400 ps :
     Properties:                   Instantaneous       Averaged
       Kinetic energy    (eV) =      14.124821         12.426111
       Potential energy  (eV) =     -80.326902        -78.463381
       Total energy      (eV) =     -66.202081        -66.037271
       Temperature       (K)  =    3524.980078       3101.051138
       Pressure         (GPa) =      21.549480         23.319039
  ** Time :            9.62000 ps :
     Properties:                   Instantaneous       Averaged
       Kinetic energy    (eV) =      13.981768         12.430315
       Potential energy  (eV) =     -80.060672        -78.467698
       Total energy      (eV) =     -66.078904        -66.037383
       Temperature       (K)  =    3489.279759       3102.100404
       Pressure         (GPa) =      21.558170         23.314280
  ** Time :            9.64600 ps :
     Properties:                   Instantaneous       Averaged
       Kinetic energy    (eV) =      13.240422         12.432499
       Potential energy  (eV) =     -79.524881        -78.470548
       Total energy      (eV) =     -66.284459        -66.038049
       Temperature       (K)  =    3304.270091       3102.645336
       Pressure         (GPa) =      22.866619         23.313074
  ** Time :            9.67200 ps :
     Properties:                   Instantaneous       Averaged
       Kinetic energy    (eV) =      11.404760         12.429736
       Potential energy  (eV) =     -77.524273        -78.468004
       Total energy      (eV) =     -66.119513        -66.038268
       Temperature       (K)  =    2846.163553       3101.955869
       Pressure         (GPa) =      24.231287         23.315542
  ** Time :            9.69800 ps :
     Properties:                   Instantaneous       Averaged
       Kinetic energy    (eV) =      13.530351         12.432687
       Potential energy  (eV) =     -79.705746        -78.471322
       Total energy      (eV) =     -66.175395        -66.038636
       Temperature       (K)  =    3376.624500       3102.692246
       Pressure         (GPa) =      22.026209         23.312085
  ** Time :            9.72400 ps :
     Properties:                   Instantaneous       Averaged
       Kinetic energy    (eV) =      11.981898         12.431481
       Potential energy  (eV) =     -78.176903        -78.470535
       Total energy      (eV) =     -66.195006        -66.039054
       Temperature       (K)  =    2990.193646       3102.391448
       Pressure         (GPa) =      23.076572         23.311456
  ** Time :            9.75000 ps :
     Properties:                   Instantaneous       Averaged
       Kinetic energy    (eV) =       8.578520         12.421207
       Potential energy  (eV) =     -74.645123        -78.460334
       Total energy      (eV) =     -66.066603        -66.039127
       Temperature       (K)  =    2140.849264       3099.827335
       Pressure         (GPa) =      26.270329         23.319346
  ** Time :            9.77600 ps :
     Properties:                   Instantaneous       Averaged
       Kinetic energy    (eV) =       9.414081         12.413209
       Potential energy  (eV) =     -75.651064        -78.452863
       Total energy      (eV) =     -66.236983        -66.039654
       Temperature       (K)  =    2349.371131       3097.831441
       Pressure         (GPa) =      25.821764         23.326001
  ** Time :            9.80200 ps :
     Properties:                   Instantaneous       Averaged
       Kinetic energy    (eV) =      11.187895         12.409959
       Potential energy  (eV) =     -77.474961        -78.450269
       Total energy      (eV) =     -66.287066        -66.040310
       Temperature       (K)  =    2792.042996       3097.020331
       Pressure         (GPa) =      24.682289         23.329599
  ** Time :            9.82800 ps :
     Properties:                   Instantaneous       Averaged
       Kinetic energy    (eV) =      11.276279         12.406960
       Potential energy  (eV) =     -77.419591        -78.447542
       Total energy      (eV) =     -66.143312        -66.040582
       Temperature       (K)  =    2814.100115       3096.271865
       Pressure         (GPa) =      24.867636         23.333668
  ** Time :            9.85400 ps :
     Properties:                   Instantaneous       Averaged
       Kinetic energy    (eV) =      11.959275         12.405779
       Potential energy  (eV) =     -78.121222        -78.446681
       Total energy      (eV) =     -66.161947        -66.040903
       Temperature       (K)  =    2984.547970       3095.977079
       Pressure         (GPa) =      24.225115         23.336020
  ** Time :            9.88000 ps :
     Properties:                   Instantaneous       Averaged
       Kinetic energy    (eV) =      13.406856         12.408413
       Potential energy  (eV) =     -79.598340        -78.449712
       Total energy      (eV) =     -66.191484        -66.041299
       Temperature       (K)  =    3345.805287       3096.634522
       Pressure         (GPa) =      22.323317         23.333355
  ** Time :            9.90600 ps :
     Properties:                   Instantaneous       Averaged
       Kinetic energy    (eV) =      14.007391         12.412610
       Potential energy  (eV) =     -80.206487        -78.454323
       Total energy      (eV) =     -66.199097        -66.041713
       Temperature       (K)  =    3495.674276       3097.681870
       Pressure         (GPa) =      21.444769         23.328398
  ** Time :            9.93200 ps :
     Properties:                   Instantaneous       Averaged
       Kinetic energy    (eV) =      11.167672         12.409351
       Potential energy  (eV) =     -77.218699        -78.451088
       Total energy      (eV) =     -66.051028        -66.041737
       Temperature       (K)  =    2786.996043       3096.868556
       Pressure         (GPa) =      24.349195         23.331070
  ** Time :            9.95800 ps :
     Properties:                   Instantaneous       Averaged
       Kinetic energy    (eV) =      11.928076         12.408094
       Potential energy  (eV) =     -78.081441        -78.450123
       Total energy      (eV) =     -66.153365        -66.042029
       Temperature       (K)  =    2976.761992       3096.554962
       Pressure         (GPa) =      23.509188         23.331535
  ** Time :            9.98400 ps :
     Properties:                   Instantaneous       Averaged
       Kinetic energy    (eV) =      12.144502         12.407408
       Potential energy  (eV) =     -78.347737        -78.449856
       Total energy      (eV) =     -66.203235        -66.042449
       Temperature       (K)  =    3030.773201       3096.383655
       Pressure         (GPa) =      22.985615         23.330634

  Peak dynamic memory used =       0.57 MB 


  Timing analysis for GULP :

--------------------------------------------------------------------------------
  Task / Subroutine                                          Time (Seconds)
--------------------------------------------------------------------------------
  Calculation of real space energy and derivatives                1.6320
  Calculation of many-body energy and derivatives                 0.8840
--------------------------------------------------------------------------------
  Total CPU time                                                  2.7040
--------------------------------------------------------------------------------


  Dump file written as Recovery_2_3000_0.013.res                               
  GULP ASCII trajectory file written as Trajectories_2_3000_0.013.trg           


  Job Finished at 18:24.29 17th May        2018                               

