
     Program PWSCF v.6.1 (svn rev. 13369) starts on 15Apr2018 at 17:18:56 

     This program is part of the open-source Quantum ESPRESSO suite
     for quantum simulation of materials; please cite
         "P. Giannozzi et al., J. Phys.:Condens. Matter 21 395502 (2009);
          URL http://www.quantum-espresso.org", 
     in publications or presentations arising from this work. More details at
     http://www.quantum-espresso.org/quote

     Parallel version (MPI), running on     4 processors
     R & G space division:  proc/nbgrp/npool/nimage =       4
     Waiting for input...
     Reading input from standard input

     Current dimensions of program PWSCF are:
     Max number of different atomic species (ntypx) = 10
     Max number of k-points (npk) =  40000
     Max angular momentum in pseudopotentials (lmaxx) =  3

     Subspace diagonalization in iterative solution of the eigenvalue problem:
     a serial algorithm will be used

 
     Parallelization info
     --------------------
     sticks:   dense  smooth     PW     G-vecs:    dense   smooth      PW
     Min         217     217     63                 4240     4240     682
     Max         219     219     64                 4241     4241     686
     Sum         871     871    253                16961    16961    2733
 


     bravais-lattice index     =            2
     lattice parameter (alat)  =       7.9700  a.u.
     unit-cell volume          =     126.5654 (a.u.)^3
     number of atoms/cell      =            2
     number of atomic types    =            2
     number of electrons       =        16.00
     number of Kohn-Sham states=            8
     kinetic-energy cutoff     =     100.0000  Ry
     charge density cutoff     =     400.0000  Ry
     convergence threshold     =      1.0E-08
     mixing beta               =       0.7000
     number of iterations used =            8  plain     mixing
     Exchange-correlation      = PBE ( 1  4  3  4 0 0)

     celldm(1)=   7.970000  celldm(2)=   0.000000  celldm(3)=   0.000000
     celldm(4)=   0.000000  celldm(5)=   0.000000  celldm(6)=   0.000000

     crystal axes: (cart. coord. in units of alat)
               a(1) = (  -0.500000   0.000000   0.500000 )  
               a(2) = (   0.000000   0.500000   0.500000 )  
               a(3) = (  -0.500000   0.500000   0.000000 )  

     reciprocal axes: (cart. coord. in units 2 pi/alat)
               b(1) = ( -1.000000 -1.000000  1.000000 )  
               b(2) = (  1.000000  1.000000  1.000000 )  
               b(3) = ( -1.000000  1.000000 -1.000000 )  


     PseudoPot. # 1 for Mg read from file:
     ../pseudo/Mg.pbe.UPF
     MD5 check sum: 4c04d8c6e0476e83eaecaf72fa8acc4d
     Pseudo is Norm-conserving, Zval = 10.0
     Generated using ONCVPSP code by D. R. Hamann
     Using radial grid of 1510 points,  4 beta functions with: 
                l(1) =   0
                l(2) =   0
                l(3) =   1
                l(4) =   1

     PseudoPot. # 2 for O  read from file:
     ../pseudo/O.pbe.UPF
     MD5 check sum: 3e3f909f7470e8921608ab6b1f57bbae
     Pseudo is Norm-conserving + core correction, Zval =  6.0
     Generated using ONCVPSP code by D. R. Hamann
     Using radial grid of  936 points,  5 beta functions with: 
                l(1) =   0
                l(2) =   0
                l(3) =   1
                l(4) =   1
                l(5) =   2

     atomic species   valence    mass     pseudopotential
        Mg            10.00    24.30500     Mg( 1.00)
        O              6.00    15.99940     O ( 1.00)

     48 Sym. Ops., with inversion, found



   Cartesian axes

     site n.     atom                  positions (alat units)
         1           Mg  tau(   1) = (   0.0000000   0.0000000   0.0000000  )
         2           O   tau(   2) = (   0.5000000   0.5000000   0.5000000  )

     number of k points=     8
                       cart. coord. in units 2pi/alat
        k(    1) = (   0.0000000   0.0000000   0.0000000), wk =   0.0312500
        k(    2) = (  -0.2500000   0.2500000  -0.2500000), wk =   0.2500000
        k(    3) = (   0.5000000  -0.5000000   0.5000000), wk =   0.1250000
        k(    4) = (   0.0000000   0.5000000   0.0000000), wk =   0.1875000
        k(    5) = (   0.7500000  -0.2500000   0.7500000), wk =   0.7500000
        k(    6) = (   0.5000000   0.0000000   0.5000000), wk =   0.3750000
        k(    7) = (   0.0000000  -1.0000000   0.0000000), wk =   0.0937500
        k(    8) = (  -0.5000000  -1.0000000   0.0000000), wk =   0.1875000

     Dense  grid:    16961 G-vectors     FFT dimensions: (  36,  36,  36)

     Estimated max dynamical RAM per process >       3.62MB

     Estimated total allocated dynamical RAM >      14.47MB

     Initial potential from superposition of free atoms

     starting charge   15.99920, renormalised to   16.00000
     Starting wfc are    9 randomized atomic wfcs

     total cpu time spent up to now is        0.2 secs

     per-process dynamical memory:    39.6 Mb

     Self-consistent Calculation

     iteration #  1     ecut=   100.00 Ry     beta=0.70
     Davidson diagonalization with overlap
     ethr =  1.00E-02,  avg # of iterations =  1.9

     total cpu time spent up to now is        0.3 secs

     total energy              =    -151.93542586 Ry
     Harris-Foulkes estimate   =    -152.21517095 Ry
     estimated scf accuracy    <       0.38859996 Ry

     iteration #  2     ecut=   100.00 Ry     beta=0.70
     Davidson diagonalization with overlap
     ethr =  2.43E-03,  avg # of iterations =  2.4

     total cpu time spent up to now is        0.3 secs

     total energy              =    -152.03484314 Ry
     Harris-Foulkes estimate   =    -152.19830207 Ry
     estimated scf accuracy    <       0.33519162 Ry

     iteration #  3     ecut=   100.00 Ry     beta=0.70
     Davidson diagonalization with overlap
     ethr =  2.09E-03,  avg # of iterations =  2.0

     total cpu time spent up to now is        0.4 secs

     total energy              =    -152.10096411 Ry
     Harris-Foulkes estimate   =    -152.10109462 Ry
     estimated scf accuracy    <       0.00156822 Ry

     iteration #  4     ecut=   100.00 Ry     beta=0.70
     Davidson diagonalization with overlap
     ethr =  9.80E-06,  avg # of iterations =  2.0

     total cpu time spent up to now is        0.5 secs

     total energy              =    -152.10129815 Ry
     Harris-Foulkes estimate   =    -152.10130974 Ry
     estimated scf accuracy    <       0.00002816 Ry

     iteration #  5     ecut=   100.00 Ry     beta=0.70
     Davidson diagonalization with overlap
     ethr =  1.76E-07,  avg # of iterations =  1.1

     total cpu time spent up to now is        0.5 secs

     total energy              =    -152.10129931 Ry
     Harris-Foulkes estimate   =    -152.10129944 Ry
     estimated scf accuracy    <       0.00000329 Ry

     iteration #  6     ecut=   100.00 Ry     beta=0.70
     Davidson diagonalization with overlap
     ethr =  2.05E-08,  avg # of iterations =  2.0

     total cpu time spent up to now is        0.6 secs

     total energy              =    -152.10129992 Ry
     Harris-Foulkes estimate   =    -152.10130009 Ry
     estimated scf accuracy    <       0.00000043 Ry

     iteration #  7     ecut=   100.00 Ry     beta=0.70
     Davidson diagonalization with overlap
     ethr =  2.71E-09,  avg # of iterations =  1.9

     total cpu time spent up to now is        0.7 secs

     total energy              =    -152.10129991 Ry
     Harris-Foulkes estimate   =    -152.10129995 Ry
     estimated scf accuracy    <       0.00000008 Ry

     iteration #  8     ecut=   100.00 Ry     beta=0.70
     Davidson diagonalization with overlap
     ethr =  5.13E-10,  avg # of iterations =  2.0

     total cpu time spent up to now is        0.7 secs

     End of self-consistent calculation

          k = 0.0000 0.0000 0.0000 (  2109 PWs)   bands (ev):

   -64.3684 -31.1207 -31.1207 -31.1207  -9.1497   8.0205   8.0205   8.0205

          k =-0.2500 0.2500-0.2500 (  2127 PWs)   bands (ev):

   -64.3642 -31.1629 -31.1251 -31.1251  -8.5496   5.3862   7.6899   7.6899

          k = 0.5000-0.5000 0.5000 (  2138 PWs)   bands (ev):

   -64.3600 -31.2046 -31.1294 -31.1294  -7.8412   3.4436   7.3859   7.3859

          k = 0.0000 0.5000 0.0000 (  2141 PWs)   bands (ev):

   -64.3628 -31.1586 -31.1347 -31.1347  -8.3920   5.4175   7.2949   7.2949

          k = 0.7500-0.2500 0.7500 (  2136 PWs)   bands (ev):

   -64.3586 -31.1870 -31.1504 -31.1391  -7.7394   4.2470   6.1343   7.0204

          k = 0.5000 0.0000 0.5000 (  2135 PWs)   bands (ev):

   -64.3600 -31.1797 -31.1524 -31.1294  -7.9239   4.5568   6.0534   7.3853

          k = 0.0000-1.0000 0.0000 (  2100 PWs)   bands (ev):

   -64.3572 -31.1919 -31.1488 -31.1488  -7.6179   3.9924   6.6902   6.6902

          k =-0.5000-1.0000 0.0000 (  2148 PWs)   bands (ev):

   -64.3572 -31.1703 -31.1703 -31.1508  -7.5553   5.1074   5.1074   6.2716

     highest occupied level (ev):     8.0205

!    total energy              =    -152.10129993 Ry
     Harris-Foulkes estimate   =    -152.10129993 Ry
     estimated scf accuracy    <          4.1E-09 Ry

     The total energy is the sum of the following terms:

     one-electron contribution =     -74.55015864 Ry
     hartree contribution      =      41.58610619 Ry
     xc contribution           =     -24.49368559 Ry
     ewald contribution        =     -94.64356189 Ry

     convergence has been achieved in   8 iterations

     Forces acting on atoms (cartesian axes, Ry/au):

     atom    1 type  1   force =     0.00000000    0.00000000   -0.00000000
     atom    2 type  2   force =     0.00000000   -0.00000000    0.00000000

     Total force =     0.000000     Total SCF correction =     0.000000


     Computing stress (Cartesian axis) and pressure

          total   stress  (Ry/bohr**3)                   (kbar)     P=   39.43
   0.00026804  -0.00000000  -0.00000000         39.43     -0.00     -0.00
  -0.00000000   0.00026804   0.00000000         -0.00     39.43      0.00
  -0.00000000   0.00000000   0.00026804         -0.00      0.00     39.43


     Writing output data file diamond.7.97.100.4.save
 
     init_run     :      0.07s CPU      0.08s WALL (       1 calls)
     electrons    :      0.52s CPU      0.53s WALL (       1 calls)
     forces       :      0.01s CPU      0.01s WALL (       1 calls)
     stress       :      0.04s CPU      0.04s WALL (       1 calls)

     Called by init_run:
     wfcinit      :      0.02s CPU      0.03s WALL (       1 calls)
     potinit      :      0.01s CPU      0.01s WALL (       1 calls)

     Called by electrons:
     c_bands      :      0.39s CPU      0.40s WALL (       8 calls)
     sum_band     :      0.08s CPU      0.08s WALL (       8 calls)
     v_of_rho     :      0.04s CPU      0.04s WALL (       9 calls)
     mix_rho      :      0.00s CPU      0.01s WALL (       8 calls)

     Called by c_bands:
     init_us_2    :      0.02s CPU      0.02s WALL (     152 calls)
     cegterg      :      0.35s CPU      0.36s WALL (      64 calls)

     Called by sum_band:

     Called by *egterg:
     h_psi        :      0.32s CPU      0.33s WALL (     194 calls)
     g_psi        :      0.00s CPU      0.00s WALL (     122 calls)
     cdiaghg      :      0.02s CPU      0.02s WALL (     186 calls)

     Called by h_psi:
     h_psi:pot    :      0.32s CPU      0.33s WALL (     194 calls)
     h_psi:calbec :      0.01s CPU      0.01s WALL (     194 calls)
     vloc_psi     :      0.30s CPU      0.31s WALL (     194 calls)
     add_vuspsi   :      0.01s CPU      0.01s WALL (     194 calls)

     General routines
     calbec       :      0.01s CPU      0.01s WALL (     234 calls)
     fft          :      0.02s CPU      0.02s WALL (     123 calls)
     fftw         :      0.34s CPU      0.33s WALL (    3234 calls)
     davcio       :      0.00s CPU      0.00s WALL (       8 calls)
 
     Parallel routines
     fft_scatter  :      0.09s CPU      0.10s WALL (    3357 calls)
 
     PWSCF        :     0.81s CPU         0.86s WALL

 
   This run was terminated on:  17:18:56  15Apr2018            

=------------------------------------------------------------------------------=
   JOB DONE.
=------------------------------------------------------------------------------=
