
     Program PWSCF v.6.1 (svn rev. 13369) starts on 15Apr2018 at 17:18:53 

     This program is part of the open-source Quantum ESPRESSO suite
     for quantum simulation of materials; please cite
         "P. Giannozzi et al., J. Phys.:Condens. Matter 21 395502 (2009);
          URL http://www.quantum-espresso.org", 
     in publications or presentations arising from this work. More details at
     http://www.quantum-espresso.org/quote

     Parallel version (MPI), running on     4 processors
     R & G space division:  proc/nbgrp/npool/nimage =       4
     Waiting for input...
     Reading input from standard input

     Current dimensions of program PWSCF are:
     Max number of different atomic species (ntypx) = 10
     Max number of k-points (npk) =  40000
     Max angular momentum in pseudopotentials (lmaxx) =  3

     Subspace diagonalization in iterative solution of the eigenvalue problem:
     a serial algorithm will be used

 
     Parallelization info
     --------------------
     sticks:   dense  smooth     PW     G-vecs:    dense   smooth      PW
     Min         172     172     52                 3012     3012     520
     Max         173     173     53                 3013     3013     522
     Sum         691     691    211                12051    12051    2085
 


     bravais-lattice index     =            2
     lattice parameter (alat)  =       7.9700  a.u.
     unit-cell volume          =     126.5654 (a.u.)^3
     number of atoms/cell      =            2
     number of atomic types    =            2
     number of electrons       =        16.00
     number of Kohn-Sham states=            8
     kinetic-energy cutoff     =      80.0000  Ry
     charge density cutoff     =     320.0000  Ry
     convergence threshold     =      1.0E-08
     mixing beta               =       0.7000
     number of iterations used =            8  plain     mixing
     Exchange-correlation      = PBE ( 1  4  3  4 0 0)

     celldm(1)=   7.970000  celldm(2)=   0.000000  celldm(3)=   0.000000
     celldm(4)=   0.000000  celldm(5)=   0.000000  celldm(6)=   0.000000

     crystal axes: (cart. coord. in units of alat)
               a(1) = (  -0.500000   0.000000   0.500000 )  
               a(2) = (   0.000000   0.500000   0.500000 )  
               a(3) = (  -0.500000   0.500000   0.000000 )  

     reciprocal axes: (cart. coord. in units 2 pi/alat)
               b(1) = ( -1.000000 -1.000000  1.000000 )  
               b(2) = (  1.000000  1.000000  1.000000 )  
               b(3) = ( -1.000000  1.000000 -1.000000 )  


     PseudoPot. # 1 for Mg read from file:
     ../pseudo/Mg.pbe.UPF
     MD5 check sum: 4c04d8c6e0476e83eaecaf72fa8acc4d
     Pseudo is Norm-conserving, Zval = 10.0
     Generated using ONCVPSP code by D. R. Hamann
     Using radial grid of 1510 points,  4 beta functions with: 
                l(1) =   0
                l(2) =   0
                l(3) =   1
                l(4) =   1

     PseudoPot. # 2 for O  read from file:
     ../pseudo/O.pbe.UPF
     MD5 check sum: 3e3f909f7470e8921608ab6b1f57bbae
     Pseudo is Norm-conserving + core correction, Zval =  6.0
     Generated using ONCVPSP code by D. R. Hamann
     Using radial grid of  936 points,  5 beta functions with: 
                l(1) =   0
                l(2) =   0
                l(3) =   1
                l(4) =   1
                l(5) =   2

     atomic species   valence    mass     pseudopotential
        Mg            10.00    24.30500     Mg( 1.00)
        O              6.00    15.99940     O ( 1.00)

     48 Sym. Ops., with inversion, found



   Cartesian axes

     site n.     atom                  positions (alat units)
         1           Mg  tau(   1) = (   0.0000000   0.0000000   0.0000000  )
         2           O   tau(   2) = (   0.5000000   0.5000000   0.5000000  )

     number of k points=     8
                       cart. coord. in units 2pi/alat
        k(    1) = (   0.0000000   0.0000000   0.0000000), wk =   0.0312500
        k(    2) = (  -0.2500000   0.2500000  -0.2500000), wk =   0.2500000
        k(    3) = (   0.5000000  -0.5000000   0.5000000), wk =   0.1250000
        k(    4) = (   0.0000000   0.5000000   0.0000000), wk =   0.1875000
        k(    5) = (   0.7500000  -0.2500000   0.7500000), wk =   0.7500000
        k(    6) = (   0.5000000   0.0000000   0.5000000), wk =   0.3750000
        k(    7) = (   0.0000000  -1.0000000   0.0000000), wk =   0.0937500
        k(    8) = (  -0.5000000  -1.0000000   0.0000000), wk =   0.1875000

     Dense  grid:    12051 G-vectors     FFT dimensions: (  36,  36,  36)

     Estimated max dynamical RAM per process >       2.82MB

     Estimated total allocated dynamical RAM >      11.26MB

     Check: negative/imaginary core charge=   -0.000001    0.000000

     Initial potential from superposition of free atoms

     starting charge   15.99920, renormalised to   16.00000
     Starting wfc are    9 randomized atomic wfcs

     total cpu time spent up to now is        0.2 secs

     per-process dynamical memory:    37.7 Mb

     Self-consistent Calculation

     iteration #  1     ecut=    80.00 Ry     beta=0.70
     Davidson diagonalization with overlap
     ethr =  1.00E-02,  avg # of iterations =  2.0

     total cpu time spent up to now is        0.3 secs

     total energy              =    -151.93559787 Ry
     Harris-Foulkes estimate   =    -152.21501010 Ry
     estimated scf accuracy    <       0.38823407 Ry

     iteration #  2     ecut=    80.00 Ry     beta=0.70
     Davidson diagonalization with overlap
     ethr =  2.43E-03,  avg # of iterations =  2.4

     total cpu time spent up to now is        0.3 secs

     total energy              =    -152.03482163 Ry
     Harris-Foulkes estimate   =    -152.19790150 Ry
     estimated scf accuracy    <       0.33435896 Ry

     iteration #  3     ecut=    80.00 Ry     beta=0.70
     Davidson diagonalization with overlap
     ethr =  2.09E-03,  avg # of iterations =  2.0

     total cpu time spent up to now is        0.4 secs

     total energy              =    -152.10080320 Ry
     Harris-Foulkes estimate   =    -152.10093530 Ry
     estimated scf accuracy    <       0.00156718 Ry

     iteration #  4     ecut=    80.00 Ry     beta=0.70
     Davidson diagonalization with overlap
     ethr =  9.79E-06,  avg # of iterations =  2.0

     total cpu time spent up to now is        0.4 secs

     total energy              =    -152.10113468 Ry
     Harris-Foulkes estimate   =    -152.10114558 Ry
     estimated scf accuracy    <       0.00002730 Ry

     iteration #  5     ecut=    80.00 Ry     beta=0.70
     Davidson diagonalization with overlap
     ethr =  1.71E-07,  avg # of iterations =  1.1

     total cpu time spent up to now is        0.5 secs

     total energy              =    -152.10113603 Ry
     Harris-Foulkes estimate   =    -152.10113593 Ry
     estimated scf accuracy    <       0.00000314 Ry

     iteration #  6     ecut=    80.00 Ry     beta=0.70
     Davidson diagonalization with overlap
     ethr =  1.96E-08,  avg # of iterations =  2.0

     total cpu time spent up to now is        0.6 secs

     total energy              =    -152.10113656 Ry
     Harris-Foulkes estimate   =    -152.10113670 Ry
     estimated scf accuracy    <       0.00000034 Ry

     iteration #  7     ecut=    80.00 Ry     beta=0.70
     Davidson diagonalization with overlap
     ethr =  2.11E-09,  avg # of iterations =  1.9

     total cpu time spent up to now is        0.6 secs

     total energy              =    -152.10113656 Ry
     Harris-Foulkes estimate   =    -152.10113659 Ry
     estimated scf accuracy    <       0.00000006 Ry

     iteration #  8     ecut=    80.00 Ry     beta=0.70
     Davidson diagonalization with overlap
     ethr =  4.03E-10,  avg # of iterations =  2.0

     total cpu time spent up to now is        0.7 secs

     End of self-consistent calculation

          k = 0.0000 0.0000 0.0000 (  1471 PWs)   bands (ev):

   -64.3698 -31.1217 -31.1217 -31.1217  -9.1496   8.0207   8.0207   8.0207

          k =-0.2500 0.2500-0.2500 (  1531 PWs)   bands (ev):

   -64.3656 -31.1639 -31.1261 -31.1261  -8.5495   5.3863   7.6901   7.6901

          k = 0.5000-0.5000 0.5000 (  1502 PWs)   bands (ev):

   -64.3614 -31.2056 -31.1303 -31.1303  -7.8411   3.4438   7.3862   7.3862

          k = 0.0000 0.5000 0.0000 (  1523 PWs)   bands (ev):

   -64.3642 -31.1596 -31.1357 -31.1357  -8.3919   5.4177   7.2951   7.2951

          k = 0.7500-0.2500 0.7500 (  1533 PWs)   bands (ev):

   -64.3600 -31.1880 -31.1514 -31.1401  -7.7393   4.2472   6.1345   7.0206

          k = 0.5000 0.0000 0.5000 (  1538 PWs)   bands (ev):

   -64.3614 -31.1807 -31.1535 -31.1305  -7.9238   4.5569   6.0536   7.3854

          k = 0.0000-1.0000 0.0000 (  1524 PWs)   bands (ev):

   -64.3586 -31.1929 -31.1498 -31.1498  -7.6178   3.9927   6.6906   6.6906

          k =-0.5000-1.0000 0.0000 (  1540 PWs)   bands (ev):

   -64.3586 -31.1713 -31.1713 -31.1518  -7.5552   5.1078   5.1078   6.2718

     highest occupied level (ev):     8.0207

!    total energy              =    -152.10113657 Ry
     Harris-Foulkes estimate   =    -152.10113657 Ry
     estimated scf accuracy    <          3.8E-09 Ry

     The total energy is the sum of the following terms:

     one-electron contribution =     -74.54955840 Ry
     hartree contribution      =      41.58545138 Ry
     xc contribution           =     -24.49346766 Ry
     ewald contribution        =     -94.64356189 Ry

     convergence has been achieved in   8 iterations

     Forces acting on atoms (cartesian axes, Ry/au):

     atom    1 type  1   force =     0.00000000    0.00000000    0.00000000
     atom    2 type  2   force =    -0.00000000   -0.00000000   -0.00000000

     Total force =     0.000000     Total SCF correction =     0.000000


     Computing stress (Cartesian axis) and pressure

          total   stress  (Ry/bohr**3)                   (kbar)     P=   36.12
   0.00024556   0.00000000   0.00000000         36.12      0.00      0.00
   0.00000000   0.00024556  -0.00000000          0.00     36.12     -0.00
   0.00000000  -0.00000000   0.00024556          0.00     -0.00     36.12


     Writing output data file diamond.7.97.80.4.save
 
     init_run     :      0.06s CPU      0.06s WALL (       1 calls)
     electrons    :      0.48s CPU      0.49s WALL (       1 calls)
     forces       :      0.01s CPU      0.01s WALL (       1 calls)
     stress       :      0.03s CPU      0.03s WALL (       1 calls)

     Called by init_run:
     wfcinit      :      0.02s CPU      0.02s WALL (       1 calls)
     potinit      :      0.01s CPU      0.01s WALL (       1 calls)

     Called by electrons:
     c_bands      :      0.36s CPU      0.37s WALL (       8 calls)
     sum_band     :      0.08s CPU      0.08s WALL (       8 calls)
     v_of_rho     :      0.04s CPU      0.04s WALL (       9 calls)
     mix_rho      :      0.00s CPU      0.00s WALL (       8 calls)

     Called by c_bands:
     init_us_2    :      0.02s CPU      0.01s WALL (     152 calls)
     cegterg      :      0.33s CPU      0.34s WALL (      64 calls)

     Called by sum_band:

     Called by *egterg:
     h_psi        :      0.30s CPU      0.31s WALL (     195 calls)
     g_psi        :      0.00s CPU      0.00s WALL (     123 calls)
     cdiaghg      :      0.02s CPU      0.02s WALL (     187 calls)

     Called by h_psi:
     h_psi:pot    :      0.30s CPU      0.31s WALL (     195 calls)
     h_psi:calbec :      0.01s CPU      0.01s WALL (     195 calls)
     vloc_psi     :      0.29s CPU      0.30s WALL (     195 calls)
     add_vuspsi   :      0.01s CPU      0.01s WALL (     195 calls)

     General routines
     calbec       :      0.01s CPU      0.01s WALL (     235 calls)
     fft          :      0.02s CPU      0.02s WALL (     123 calls)
     fftw         :      0.32s CPU      0.32s WALL (    3222 calls)
     davcio       :      0.00s CPU      0.00s WALL (       8 calls)
 
     Parallel routines
     fft_scatter  :      0.07s CPU      0.08s WALL (    3345 calls)
 
     PWSCF        :     0.75s CPU         0.79s WALL

 
   This run was terminated on:  17:18:53  15Apr2018            

=------------------------------------------------------------------------------=
   JOB DONE.
=------------------------------------------------------------------------------=
