
     Program PWSCF v.6.1 (svn rev. 13369) starts on 15Apr2018 at 17:19: 3 

     This program is part of the open-source Quantum ESPRESSO suite
     for quantum simulation of materials; please cite
         "P. Giannozzi et al., J. Phys.:Condens. Matter 21 395502 (2009);
          URL http://www.quantum-espresso.org", 
     in publications or presentations arising from this work. More details at
     http://www.quantum-espresso.org/quote

     Parallel version (MPI), running on     4 processors
     R & G space division:  proc/nbgrp/npool/nimage =       4
     Waiting for input...
     Reading input from standard input

     Current dimensions of program PWSCF are:
     Max number of different atomic species (ntypx) = 10
     Max number of k-points (npk) =  40000
     Max angular momentum in pseudopotentials (lmaxx) =  3

     Subspace diagonalization in iterative solution of the eigenvalue problem:
     a serial algorithm will be used

 
     Parallelization info
     --------------------
     sticks:   dense  smooth     PW     G-vecs:    dense   smooth      PW
     Min         309     309     90                 7118     7118    1118
     Max         310     310     91                 7120     7120    1120
     Sum        1237    1237    361                28475    28475    4477
 


     bravais-lattice index     =            2
     lattice parameter (alat)  =       7.9700  a.u.
     unit-cell volume          =     126.5654 (a.u.)^3
     number of atoms/cell      =            2
     number of atomic types    =            2
     number of electrons       =        16.00
     number of Kohn-Sham states=            8
     kinetic-energy cutoff     =     140.0000  Ry
     charge density cutoff     =     560.0000  Ry
     convergence threshold     =      1.0E-08
     mixing beta               =       0.7000
     number of iterations used =            8  plain     mixing
     Exchange-correlation      = PBE ( 1  4  3  4 0 0)

     celldm(1)=   7.970000  celldm(2)=   0.000000  celldm(3)=   0.000000
     celldm(4)=   0.000000  celldm(5)=   0.000000  celldm(6)=   0.000000

     crystal axes: (cart. coord. in units of alat)
               a(1) = (  -0.500000   0.000000   0.500000 )  
               a(2) = (   0.000000   0.500000   0.500000 )  
               a(3) = (  -0.500000   0.500000   0.000000 )  

     reciprocal axes: (cart. coord. in units 2 pi/alat)
               b(1) = ( -1.000000 -1.000000  1.000000 )  
               b(2) = (  1.000000  1.000000  1.000000 )  
               b(3) = ( -1.000000  1.000000 -1.000000 )  


     PseudoPot. # 1 for Mg read from file:
     ../pseudo/Mg.pbe.UPF
     MD5 check sum: 4c04d8c6e0476e83eaecaf72fa8acc4d
     Pseudo is Norm-conserving, Zval = 10.0
     Generated using ONCVPSP code by D. R. Hamann
     Using radial grid of 1510 points,  4 beta functions with: 
                l(1) =   0
                l(2) =   0
                l(3) =   1
                l(4) =   1

     PseudoPot. # 2 for O  read from file:
     ../pseudo/O.pbe.UPF
     MD5 check sum: 3e3f909f7470e8921608ab6b1f57bbae
     Pseudo is Norm-conserving + core correction, Zval =  6.0
     Generated using ONCVPSP code by D. R. Hamann
     Using radial grid of  936 points,  5 beta functions with: 
                l(1) =   0
                l(2) =   0
                l(3) =   1
                l(4) =   1
                l(5) =   2

     atomic species   valence    mass     pseudopotential
        Mg            10.00    24.30500     Mg( 1.00)
        O              6.00    15.99940     O ( 1.00)

     48 Sym. Ops., with inversion, found



   Cartesian axes

     site n.     atom                  positions (alat units)
         1           Mg  tau(   1) = (   0.0000000   0.0000000   0.0000000  )
         2           O   tau(   2) = (   0.5000000   0.5000000   0.5000000  )

     number of k points=     8
                       cart. coord. in units 2pi/alat
        k(    1) = (   0.0000000   0.0000000   0.0000000), wk =   0.0312500
        k(    2) = (  -0.2500000   0.2500000  -0.2500000), wk =   0.2500000
        k(    3) = (   0.5000000  -0.5000000   0.5000000), wk =   0.1250000
        k(    4) = (   0.0000000   0.5000000   0.0000000), wk =   0.1875000
        k(    5) = (   0.7500000  -0.2500000   0.7500000), wk =   0.7500000
        k(    6) = (   0.5000000   0.0000000   0.5000000), wk =   0.3750000
        k(    7) = (   0.0000000  -1.0000000   0.0000000), wk =   0.0937500
        k(    8) = (  -0.5000000  -1.0000000   0.0000000), wk =   0.1875000

     Dense  grid:    28475 G-vectors     FFT dimensions: (  45,  45,  45)

     Estimated max dynamical RAM per process >       6.35MB

     Estimated total allocated dynamical RAM >      25.40MB

     Initial potential from superposition of free atoms

     starting charge   15.99920, renormalised to   16.00000
     Starting wfc are    9 randomized atomic wfcs

     total cpu time spent up to now is        0.3 secs

     per-process dynamical memory:    44.6 Mb

     Self-consistent Calculation

     iteration #  1     ecut=   140.00 Ry     beta=0.70
     Davidson diagonalization with overlap
     ethr =  1.00E-02,  avg # of iterations =  2.0

     total cpu time spent up to now is        0.4 secs

     total energy              =    -151.93329339 Ry
     Harris-Foulkes estimate   =    -152.21490342 Ry
     estimated scf accuracy    <       0.39097190 Ry

     iteration #  2     ecut=   140.00 Ry     beta=0.70
     Davidson diagonalization with overlap
     ethr =  2.44E-03,  avg # of iterations =  2.4

     total cpu time spent up to now is        0.5 secs

     total energy              =    -152.03415739 Ry
     Harris-Foulkes estimate   =    -152.19970695 Ry
     estimated scf accuracy    <       0.33993701 Ry

     iteration #  3     ecut=   140.00 Ry     beta=0.70
     Davidson diagonalization with overlap
     ethr =  2.12E-03,  avg # of iterations =  2.0

     total cpu time spent up to now is        0.7 secs

     total energy              =    -152.10100223 Ry
     Harris-Foulkes estimate   =    -152.10111904 Ry
     estimated scf accuracy    <       0.00155290 Ry

     iteration #  4     ecut=   140.00 Ry     beta=0.70
     Davidson diagonalization with overlap
     ethr =  9.71E-06,  avg # of iterations =  2.0

     total cpu time spent up to now is        0.8 secs

     total energy              =    -152.10133486 Ry
     Harris-Foulkes estimate   =    -152.10134783 Ry
     estimated scf accuracy    <       0.00003084 Ry

     iteration #  5     ecut=   140.00 Ry     beta=0.70
     Davidson diagonalization with overlap
     ethr =  1.93E-07,  avg # of iterations =  1.1

     total cpu time spent up to now is        0.9 secs

     total energy              =    -152.10133568 Ry
     Harris-Foulkes estimate   =    -152.10133619 Ry
     estimated scf accuracy    <       0.00000384 Ry

     iteration #  6     ecut=   140.00 Ry     beta=0.70
     Davidson diagonalization with overlap
     ethr =  2.40E-08,  avg # of iterations =  2.1

     total cpu time spent up to now is        1.1 secs

     total energy              =    -152.10133651 Ry
     Harris-Foulkes estimate   =    -152.10133672 Ry
     estimated scf accuracy    <       0.00000059 Ry

     iteration #  7     ecut=   140.00 Ry     beta=0.70
     Davidson diagonalization with overlap
     ethr =  3.72E-09,  avg # of iterations =  1.8

     total cpu time spent up to now is        1.2 secs

     total energy              =    -152.10133646 Ry
     Harris-Foulkes estimate   =    -152.10133655 Ry
     estimated scf accuracy    <       0.00000015 Ry

     iteration #  8     ecut=   140.00 Ry     beta=0.70
     Davidson diagonalization with overlap
     ethr =  9.34E-10,  avg # of iterations =  2.0

     total cpu time spent up to now is        1.4 secs

     End of self-consistent calculation

          k = 0.0000 0.0000 0.0000 (  3527 PWs)   bands (ev):

   -64.3687 -31.1208 -31.1208 -31.1208  -9.1498   8.0203   8.0203   8.0203

          k =-0.2500 0.2500-0.2500 (  3560 PWs)   bands (ev):

   -64.3644 -31.1630 -31.1252 -31.1252  -8.5498   5.3861   7.6897   7.6897

          k = 0.5000-0.5000 0.5000 (  3582 PWs)   bands (ev):

   -64.3602 -31.2047 -31.1295 -31.1295  -7.8413   3.4435   7.3858   7.3858

          k = 0.0000 0.5000 0.0000 (  3543 PWs)   bands (ev):

   -64.3630 -31.1587 -31.1348 -31.1348  -8.3921   5.4174   7.2948   7.2948

          k = 0.7500-0.2500 0.7500 (  3542 PWs)   bands (ev):

   -64.3588 -31.1871 -31.1505 -31.1392  -7.7396   4.2468   6.1342   7.0203

          k = 0.5000 0.0000 0.5000 (  3527 PWs)   bands (ev):

   -64.3602 -31.1798 -31.1525 -31.1295  -7.9241   4.5566   6.0532   7.3851

          k = 0.0000-1.0000 0.0000 (  3540 PWs)   bands (ev):

   -64.3574 -31.1920 -31.1489 -31.1489  -7.6180   3.9923   6.6901   6.6901

          k =-0.5000-1.0000 0.0000 (  3552 PWs)   bands (ev):

   -64.3574 -31.1704 -31.1704 -31.1509  -7.5554   5.1073   5.1073   6.2715

     highest occupied level (ev):     8.0203

!    total energy              =    -152.10133650 Ry
     Harris-Foulkes estimate   =    -152.10133650 Ry
     estimated scf accuracy    <          7.7E-09 Ry

     The total energy is the sum of the following terms:

     one-electron contribution =     -74.55016951 Ry
     hartree contribution      =      41.58602320 Ry
     xc contribution           =     -24.49362829 Ry
     ewald contribution        =     -94.64356189 Ry

     convergence has been achieved in   8 iterations

     Forces acting on atoms (cartesian axes, Ry/au):

     atom    1 type  1   force =    -0.00000000   -0.00000000   -0.00000000
     atom    2 type  2   force =     0.00000000   -0.00000000    0.00000000

     Total force =     0.000000     Total SCF correction =     0.000000


     Computing stress (Cartesian axis) and pressure

          total   stress  (Ry/bohr**3)                   (kbar)     P=   39.56
   0.00026889   0.00000000   0.00000000         39.56      0.00      0.00
   0.00000000   0.00026889  -0.00000000          0.00     39.56     -0.00
   0.00000000  -0.00000000   0.00026889          0.00     -0.00     39.56


     Writing output data file diamond.7.97.140.4.save
 
     init_run     :      0.13s CPU      0.14s WALL (       1 calls)
     electrons    :      1.07s CPU      1.09s WALL (       1 calls)
     forces       :      0.02s CPU      0.02s WALL (       1 calls)
     stress       :      0.06s CPU      0.07s WALL (       1 calls)

     Called by init_run:
     wfcinit      :      0.05s CPU      0.05s WALL (       1 calls)
     potinit      :      0.02s CPU      0.02s WALL (       1 calls)

     Called by electrons:
     c_bands      :      0.80s CPU      0.81s WALL (       8 calls)
     sum_band     :      0.17s CPU      0.18s WALL (       8 calls)
     v_of_rho     :      0.09s CPU      0.09s WALL (       9 calls)
     mix_rho      :      0.01s CPU      0.01s WALL (       8 calls)

     Called by c_bands:
     init_us_2    :      0.03s CPU      0.03s WALL (     152 calls)
     cegterg      :      0.74s CPU      0.75s WALL (      64 calls)

     Called by sum_band:

     Called by *egterg:
     h_psi        :      0.71s CPU      0.72s WALL (     195 calls)
     g_psi        :      0.00s CPU      0.00s WALL (     123 calls)
     cdiaghg      :      0.02s CPU      0.02s WALL (     187 calls)

     Called by h_psi:
     h_psi:pot    :      0.71s CPU      0.72s WALL (     195 calls)
     h_psi:calbec :      0.02s CPU      0.01s WALL (     195 calls)
     vloc_psi     :      0.68s CPU      0.69s WALL (     195 calls)
     add_vuspsi   :      0.01s CPU      0.01s WALL (     195 calls)

     General routines
     calbec       :      0.02s CPU      0.02s WALL (     235 calls)
     fft          :      0.05s CPU      0.05s WALL (     123 calls)
     fftw         :      0.77s CPU      0.75s WALL (    3220 calls)
     davcio       :      0.00s CPU      0.00s WALL (       8 calls)
 
     Parallel routines
     fft_scatter  :      0.16s CPU      0.17s WALL (    3343 calls)
 
     PWSCF        :     1.46s CPU         1.52s WALL

 
   This run was terminated on:  17:19: 4  15Apr2018            

=------------------------------------------------------------------------------=
   JOB DONE.
=------------------------------------------------------------------------------=
