
     Program PWSCF v.6.1 (svn rev. 13369) starts on 15Apr2018 at 17:18:47 

     This program is part of the open-source Quantum ESPRESSO suite
     for quantum simulation of materials; please cite
         "P. Giannozzi et al., J. Phys.:Condens. Matter 21 395502 (2009);
          URL http://www.quantum-espresso.org", 
     in publications or presentations arising from this work. More details at
     http://www.quantum-espresso.org/quote

     Parallel version (MPI), running on     4 processors
     R & G space division:  proc/nbgrp/npool/nimage =       4
     Waiting for input...
     Reading input from standard input

     Current dimensions of program PWSCF are:
     Max number of different atomic species (ntypx) = 10
     Max number of k-points (npk) =  40000
     Max angular momentum in pseudopotentials (lmaxx) =  3

     Subspace diagonalization in iterative solution of the eigenvalue problem:
     a serial algorithm will be used

 
     Parallelization info
     --------------------
     sticks:   dense  smooth     PW     G-vecs:    dense   smooth      PW
     Min          63      63     21                  684      684     133
     Max          64      64     22                  688      688     136
     Sum         253     253     85                 2741     2741     537
 


     bravais-lattice index     =            2
     lattice parameter (alat)  =       7.9700  a.u.
     unit-cell volume          =     126.5654 (a.u.)^3
     number of atoms/cell      =            2
     number of atomic types    =            2
     number of electrons       =        16.00
     number of Kohn-Sham states=            8
     kinetic-energy cutoff     =      30.0000  Ry
     charge density cutoff     =     120.0000  Ry
     convergence threshold     =      1.0E-08
     mixing beta               =       0.7000
     number of iterations used =            8  plain     mixing
     Exchange-correlation      = PBE ( 1  4  3  4 0 0)

     celldm(1)=   7.970000  celldm(2)=   0.000000  celldm(3)=   0.000000
     celldm(4)=   0.000000  celldm(5)=   0.000000  celldm(6)=   0.000000

     crystal axes: (cart. coord. in units of alat)
               a(1) = (  -0.500000   0.000000   0.500000 )  
               a(2) = (   0.000000   0.500000   0.500000 )  
               a(3) = (  -0.500000   0.500000   0.000000 )  

     reciprocal axes: (cart. coord. in units 2 pi/alat)
               b(1) = ( -1.000000 -1.000000  1.000000 )  
               b(2) = (  1.000000  1.000000  1.000000 )  
               b(3) = ( -1.000000  1.000000 -1.000000 )  


     PseudoPot. # 1 for Mg read from file:
     ../pseudo/Mg.pbe.UPF
     MD5 check sum: 4c04d8c6e0476e83eaecaf72fa8acc4d
     Pseudo is Norm-conserving, Zval = 10.0
     Generated using ONCVPSP code by D. R. Hamann
     Using radial grid of 1510 points,  4 beta functions with: 
                l(1) =   0
                l(2) =   0
                l(3) =   1
                l(4) =   1

     PseudoPot. # 2 for O  read from file:
     ../pseudo/O.pbe.UPF
     MD5 check sum: 3e3f909f7470e8921608ab6b1f57bbae
     Pseudo is Norm-conserving + core correction, Zval =  6.0
     Generated using ONCVPSP code by D. R. Hamann
     Using radial grid of  936 points,  5 beta functions with: 
                l(1) =   0
                l(2) =   0
                l(3) =   1
                l(4) =   1
                l(5) =   2

     atomic species   valence    mass     pseudopotential
        Mg            10.00    24.30500     Mg( 1.00)
        O              6.00    15.99940     O ( 1.00)

     48 Sym. Ops., with inversion, found



   Cartesian axes

     site n.     atom                  positions (alat units)
         1           Mg  tau(   1) = (   0.0000000   0.0000000   0.0000000  )
         2           O   tau(   2) = (   0.5000000   0.5000000   0.5000000  )

     number of k points=     8
                       cart. coord. in units 2pi/alat
        k(    1) = (   0.0000000   0.0000000   0.0000000), wk =   0.0312500
        k(    2) = (  -0.2500000   0.2500000  -0.2500000), wk =   0.2500000
        k(    3) = (   0.5000000  -0.5000000   0.5000000), wk =   0.1250000
        k(    4) = (   0.0000000   0.5000000   0.0000000), wk =   0.1875000
        k(    5) = (   0.7500000  -0.2500000   0.7500000), wk =   0.7500000
        k(    6) = (   0.5000000   0.0000000   0.5000000), wk =   0.3750000
        k(    7) = (   0.0000000  -1.0000000   0.0000000), wk =   0.0937500
        k(    8) = (  -0.5000000  -1.0000000   0.0000000), wk =   0.1875000

     Dense  grid:     2741 G-vectors     FFT dimensions: (  20,  20,  20)

     Estimated max dynamical RAM per process >       0.62MB

     Estimated total allocated dynamical RAM >       2.49MB

     Check: negative/imaginary core charge=   -0.001539    0.000000

     Initial potential from superposition of free atoms

     starting charge   15.99920, renormalised to   16.00000
     Starting wfc are    9 randomized atomic wfcs

     total cpu time spent up to now is        0.2 secs

     per-process dynamical memory:    28.9 Mb

     Self-consistent Calculation

     iteration #  1     ecut=    30.00 Ry     beta=0.70
     Davidson diagonalization with overlap
     ethr =  1.00E-02,  avg # of iterations =  2.0

     total cpu time spent up to now is        0.2 secs

     total energy              =    -147.42591014 Ry
     Harris-Foulkes estimate   =    -148.06286306 Ry
     estimated scf accuracy    <       1.03260516 Ry

     iteration #  2     ecut=    30.00 Ry     beta=0.70
     Davidson diagonalization with overlap
     ethr =  6.45E-03,  avg # of iterations =  2.0

     total cpu time spent up to now is        0.2 secs

     total energy              =    -147.56353718 Ry
     Harris-Foulkes estimate   =    -147.62486717 Ry
     estimated scf accuracy    <       0.10235913 Ry

     iteration #  3     ecut=    30.00 Ry     beta=0.70
     Davidson diagonalization with overlap
     ethr =  6.40E-04,  avg # of iterations =  2.2

     total cpu time spent up to now is        0.2 secs

     total energy              =    -147.59231290 Ry
     Harris-Foulkes estimate   =    -147.60860468 Ry
     estimated scf accuracy    <       0.03426434 Ry

     iteration #  4     ecut=    30.00 Ry     beta=0.70
     Davidson diagonalization with overlap
     ethr =  2.14E-04,  avg # of iterations =  2.0

     total cpu time spent up to now is        0.2 secs

     total energy              =    -147.59869751 Ry
     Harris-Foulkes estimate   =    -147.59864434 Ry
     estimated scf accuracy    <       0.00021436 Ry

     iteration #  5     ecut=    30.00 Ry     beta=0.70
     Davidson diagonalization with overlap
     ethr =  1.34E-06,  avg # of iterations =  1.8

     total cpu time spent up to now is        0.2 secs

     total energy              =    -147.59870736 Ry
     Harris-Foulkes estimate   =    -147.59870756 Ry
     estimated scf accuracy    <       0.00000108 Ry

     iteration #  6     ecut=    30.00 Ry     beta=0.70
     Davidson diagonalization with overlap
     ethr =  6.76E-09,  avg # of iterations =  2.0

     total cpu time spent up to now is        0.3 secs

     total energy              =    -147.59870762 Ry
     Harris-Foulkes estimate   =    -147.59870759 Ry
     estimated scf accuracy    <       0.00000002 Ry

     iteration #  7     ecut=    30.00 Ry     beta=0.70
     Davidson diagonalization with overlap
     ethr =  1.49E-10,  avg # of iterations =  2.0

     total cpu time spent up to now is        0.3 secs

     End of self-consistent calculation

          k = 0.0000 0.0000 0.0000 (   339 PWs)   bands (ev):

   -74.8968 -29.8704 -29.8704 -29.8704  -9.9618   8.8619   8.8619   8.8619

          k =-0.2500 0.2500-0.2500 (   350 PWs)   bands (ev):

   -74.9418 -30.3631 -30.2850 -30.2850  -9.3607   5.7182   8.4441   8.4441

          k = 0.5000-0.5000 0.5000 (   344 PWs)   bands (ev):

   -74.8900 -30.4623 -29.7019 -29.7019  -8.6276   3.6919   8.1895   8.1895

          k = 0.0000 0.5000 0.0000 (   351 PWs)   bands (ev):

   -74.9499 -30.7628 -30.1985 -30.1985  -9.2262   5.7260   8.0729   8.0729

          k = 0.7500-0.2500 0.7500 (   354 PWs)   bands (ev):

   -74.9492 -30.9964 -30.4443 -29.9700  -8.6247   4.6578   6.7872   7.8204

          k = 0.5000 0.0000 0.5000 (   343 PWs)   bands (ev):

   -74.8798 -30.0853 -29.9165 -29.6451  -8.7391   4.8955   6.9970   8.1334

          k = 0.0000-1.0000 0.0000 (   342 PWs)   bands (ev):

   -74.8766 -30.8114 -29.4201 -29.4201  -8.5627   4.7010   7.6145   7.6145

          k =-0.5000-1.0000 0.0000 (   360 PWs)   bands (ev):

   -74.9832 -31.0456 -30.6510 -30.6510  -8.4895   5.7934   5.7934   6.6508

     highest occupied level (ev):     8.8619

!    total energy              =    -147.59870762 Ry
     Harris-Foulkes estimate   =    -147.59870763 Ry
     estimated scf accuracy    <          2.3E-09 Ry

     The total energy is the sum of the following terms:

     one-electron contribution =     -65.22277827 Ry
     hartree contribution      =      35.66647871 Ry
     xc contribution           =     -23.39884612 Ry
     ewald contribution        =     -94.64356195 Ry

     convergence has been achieved in   7 iterations

     Forces acting on atoms (cartesian axes, Ry/au):

     atom    1 type  1   force =     0.00000000    0.00000000    0.00000000
     atom    2 type  2   force =    -0.00000000   -0.00000000   -0.00000000

     Total force =     0.000000     Total SCF correction =     0.000000


     Computing stress (Cartesian axis) and pressure

          total   stress  (Ry/bohr**3)                   (kbar)     P=********
  -0.07685690   0.00000000   0.00000000     -11306.04      0.00      0.00
   0.00000000  -0.07685690  -0.00000000          0.00 -11306.04     -0.00
   0.00000000  -0.00000000  -0.07685690          0.00     -0.00 -11306.04


     Writing output data file diamond.7.97.30.4.save
 
     init_run     :      0.02s CPU      0.02s WALL (       1 calls)
     electrons    :      0.11s CPU      0.12s WALL (       1 calls)
     forces       :      0.00s CPU      0.00s WALL (       1 calls)
     stress       :      0.01s CPU      0.01s WALL (       1 calls)

     Called by init_run:
     wfcinit      :      0.01s CPU      0.01s WALL (       1 calls)
     potinit      :      0.00s CPU      0.00s WALL (       1 calls)

     Called by electrons:
     c_bands      :      0.09s CPU      0.09s WALL (       7 calls)
     sum_band     :      0.01s CPU      0.01s WALL (       7 calls)
     v_of_rho     :      0.01s CPU      0.01s WALL (       8 calls)
     mix_rho      :      0.00s CPU      0.00s WALL (       7 calls)

     Called by c_bands:
     init_us_2    :      0.00s CPU      0.00s WALL (     136 calls)
     cegterg      :      0.08s CPU      0.08s WALL (      56 calls)

     Called by sum_band:

     Called by *egterg:
     h_psi        :      0.06s CPU      0.06s WALL (     176 calls)
     g_psi        :      0.00s CPU      0.00s WALL (     112 calls)
     cdiaghg      :      0.02s CPU      0.02s WALL (     168 calls)

     Called by h_psi:
     h_psi:pot    :      0.06s CPU      0.06s WALL (     176 calls)
     h_psi:calbec :      0.00s CPU      0.00s WALL (     176 calls)
     vloc_psi     :      0.05s CPU      0.06s WALL (     176 calls)
     add_vuspsi   :      0.00s CPU      0.00s WALL (     176 calls)

     General routines
     calbec       :      0.00s CPU      0.00s WALL (     216 calls)
     fft          :      0.00s CPU      0.00s WALL (     112 calls)
     fftw         :      0.05s CPU      0.06s WALL (    2866 calls)
     davcio       :      0.00s CPU      0.00s WALL (       8 calls)
 
     Parallel routines
     fft_scatter  :      0.02s CPU      0.02s WALL (    2978 calls)
 
     PWSCF        :     0.32s CPU         0.34s WALL

 
   This run was terminated on:  17:18:47  15Apr2018            

=------------------------------------------------------------------------------=
   JOB DONE.
=------------------------------------------------------------------------------=
