
     Program PWSCF v.6.1 (svn rev. 13369) starts on 15Apr2018 at 17:18:50 

     This program is part of the open-source Quantum ESPRESSO suite
     for quantum simulation of materials; please cite
         "P. Giannozzi et al., J. Phys.:Condens. Matter 21 395502 (2009);
          URL http://www.quantum-espresso.org", 
     in publications or presentations arising from this work. More details at
     http://www.quantum-espresso.org/quote

     Parallel version (MPI), running on     4 processors
     R & G space division:  proc/nbgrp/npool/nimage =       4
     Waiting for input...
     Reading input from standard input

     Current dimensions of program PWSCF are:
     Max number of different atomic species (ntypx) = 10
     Max number of k-points (npk) =  40000
     Max angular momentum in pseudopotentials (lmaxx) =  3

     Subspace diagonalization in iterative solution of the eigenvalue problem:
     a serial algorithm will be used

 
     Parallelization info
     --------------------
     sticks:   dense  smooth     PW     G-vecs:    dense   smooth      PW
     Min         128     128     40                 1955     1955     340
     Max         130     130     41                 1956     1956     342
     Sum         517     517    163                 7823     7823    1363
 


     bravais-lattice index     =            2
     lattice parameter (alat)  =       7.9700  a.u.
     unit-cell volume          =     126.5654 (a.u.)^3
     number of atoms/cell      =            2
     number of atomic types    =            2
     number of electrons       =        16.00
     number of Kohn-Sham states=            8
     kinetic-energy cutoff     =      60.0000  Ry
     charge density cutoff     =     240.0000  Ry
     convergence threshold     =      1.0E-08
     mixing beta               =       0.7000
     number of iterations used =            8  plain     mixing
     Exchange-correlation      = PBE ( 1  4  3  4 0 0)

     celldm(1)=   7.970000  celldm(2)=   0.000000  celldm(3)=   0.000000
     celldm(4)=   0.000000  celldm(5)=   0.000000  celldm(6)=   0.000000

     crystal axes: (cart. coord. in units of alat)
               a(1) = (  -0.500000   0.000000   0.500000 )  
               a(2) = (   0.000000   0.500000   0.500000 )  
               a(3) = (  -0.500000   0.500000   0.000000 )  

     reciprocal axes: (cart. coord. in units 2 pi/alat)
               b(1) = ( -1.000000 -1.000000  1.000000 )  
               b(2) = (  1.000000  1.000000  1.000000 )  
               b(3) = ( -1.000000  1.000000 -1.000000 )  


     PseudoPot. # 1 for Mg read from file:
     ../pseudo/Mg.pbe.UPF
     MD5 check sum: 4c04d8c6e0476e83eaecaf72fa8acc4d
     Pseudo is Norm-conserving, Zval = 10.0
     Generated using ONCVPSP code by D. R. Hamann
     Using radial grid of 1510 points,  4 beta functions with: 
                l(1) =   0
                l(2) =   0
                l(3) =   1
                l(4) =   1

     PseudoPot. # 2 for O  read from file:
     ../pseudo/O.pbe.UPF
     MD5 check sum: 3e3f909f7470e8921608ab6b1f57bbae
     Pseudo is Norm-conserving + core correction, Zval =  6.0
     Generated using ONCVPSP code by D. R. Hamann
     Using radial grid of  936 points,  5 beta functions with: 
                l(1) =   0
                l(2) =   0
                l(3) =   1
                l(4) =   1
                l(5) =   2

     atomic species   valence    mass     pseudopotential
        Mg            10.00    24.30500     Mg( 1.00)
        O              6.00    15.99940     O ( 1.00)

     48 Sym. Ops., with inversion, found



   Cartesian axes

     site n.     atom                  positions (alat units)
         1           Mg  tau(   1) = (   0.0000000   0.0000000   0.0000000  )
         2           O   tau(   2) = (   0.5000000   0.5000000   0.5000000  )

     number of k points=     8
                       cart. coord. in units 2pi/alat
        k(    1) = (   0.0000000   0.0000000   0.0000000), wk =   0.0312500
        k(    2) = (  -0.2500000   0.2500000  -0.2500000), wk =   0.2500000
        k(    3) = (   0.5000000  -0.5000000   0.5000000), wk =   0.1250000
        k(    4) = (   0.0000000   0.5000000   0.0000000), wk =   0.1875000
        k(    5) = (   0.7500000  -0.2500000   0.7500000), wk =   0.7500000
        k(    6) = (   0.5000000   0.0000000   0.5000000), wk =   0.3750000
        k(    7) = (   0.0000000  -1.0000000   0.0000000), wk =   0.0937500
        k(    8) = (  -0.5000000  -1.0000000   0.0000000), wk =   0.1875000

     Dense  grid:     7823 G-vectors     FFT dimensions: (  27,  27,  27)

     Estimated max dynamical RAM per process >       1.67MB

     Estimated total allocated dynamical RAM >       6.68MB

     Check: negative/imaginary core charge=   -0.000043    0.000000

     Initial potential from superposition of free atoms

     starting charge   15.99920, renormalised to   16.00000
     Starting wfc are    9 randomized atomic wfcs

     total cpu time spent up to now is        0.2 secs

     per-process dynamical memory:    35.6 Mb

     Self-consistent Calculation

     iteration #  1     ecut=    60.00 Ry     beta=0.70
     Davidson diagonalization with overlap
     ethr =  1.00E-02,  avg # of iterations =  2.0

     total cpu time spent up to now is        0.2 secs

     total energy              =    -151.89019117 Ry
     Harris-Foulkes estimate   =    -152.16508910 Ry
     estimated scf accuracy    <       0.38421299 Ry

     iteration #  2     ecut=    60.00 Ry     beta=0.70
     Davidson diagonalization with overlap
     ethr =  2.40E-03,  avg # of iterations =  2.4

     total cpu time spent up to now is        0.2 secs

     total energy              =    -151.98797750 Ry
     Harris-Foulkes estimate   =    -152.14640400 Ry
     estimated scf accuracy    <       0.32353459 Ry

     iteration #  3     ecut=    60.00 Ry     beta=0.70
     Davidson diagonalization with overlap
     ethr =  2.02E-03,  avg # of iterations =  2.0

     total cpu time spent up to now is        0.3 secs

     total energy              =    -152.05222407 Ry
     Harris-Foulkes estimate   =    -152.05232314 Ry
     estimated scf accuracy    <       0.00158723 Ry

     iteration #  4     ecut=    60.00 Ry     beta=0.70
     Davidson diagonalization with overlap
     ethr =  9.92E-06,  avg # of iterations =  2.0

     total cpu time spent up to now is        0.3 secs

     total energy              =    -152.05251924 Ry
     Harris-Foulkes estimate   =    -152.05252355 Ry
     estimated scf accuracy    <       0.00001613 Ry

     iteration #  5     ecut=    60.00 Ry     beta=0.70
     Davidson diagonalization with overlap
     ethr =  1.01E-07,  avg # of iterations =  2.0

     total cpu time spent up to now is        0.4 secs

     total energy              =    -152.05252169 Ry
     Harris-Foulkes estimate   =    -152.05252064 Ry
     estimated scf accuracy    <       0.00000123 Ry

     iteration #  6     ecut=    60.00 Ry     beta=0.70
     Davidson diagonalization with overlap
     ethr =  7.69E-09,  avg # of iterations =  2.0

     total cpu time spent up to now is        0.4 secs

     total energy              =    -152.05252189 Ry
     Harris-Foulkes estimate   =    -152.05252192 Ry
     estimated scf accuracy    <       0.00000005 Ry

     iteration #  7     ecut=    60.00 Ry     beta=0.70
     Davidson diagonalization with overlap
     ethr =  2.85E-10,  avg # of iterations =  2.0

     total cpu time spent up to now is        0.4 secs

     End of self-consistent calculation

          k = 0.0000 0.0000 0.0000 (   965 PWs)   bands (ev):

   -64.6225 -31.2018 -31.2018 -31.2018  -9.1603   8.0381   8.0381   8.0381

          k =-0.2500 0.2500-0.2500 (   983 PWs)   bands (ev):

   -64.6183 -31.2586 -31.2108 -31.2108  -8.5603   5.3913   7.7057   7.7057

          k = 0.5000-0.5000 0.5000 (   978 PWs)   bands (ev):

   -64.6141 -31.2986 -31.2055 -31.2055  -7.8517   3.4482   7.4026   7.4026

          k = 0.0000 0.5000 0.0000 (   998 PWs)   bands (ev):

   -64.6170 -31.2615 -31.2346 -31.2346  -8.4030   5.4250   7.3120   7.3120

          k = 0.7500-0.2500 0.7500 (   998 PWs)   bands (ev):

   -64.6128 -31.2897 -31.2419 -31.2349  -7.7513   4.2575   6.1504   7.0377

          k = 0.5000 0.0000 0.5000 (  1003 PWs)   bands (ev):

   -64.6142 -31.2923 -31.2550 -31.2168  -7.9352   4.5602   6.0676   7.4009

          k = 0.0000-1.0000 0.0000 (   982 PWs)   bands (ev):

   -64.6115 -31.2716 -31.2392 -31.2392  -7.6307   4.0147   6.7114   6.7114

          k =-0.5000-1.0000 0.0000 (   992 PWs)   bands (ev):

   -64.6114 -31.2618 -31.2618 -31.2403  -7.5676   5.1248   5.1248   6.2807

     highest occupied level (ev):     8.0381

!    total energy              =    -152.05252190 Ry
     Harris-Foulkes estimate   =    -152.05252190 Ry
     estimated scf accuracy    <          3.3E-09 Ry

     The total energy is the sum of the following terms:

     one-electron contribution =     -74.39088419 Ry
     hartree contribution      =      41.45973200 Ry
     xc contribution           =     -24.47780781 Ry
     ewald contribution        =     -94.64356191 Ry

     convergence has been achieved in   7 iterations

     Forces acting on atoms (cartesian axes, Ry/au):

     atom    1 type  1   force =     0.00000000    0.00000000    0.00000000
     atom    2 type  2   force =     0.00000000    0.00000000    0.00000000

     Total force =     0.000000     Total SCF correction =     0.000000


     Computing stress (Cartesian axis) and pressure

          total   stress  (Ry/bohr**3)                   (kbar)     P= -429.19
  -0.00291761  -0.00000000  -0.00000000       -429.19     -0.00     -0.00
  -0.00000000  -0.00291761   0.00000000         -0.00   -429.19      0.00
  -0.00000000   0.00000000  -0.00291761         -0.00      0.00   -429.19


     Writing output data file diamond.7.97.60.4.save
 
     init_run     :      0.04s CPU      0.04s WALL (       1 calls)
     electrons    :      0.24s CPU      0.25s WALL (       1 calls)
     forces       :      0.01s CPU      0.01s WALL (       1 calls)
     stress       :      0.02s CPU      0.02s WALL (       1 calls)

     Called by init_run:
     wfcinit      :      0.01s CPU      0.02s WALL (       1 calls)
     potinit      :      0.01s CPU      0.01s WALL (       1 calls)

     Called by electrons:
     c_bands      :      0.19s CPU      0.20s WALL (       7 calls)
     sum_band     :      0.03s CPU      0.04s WALL (       7 calls)
     v_of_rho     :      0.02s CPU      0.02s WALL (       8 calls)
     mix_rho      :      0.00s CPU      0.00s WALL (       7 calls)

     Called by c_bands:
     init_us_2    :      0.01s CPU      0.01s WALL (     136 calls)
     cegterg      :      0.17s CPU      0.18s WALL (      56 calls)

     Called by sum_band:

     Called by *egterg:
     h_psi        :      0.14s CPU      0.16s WALL (     179 calls)
     g_psi        :      0.00s CPU      0.00s WALL (     115 calls)
     cdiaghg      :      0.02s CPU      0.02s WALL (     171 calls)

     Called by h_psi:
     h_psi:pot    :      0.14s CPU      0.16s WALL (     179 calls)
     h_psi:calbec :      0.00s CPU      0.01s WALL (     179 calls)
     vloc_psi     :      0.14s CPU      0.14s WALL (     179 calls)
     add_vuspsi   :      0.00s CPU      0.01s WALL (     179 calls)

     General routines
     calbec       :      0.01s CPU      0.01s WALL (     219 calls)
     fft          :      0.01s CPU      0.01s WALL (     112 calls)
     fftw         :      0.15s CPU      0.16s WALL (    2832 calls)
     davcio       :      0.00s CPU      0.00s WALL (       8 calls)
 
     Parallel routines
     fft_scatter  :      0.04s CPU      0.04s WALL (    2944 calls)
 
     PWSCF        :     0.48s CPU         0.52s WALL

 
   This run was terminated on:  17:18:51  15Apr2018            

=------------------------------------------------------------------------------=
   JOB DONE.
=------------------------------------------------------------------------------=
