********************************************************************************
*                       GENERAL UTILITY LATTICE PROGRAM                        *
*                                 Julian Gale                                  *
*                       Curtin Institute for Computation                       *
*                           Department of Chemistry                            *
*                    Curtin University, Western Australia                      *
********************************************************************************
* Version = 4.5.0 * Last modified =  20th September 2016                       *
********************************************************************************
*  optimise     - perform optimisation run                                     *
*  conv         - constant volume calculation                                  *
*  hessian      - output inverse Hessian matrix when calculated exactly        *
********************************************************************************

  Job Started  at 17:06.04 23rd September  2016                               

  Number of CPUs =     1

  Host name      = M-A0010516-S                            


  Total number of configurations input =   1

********************************************************************************
*  Input for Configuration =   1                                               *
********************************************************************************

  Formula = SiO5                                                        

  Number of irreducible atoms/shells =       6


  Total number atoms/shells =       6

  Dimensionality = 0               :  Cluster


  Charge on cluster =   0.000000


  Initial cluster dipoles : x =      0.000000 e.Angs
                            y =      0.000000 e.Angs
                            z =      0.000000 e.Angs

  Temperature of configuration =  0.000     K 

  Symmetry number =      1

  Cartesian coordinates of cluster :

--------------------------------------------------------------------------------
   No.  Atomic       x           y          z         Charge      Occupancy
        Label      (Angs)      (Angs)     (Angs)        (e)         (Frac)  
--------------------------------------------------------------------------------
      1 Si1   c      0.0000      0.0000      0.0000     0.00000    1.000000    
      2 O1    c     -2.5000 *    0.0000 *    0.0000 *   0.00000    1.000000    
      3 O1    c      2.7000 *    0.0000 *    0.0000 *   0.00000    1.000000    
      4 O1    c      0.0000 *    2.5000 *    0.0000 *   0.00000    1.000000    
      5 O1    c      0.0000 *   -2.6000 *    0.0000 *   0.00000    1.000000    
      6 O1    c      0.0000 *    0.0000 *    2.5000 *   0.00000    1.000000    
--------------------------------------------------------------------------------



********************************************************************************
*  General input information                                                   *
********************************************************************************

  Species output for all configurations : 

--------------------------------------------------------------------------------
  Species    Type    Atomic    Atomic    Charge       Radii (Angs)     Library
                     Number     Mass       (e)     Cova   Ionic  VDW   Symbol
--------------------------------------------------------------------------------
    O1       Core        8      16.00   0.000000   0.730  0.000  1.360 O        
    Si1      Core       14      28.09   0.000000   1.200  0.000  2.100 Si       
--------------------------------------------------------------------------------


  Accuracy factor for short range sums = 12.000

  Time limit = Infinity

  Bond-order two-body potentials :

--------------------------------------------------------------------------------
Atom  Types                 A                 B                  Cutoffs(Ang)   
  1     2                 ZetaA             ZetaB                Taper    Max   
--------------------------------------------------------------------------------
O1   c O1   c          3331.0600000000       260.4770000000     2.2607   3.3129
                          3.783360000          3.344020000    
--------------------------------------------------------------------------------
Si1  c Si1  c          1830.7900000000       471.1950000000     2.4481   3.0835
                          2.623920000          1.888910000    
--------------------------------------------------------------------------------
O1   c Si1  c          2586.8593540000       350.2591000000     2.3525   3.1962
                          3.943670000          2.315955000    
--------------------------------------------------------------------------------

  Bond-order repulsive :

--------------------------------------------------------------------------------
Atom    Type         Alpha            N             Lambda          M           
 1/2     1/2                                                                    
--------------------------------------------------------------------------------
O1   c             0.00000000       3.98638000       3.34402000       1
O1   c
--------------------------------------------------------------------------------
Si1  c             0.00000000       0.78766000       1.88891000       3
Si1  c
--------------------------------------------------------------------------------
O1   c             0.00000000       3.98638000       2.31595500       1
Si1  c
--------------------------------------------------------------------------------
Si1  c             0.00000000       0.78766000       2.31595500       3
O1   c
--------------------------------------------------------------------------------

  Bond-order attractive :

--------------------------------------------------------------------------------
Atom    Type         Alpha            N             Lambda          M           
 1/2     1/2           C              D                H                        
--------------------------------------------------------------------------------
O1   c  Theta       1.00270000       3.98638000       3.34402000       1
O1   c              0.00000000       1.00000000      -0.52909000
--------------------------------------------------------------------------------
Si1  c  Theta       0.00000110       0.78766000       1.88891000       3
Si1  c         100390.00000000      16.21701000      -0.59784000
--------------------------------------------------------------------------------
O1   c  Theta       1.00270000       3.98638000       2.31595500       1
Si1  c              0.00000000       1.00000000      -0.52909000
--------------------------------------------------------------------------------
Si1  c  Theta       0.00000110       0.78766000       2.31595500       3
O1   c         100390.00000000      16.21701000      -0.59784000
--------------------------------------------------------------------------------

  Bond-order coordination :

--------------------------------------------------------------------------------
Atom              C1              C2              Z0              E0            
--------------------------------------------------------------------------------
Si1  c         -0.12380000       0.28520000       3.70000000    -103.73300000
--------------------------------------------------------------------------------
O1   c         -0.00380000       0.13930000       2.80000000    -432.15800000
--------------------------------------------------------------------------------

********************************************************************************
*  Output for configuration   1                                                *
********************************************************************************


  Number of neighbours for atoms :

  i  Nat   N
   1  14      5
   2   8      1
   3   8      1
   4   8      1
   5   8      1
   6   8      1

  Neighbours of atoms :

   1    2    3    4    5    6
   2    1
   3    1
   4    1
   5    1
   6    1

  Components of energy : 

--------------------------------------------------------------------------------
  Interatomic potentials     =           0.00000000 eV    
  Bond-order potentials      =       -2267.13828379 eV    
  Monopole - monopole (real) =           0.00000000 eV    
--------------------------------------------------------------------------------
  Total lattice energy       =       -2267.13828379 eV    
--------------------------------------------------------------------------------
  Total lattice energy       =         -218744.1880 kJ/mol
--------------------------------------------------------------------------------


  Number of variables =       15

  Maximum number of calculations  =             1
  Maximum Hessian update interval =            10
  Maximum step size               =   1.000000000
  Maximum parameter tolerance     =   0.000010000
  Maximum function  tolerance     =   0.000010000
  Maximum gradient  tolerance     =   0.001000000
  Maximum gradient  component     =   0.010000000

  Symmetry not applied to optimisation

  Newton-Raphson optimiser to be used

  BFGS hessian update to be used

  Start of cluster optimisation :


  Number of neighbours for atoms :

  i  Nat   N
   1  14      5
   2   8      1
   3   8      1
   4   8      1
   5   8      1
   6   8      1

  Neighbours of atoms :

   1    2    3    4    5    6
   2    1
   3    1
   4    1
   5    1
   6    1
  Cycle:      0 Energy:     -2267.138284  Gnorm:      0.338068  CPU:    0.004

 Hessian Matrix :

       -1.7012
        0.0194      1.0154
        0.0922     -0.0005      0.9956
       -0.0626      0.0040      0.0096     -4.9953
       -0.0003     -0.0085      0.0000     -0.0205      0.6418
       -0.0027      0.0000     -0.0066     -0.0769     -0.0003      0.6328
       -0.0821     -0.0223      0.0036     -0.0894      0.0125     -0.0015      1.0119
       -0.0941     -0.0845      0.0053      0.1678     -0.0407      0.0043      0.0469     -1.7211
       -0.0054     -0.0037      0.0114      0.0138     -0.0022      0.0054      0.0014     -0.0945      0.9972
       -0.0632      0.0175      0.0029     -0.0625     -0.0095     -0.0011     -0.0115     -0.0003      0.0000      0.8501
        0.1411     -0.0869     -0.0096     -0.1286     -0.0457     -0.0046      0.0038     -0.0577     -0.0069     -0.0372
     -4.0005
       -0.0046      0.0024      0.0081      0.0091      0.0015      0.0038      0.0000      0.0032     -0.0099      0.0008
      0.0853      0.8397
       -0.0810      0.0005     -0.0186     -0.0857     -0.0003      0.0107      0.0090     -0.0007      0.0012      0.0063
      0.0046      0.0010      1.0072
       -0.0006      0.0078     -0.0005      0.0044      0.0033     -0.0003      0.0014     -0.0836      0.0194     -0.0008
     -0.0852     -0.0154      0.0002      1.0123
       -0.0890      0.0007     -0.0768      0.1517      0.0006     -0.0364     -0.0008      0.0892     -0.0770     -0.0008
     -0.1322     -0.0592      0.0441     -0.0188     -1.7386

 Inverse Hessian Matrix :

   -0.58436728
    0.01174586  0.98003610
    0.05539877 -0.00059883  0.99657723
    0.01225160 -0.00071448 -0.00086790 -0.20075584
    0.00101544  0.00788104 -0.00000949 -0.00711616  1.55502170
    0.00149647  0.00010256  0.00777616 -0.02510208 -0.00007526  1.57582289
   -0.04784653  0.02442208  0.00074656 -0.01576113 -0.01762203  0.00034639  0.98266168
    0.03366288 -0.04704148 -0.00157125 -0.02176395 -0.03738507  0.00019207  0.02711276 -0.57785463
    0.00157694 -0.00068808 -0.01491386 -0.00049112 -0.00001772 -0.01102983  0.00130200 -0.05600750  0.99475344
   -0.04424490 -0.01981119  0.00047935 -0.01372391  0.01572095  0.00045992  0.00790563  0.00211786  0.00011219  1.17224622
   -0.02261221 -0.01974747  0.00091066  0.00808804 -0.01709387 -0.00000733 -0.00112031  0.01373332  0.00144960 -0.01185540
 -0.25021472
    0.00055938 -0.00084280 -0.01286041  0.00025660 -0.00103987 -0.00944295  0.00002289 -0.00225622  0.00831061  0.00016895
  0.02636802  1.18580369
   -0.04549101  0.00038261  0.02475702 -0.01481914  0.00009078 -0.01713112 -0.01410735  0.00157787  0.00070911 -0.01208757
 -0.00079706  0.00048237  0.98770711
    0.00097424 -0.01322788 -0.00031557 -0.00054900 -0.00953774 -0.00004250  0.00069642 -0.04555236 -0.02435083  0.00023946
 -0.01900344  0.01908308  0.00041057  0.98314557
    0.03075166 -0.00095065 -0.04551669 -0.01965454 -0.00057756 -0.03519319  0.00161621 -0.03119957 -0.04629266  0.00118602
  0.02076485 -0.04228616  0.02544599 -0.01119265 -0.57463861


  ** Hessian calculated **
  ** Cosine =  -0.947217

  Number of neighbours for atoms :

  i  Nat   N
   1  14      5
   2   8      1
   3   8      1
   4   8      1
   5   8      1
   6   8      1

  Neighbours of atoms :

   1    2    3    4    5    6
   2    1
   3    1
   4    1
   5    1
   6    1

  Number of neighbours for atoms :

  i  Nat   N
   1  14      5
   2   8      4
   3   8      1
   4   8      3
   5   8      3
   6   8      4

  Neighbours of atoms :

   1    2    3    4    5    6
   2    1    4    5    6
   3    1
   4    1    2    6
   5    1    2    6
   6    1    2    4    5

  Number of neighbours for atoms :

  i  Nat   N
   1  14      5
   2   8      4
   3   8      3
   4   8      4
   5   8      3
   6   8      5

  Neighbours of atoms :

   1    2    3    4    5    6
   2    1    4    5    6
   3    1    4    6
   4    1    2    3    6
   5    1    2    6
   6    1    2    3    4    5

  Number of neighbours for atoms :

  i  Nat   N
   1  14      5
   2   8      4
   3   8      4
   4   8      4
   5   8      4
   6   8      5

  Neighbours of atoms :

   1    2    3    4    5    6
   2    1    4    5    6
   3    1    4    5    6
   4    1    2    3    6
   5    1    2    3    6
   6    1    2    3    4    5

  Number of neighbours for atoms :

  i  Nat   N
   1  14      5
   2   8      4
   3   8      3
   4   8      4
   5   8      3
   6   8      5

  Neighbours of atoms :

   1    2    3    4    5    6
   2    1    4    5    6
   3    1    4    6
   4    1    2    3    6
   5    1    2    6
   6    1    2    3    4    5

  Number of neighbours for atoms :

  i  Nat   N
   1  14      5
   2   8      4
   3   8      3
   4   8      4
   5   8      3
   6   8      5

  Neighbours of atoms :

   1    2    3    4    5    6
   2    1    4    5    6
   3    1    4    6
   4    1    2    3    6
   5    1    2    6
   6    1    2    3    4    5
  Cycle:      1 Energy:     -2273.858496  Gnorm:      0.317847  CPU:    0.005


  **** Maximum number of function calls has been reached ****


  Final energy =   -2273.85849579 eV
  Final Gnorm  =       0.31784716

  Components of energy : 

--------------------------------------------------------------------------------
  Interatomic potentials     =           0.00000000 eV    
  Bond-order potentials      =       -2273.85849579 eV    
  Monopole - monopole (real) =           0.00000000 eV    
--------------------------------------------------------------------------------
  Total lattice energy       =       -2273.85849579 eV    
--------------------------------------------------------------------------------
  Total lattice energy       =         -219392.5857 kJ/mol
--------------------------------------------------------------------------------

  Final cartesian coordinates of atoms :

--------------------------------------------------------------------------------
   No.  Atomic        x           y          z          Radius
        Label       (Angs)      (Angs)     (Angs)       (Angs) 
--------------------------------------------------------------------------------
     1  Si1   c     0.000000    0.000000    0.000000    0.000000
     2  O1    c    -1.738441    0.004401    0.018604    0.000000
     3  O1    c     2.520986    0.003587    0.014448    0.000000
     4  O1    c    -0.008783    1.744256    0.018758    0.000000
     5  O1    c    -0.007810   -2.314405    0.016376    0.000000
     6  O1    c    -0.008587    0.004350    1.760304    0.000000
--------------------------------------------------------------------------------


  Final Cartesian derivatives :

--------------------------------------------------------------------------------
   No.  Atomic          x             y             z           Radius
        Label       (eV/Angs)     (eV/Angs)    (eV/Angs)      (eV/Angs)
--------------------------------------------------------------------------------
      1 Si1   c       0.000000      0.000000      0.000000      0.000000
      2 O1    c      -0.168510      1.113061      1.402991      0.000000
      3 O1    c       1.903013      0.043069      0.052401      0.000000
      4 O1    c      -1.315715      0.550222      1.370444      0.000000
      5 O1    c      -0.206020     -2.936024      0.205194      0.000000
      6 O1    c      -1.318832      1.102462      0.545711      0.000000
--------------------------------------------------------------------------------
  Maximum abs         1.903013      2.936024      1.402991      0.000000
--------------------------------------------------------------------------------


  Time to end of optimisation =       0.0046 seconds


  Peak dynamic memory used =       0.50 MB 


  Timing analysis for GULP :

--------------------------------------------------------------------------------
  Task / Subroutine                                          Time (Seconds)
--------------------------------------------------------------------------------
  Calculation of Bond Order energy and derivatives                0.0004
--------------------------------------------------------------------------------
  Total CPU time                                                  0.0046
--------------------------------------------------------------------------------


  Job Finished at 17:06.04 23rd September  2016                               

