********************************************************************************
*                       GENERAL UTILITY LATTICE PROGRAM                        *
*                                 Julian Gale                                  *
*                       Curtin Institute for Computation                       *
*                           Department of Chemistry                            *
*                    Curtin University, Western Australia                      *
********************************************************************************
* Version = 4.5.0 * Last modified =  20th September 2016                       *
********************************************************************************
*  conv         - constant volume calculation                                  *
*  genetic      - use genetic algorithm to search conformation space           *
*  predict      - use global minimiser                                         *
*  optimise     - will optimise best possible structures found w.r.t. energy   *
*  cost         - will use Pannetier type cost function in global minimisers   *
*  conjugate    - use conjugate gradients minimiser                            *
********************************************************************************
* This version of example24 has been changed by removing the C6                *
* term for the O-O interaction. This caused the energy to tend                 *
* to negative infinity for some configurations.                                *
********************************************************************************


  Job Started  at 16:07.26 23rd September  2016                               

  Number of CPUs =     1

  Host name      = M-A0010516-S                            


  Total number of configurations input =   2

********************************************************************************
*  Input for Configuration =   1 : rutile                                      *
********************************************************************************

  Formula = Ti2O4                                                       

  Number of irreducible atoms/shells =       6


  Total number atoms/shells =       6

  Dimensionality = 3               :  Bulk   



  Cartesian lattice vectors (Angstroms) :

        4.492300    0.000000    0.000000
        0.000000    4.492300    0.000000
        0.000000    0.000000    2.893000

  Cell parameters (Angstroms/Degrees):

  a =       4.4923    alpha =  90.0000
  b =       4.4923    beta  =  90.0000
  c =       2.8930    gamma =  90.0000

  Initial cell volume =          58.382937 Angs**3

  Temperature of configuration =  0.000     K 

  Pressure of configuration =         0.000 GPa 



********************************************************************************
*  Input for Configuration =   2 : anatase                                     *
********************************************************************************

  Formula = Ti4O8                                                       

  Number of irreducible atoms/shells =      12


  Total number atoms/shells =      12

  Dimensionality = 3               :  Bulk   



  Cartesian lattice vectors (Angstroms) :

        3.776000    0.000000    0.000000
        0.000000    3.776000    0.000000
        0.000000    0.000000    9.486000

  Cell parameters (Angstroms/Degrees):

  a =       3.7760    alpha =  90.0000
  b =       3.7760    beta  =  90.0000
  c =       9.4860    gamma =  90.0000

  Initial cell volume =         135.253058 Angs**3

  Temperature of configuration =  0.000     K 

  Pressure of configuration =         0.000 GPa 



********************************************************************************
*  General input information                                                   *
********************************************************************************

  Species output for all configurations : 

--------------------------------------------------------------------------------
  Species    Type    Atomic    Atomic    Charge       Radii (Angs)     Library
                     Number     Mass       (e)     Cova   Ionic  VDW   Symbol
--------------------------------------------------------------------------------
    Ti1      Core       22      47.88   4.000000   1.470  0.000  2.190          
    Ti2      Core       22      47.88   4.000000   1.470  0.000  2.190          
    O1       Core        8      16.00  -2.000000   0.730  0.000  1.360          
    O2       Core        8      16.00  -2.000000   0.730  0.000  1.360          
    O3       Core        8      16.00  -2.000000   0.730  0.000  1.360          
    O4       Core        8      16.00  -2.000000   0.730  0.000  1.360          
    Ti3      Core       22      47.88   4.000000   1.470  0.000  2.190          
    Ti4      Core       22      47.88   4.000000   1.470  0.000  2.190          
    O5       Core        8      16.00  -2.000000   0.730  0.000  1.360          
    O6       Core        8      16.00  -2.000000   0.730  0.000  1.360          
    O7       Core        8      16.00  -2.000000   0.730  0.000  1.360          
    O8       Core        8      16.00  -2.000000   0.730  0.000  1.360          
--------------------------------------------------------------------------------


  Lattice summation method               =    Ewald          (3-D)
                                         =    Parry          (2-D)
                                         =    Saunders et al (1-D)
  Accuracy factor for lattice sums       =   12.000


  Time limit = Infinity

  Maximum range for interatomic potentials =    100000.000000 Angstroms

  General interatomic potentials :

--------------------------------------------------------------------------------
Atom  Types   Potential      Parameter       Value         Units   Cutoffs(Ang)
  1     2                                                            Min /  Max 
--------------------------------------------------------------------------------
O    c Ti   c Buckingham    Buckingham A     754.20000    eV        0.000 10.000
                            Buckingham rho  0.38790000    Ang       
                            Buckingham C     0.0000000    eV*Ang^6  
--------------------------------------------------------------------------------
O    c O    c Buckingham    Buckingham A     22764.000    eV        0.000 10.000
                            Buckingham rho  0.14900000    Ang       
                            Buckingham C     0.0000000    eV*Ang^6  
--------------------------------------------------------------------------------

********************************************************************************
*  Output for configuration   1 : rutile                                       *
********************************************************************************


 Welcome to GULPs General Algorithm for Structure Prediction
              by Simulated Annealing or Genetics!


--------------------------------------------------------------------------------


  Maximum number of cycles     =           300
  Initial #configurations      =           100
  Maximum #configurations      =           100

  Will look for   2 best candidates once all cycles completed

  Difference between best candidates:  0.00000
  Tournament probability       =     0.9000000
  #successful old parents      =             2 (trying again)
  Implementing a one point crossover scheme
  Crossover probability        =     0.5000000
  Mutation probability         =    -1.0000000
  Random number seed           =            -1


 COST FUNCTION

  Will use the following weighted terms to assess the candidate structures

   Weight                 Term
   1.0000    Bond Valence Discrepancy
   0.1000    Cation 1st Coodination Number Discrepancy
   0.2000    Anion  1st Coodination Number Discrepancy
   1.0000    Coulombic Energy between Cations
   1.0000    Coulombic Energy between Anions


  Start of optimisation :

 The number of grid points across the unit cell in
 any one direction has now changed to           16
 Thus pmuta has also changed becoming    1.6666666666666666E-002
  Cycle:    1 Cost fn : Min        45.490000 Max       175.805186 CPU:    0.019
  Cycle:    2 Cost fn : Min        45.490000 Max       111.859905 CPU:    0.026
  Cycle:    3 Cost fn : Min        45.490000 Max       311.770552 CPU:    0.034
  Cycle:    4 Cost fn : Min        45.490000 Max       121.696206 CPU:    0.041
  Cycle:    5 Cost fn : Min        41.606838 Max       568.926143 CPU:    0.049
  Cycle:    6 Cost fn : Min        39.522863 Max        82.448461 CPU:    0.056
  Cycle:    7 Cost fn : Min        38.862953 Max       135.811671 CPU:    0.063
 The number of grid points across the unit cell in
 any one direction has now changed to           32
 Thus pmuta has also changed becoming    1.3333333333333334E-002
  Cycle:    8 Cost fn : Min        37.053700 Max      2900.415065 CPU:    0.071
  Cycle:    9 Cost fn : Min        37.053700 Max       231.303744 CPU:    0.078
  Cycle:   10 Cost fn : Min        31.704732 Max      7195.847668 CPU:    0.085
  Cycle:   11 Cost fn : Min        31.083620 Max      1413.006157 CPU:    0.093
  Cycle:   12 Cost fn : Min        29.976146 Max       134.409109 CPU:    0.100
  Cycle:   13 Cost fn : Min        29.976146 Max        92.961881 CPU:    0.108
  Cycle:   14 Cost fn : Min        29.976146 Max      6856.125057 CPU:    0.115
  Cycle:   15 Cost fn : Min        29.976146 Max      3088.656439 CPU:    0.123
 The number of grid points across the unit cell in
 any one direction has now changed to           64
 Thus pmuta has also changed becoming    1.1111111111111112E-002
  Cycle:   16 Cost fn : Min        29.976146 Max      1289.893371 CPU:    0.130
  Cycle:   17 Cost fn : Min        26.815241 Max       257.246333 CPU:    0.138
  Cycle:   18 Cost fn : Min        26.815241 Max       113.375648 CPU:    0.145
  Cycle:   19 Cost fn : Min        26.704405 Max       131.872170 CPU:    0.153
  Cycle:   20 Cost fn : Min        26.704405 Max       336.154534 CPU:    0.160
  Cycle:   21 Cost fn : Min        26.704405 Max      7074.130722 CPU:    0.168
  Cycle:   22 Cost fn : Min        26.687500 Max       229.041914 CPU:    0.175
  Cycle:   23 Cost fn : Min        23.984733 Max       379.183708 CPU:    0.183
 The number of grid points across the unit cell in
 any one direction has now changed to          128
 Thus pmuta has also changed becoming    9.5238095238095247E-003
  Cycle:   24 Cost fn : Min        23.984733 Max      1068.886494 CPU:    0.190
  Cycle:   25 Cost fn : Min        23.921998 Max      5676.365196 CPU:    0.198
  Cycle:   26 Cost fn : Min        23.921998 Max       364.986823 CPU:    0.205
  Cycle:   27 Cost fn : Min        23.921998 Max       214.690186 CPU:    0.213
  Cycle:   28 Cost fn : Min        23.921998 Max       363.158194 CPU:    0.220
  Cycle:   29 Cost fn : Min        23.806027 Max      2662.731772 CPU:    0.228
  Cycle:   30 Cost fn : Min        23.606892 Max       539.370496 CPU:    0.235
  Cycle:   31 Cost fn : Min        23.606892 Max       137.326633 CPU:    0.243
 The number of grid points across the unit cell in
 any one direction has now changed to          256
 Thus pmuta has also changed becoming    8.3333333333333332E-003
  Cycle:   32 Cost fn : Min        23.606892 Max      5458.842364 CPU:    0.250
  Cycle:   33 Cost fn : Min        23.587361 Max      1235.645399 CPU:    0.258
  Cycle:   34 Cost fn : Min        23.587361 Max       503.788361 CPU:    0.266
  Cycle:   35 Cost fn : Min        23.587361 Max       884.506750 CPU:    0.273
  Cycle:   36 Cost fn : Min        23.528548 Max      1045.000236 CPU:    0.281
  Cycle:   37 Cost fn : Min        23.410923 Max      1214.354323 CPU:    0.288
  Cycle:   38 Cost fn : Min        23.366371 Max        97.118647 CPU:    0.296
  Cycle:   39 Cost fn : Min        23.366371 Max       140.400101 CPU:    0.304
  Cycle:   40 Cost fn : Min        23.309186 Max       273.751645 CPU:    0.311
  Cycle:   41 Cost fn : Min        23.221625 Max       272.748593 CPU:    0.319
  Cycle:   42 Cost fn : Min        23.221625 Max       501.249304 CPU:    0.326
  Cycle:   43 Cost fn : Min        23.221625 Max       135.503793 CPU:    0.334
  Cycle:   44 Cost fn : Min        23.221625 Max      5578.227745 CPU:    0.342
  Cycle:   45 Cost fn : Min        23.221625 Max       377.582235 CPU:    0.351
  Cycle:   46 Cost fn : Min        23.221625 Max       137.966722 CPU:    0.358
  Cycle:   47 Cost fn : Min        23.221625 Max       107.279691 CPU:    0.366
  Cycle:   48 Cost fn : Min        23.221625 Max       106.646460 CPU:    0.374
  Cycle:   49 Cost fn : Min        23.221625 Max      6131.791925 CPU:    0.381
  Cycle:   50 Cost fn : Min        23.221625 Max       328.447949 CPU:    0.389
  Cycle:   51 Cost fn : Min        23.142979 Max      1185.860870 CPU:    0.396
  Cycle:   52 Cost fn : Min        23.142979 Max       125.975985 CPU:    0.404
  Cycle:   53 Cost fn : Min        23.142979 Max     11944.081604 CPU:    0.411
  Cycle:   54 Cost fn : Min        23.142979 Max        65.616932 CPU:    0.419
  Cycle:   55 Cost fn : Min        23.142979 Max       190.085222 CPU:    0.427
  Cycle:   56 Cost fn : Min        23.142979 Max      1775.926867 CPU:    0.434
  Cycle:   57 Cost fn : Min        23.142979 Max       225.109172 CPU:    0.442
  Cycle:   58 Cost fn : Min        23.089672 Max        73.613330 CPU:    0.449
  Cycle:   59 Cost fn : Min        23.089672 Max       135.103407 CPU:    0.457
  Cycle:   60 Cost fn : Min        23.089672 Max      3366.253865 CPU:    0.464
  Cycle:   61 Cost fn : Min        23.089672 Max       130.836973 CPU:    0.472
  Cycle:   62 Cost fn : Min        23.038401 Max       644.765517 CPU:    0.480
  Cycle:   63 Cost fn : Min        22.995543 Max      1369.200809 CPU:    0.487
  Cycle:   64 Cost fn : Min        22.995543 Max      2382.568174 CPU:    0.495
  Cycle:   65 Cost fn : Min        22.995543 Max       119.112725 CPU:    0.502
  Cycle:   66 Cost fn : Min        22.995543 Max       590.738085 CPU:    0.510
  Cycle:   67 Cost fn : Min        22.970886 Max       352.961003 CPU:    0.517
  Cycle:   68 Cost fn : Min        22.970886 Max      4829.438898 CPU:    0.525
  Cycle:   69 Cost fn : Min        22.661127 Max        97.529330 CPU:    0.533
  Cycle:   70 Cost fn : Min        22.661127 Max       488.428440 CPU:    0.540
  Cycle:   71 Cost fn : Min        22.661127 Max      1093.172829 CPU:    0.548
  Cycle:   72 Cost fn : Min        22.586693 Max      1409.249475 CPU:    0.556
  Cycle:   73 Cost fn : Min        22.586693 Max       272.263120 CPU:    0.563
  Cycle:   74 Cost fn : Min        22.292607 Max      4323.564453 CPU:    0.571
  Cycle:   75 Cost fn : Min        22.292607 Max      8292.010817 CPU:    0.578
  Cycle:   76 Cost fn : Min        22.292607 Max       122.064233 CPU:    0.586
  Cycle:   77 Cost fn : Min        22.292607 Max       836.326238 CPU:    0.594
  Cycle:   78 Cost fn : Min        22.292607 Max       272.449424 CPU:    0.601
  Cycle:   79 Cost fn : Min        22.274186 Max       101.042464 CPU:    0.609
  Cycle:   80 Cost fn : Min        22.274186 Max       101.682073 CPU:    0.616
  Cycle:   81 Cost fn : Min        22.261131 Max      5406.181383 CPU:    0.624
  Cycle:   82 Cost fn : Min        22.261131 Max      6754.657415 CPU:    0.631
  Cycle:   83 Cost fn : Min        21.894413 Max       164.975465 CPU:    0.639
  Cycle:   84 Cost fn : Min        21.894413 Max       103.605080 CPU:    0.647
  Cycle:   85 Cost fn : Min        21.894413 Max       111.088536 CPU:    0.654
  Cycle:   86 Cost fn : Min        21.894413 Max      2387.308847 CPU:    0.662
  Cycle:   87 Cost fn : Min        21.894413 Max       183.378012 CPU:    0.669
  Cycle:   88 Cost fn : Min        21.894413 Max       131.339290 CPU:    0.677
  Cycle:   89 Cost fn : Min        21.791350 Max        88.392186 CPU:    0.685
  Cycle:   90 Cost fn : Min        21.791350 Max       152.052769 CPU:    0.692
  Cycle:   91 Cost fn : Min        21.791350 Max       292.672946 CPU:    0.700
  Cycle:   92 Cost fn : Min        21.791350 Max      1985.146218 CPU:    0.707
  Cycle:   93 Cost fn : Min        21.693219 Max       348.358192 CPU:    0.715
  Cycle:   94 Cost fn : Min        21.693219 Max       180.323888 CPU:    0.723
  Cycle:   95 Cost fn : Min        21.693219 Max        91.470422 CPU:    0.730
  Cycle:   96 Cost fn : Min        21.682143 Max       182.424988 CPU:    0.738
  Cycle:   97 Cost fn : Min        21.682143 Max        86.533864 CPU:    0.745
  Cycle:   98 Cost fn : Min        21.682143 Max       626.587158 CPU:    0.753
  Cycle:   99 Cost fn : Min        21.624735 Max        84.925069 CPU:    0.760
  Cycle:  100 Cost fn : Min        21.624735 Max       104.474034 CPU:    0.768
  Cycle:  101 Cost fn : Min        21.624735 Max       450.905098 CPU:    0.776
  Cycle:  102 Cost fn : Min        21.624735 Max      3775.435296 CPU:    0.783
  Cycle:  103 Cost fn : Min        21.624735 Max      1545.947999 CPU:    0.791
  Cycle:  104 Cost fn : Min        21.624735 Max       180.296611 CPU:    0.798
  Cycle:  105 Cost fn : Min        21.624735 Max        87.640317 CPU:    0.806
  Cycle:  106 Cost fn : Min        21.624735 Max        73.376457 CPU:    0.814
  Cycle:  107 Cost fn : Min        21.574926 Max       187.335144 CPU:    0.821
  Cycle:  108 Cost fn : Min        21.574926 Max        86.915875 CPU:    0.829
  Cycle:  109 Cost fn : Min        21.574926 Max        82.823412 CPU:    0.836
  Cycle:  110 Cost fn : Min        21.574926 Max      3368.636953 CPU:    0.844
  Cycle:  111 Cost fn : Min        21.574926 Max      3306.480905 CPU:    0.851
  Cycle:  112 Cost fn : Min        21.574926 Max       163.868666 CPU:    0.859
  Cycle:  113 Cost fn : Min        21.574926 Max      3373.354129 CPU:    0.867
  Cycle:  114 Cost fn : Min        21.574926 Max      7803.405531 CPU:    0.874
  Cycle:  115 Cost fn : Min        21.574926 Max        64.270306 CPU:    0.882
  Cycle:  116 Cost fn : Min        21.477712 Max       410.844887 CPU:    0.889
  Cycle:  117 Cost fn : Min        21.477712 Max        67.915605 CPU:    0.897
  Cycle:  118 Cost fn : Min        21.477712 Max       365.983940 CPU:    0.904
  Cycle:  119 Cost fn : Min        21.477712 Max      1829.715455 CPU:    0.912
  Cycle:  120 Cost fn : Min        21.477712 Max       153.419128 CPU:    0.920
  Cycle:  121 Cost fn : Min        21.477712 Max        96.744079 CPU:    0.927
  Cycle:  122 Cost fn : Min        21.477712 Max        76.997497 CPU:    0.935
  Cycle:  123 Cost fn : Min        21.471647 Max       140.423080 CPU:    0.942
  Cycle:  124 Cost fn : Min        21.469232 Max       865.951582 CPU:    0.950
  Cycle:  125 Cost fn : Min        21.469232 Max       660.802174 CPU:    0.957
  Cycle:  126 Cost fn : Min        21.469232 Max      5894.698146 CPU:    0.965
  Cycle:  127 Cost fn : Min        21.466013 Max      1215.364924 CPU:    0.973
  Cycle:  128 Cost fn : Min        21.466013 Max      1184.798113 CPU:    0.980
  Cycle:  129 Cost fn : Min        21.466013 Max       785.093931 CPU:    0.988
  Cycle:  130 Cost fn : Min        21.466013 Max       755.802133 CPU:    0.995
  Cycle:  131 Cost fn : Min        21.466013 Max       179.796050 CPU:    1.003
  Cycle:  132 Cost fn : Min        21.454267 Max       302.374094 CPU:    1.010
  Cycle:  133 Cost fn : Min        21.454267 Max       345.779610 CPU:    1.018
  Cycle:  134 Cost fn : Min        21.454267 Max       146.992474 CPU:    1.026
  Cycle:  135 Cost fn : Min        21.454267 Max       417.105162 CPU:    1.033
  Cycle:  136 Cost fn : Min        21.454267 Max      2033.500240 CPU:    1.041
  Cycle:  137 Cost fn : Min        21.454267 Max      9169.632558 CPU:    1.048
  Cycle:  138 Cost fn : Min        21.454267 Max       111.871829 CPU:    1.056
  Cycle:  139 Cost fn : Min        21.451083 Max      6153.478116 CPU:    1.063
  Cycle:  140 Cost fn : Min        21.451083 Max      1384.450123 CPU:    1.071
  Cycle:  141 Cost fn : Min        21.448163 Max       419.182316 CPU:    1.079
  Cycle:  142 Cost fn : Min        21.448163 Max       431.861364 CPU:    1.086
  Cycle:  143 Cost fn : Min        21.448163 Max       222.566395 CPU:    1.094
  Cycle:  144 Cost fn : Min        21.448163 Max       169.304734 CPU:    1.101
  Cycle:  145 Cost fn : Min        21.448163 Max      6454.063329 CPU:    1.109
  Cycle:  146 Cost fn : Min        21.448163 Max       114.694914 CPU:    1.116
  Cycle:  147 Cost fn : Min        21.421249 Max       360.005788 CPU:    1.124
  Cycle:  148 Cost fn : Min        21.421249 Max       137.039553 CPU:    1.132
  Cycle:  149 Cost fn : Min        21.399321 Max        63.253824 CPU:    1.139
  Cycle:  150 Cost fn : Min        21.399321 Max       271.717010 CPU:    1.147
  Cycle:  151 Cost fn : Min        21.399321 Max       475.195076 CPU:    1.154
  Cycle:  152 Cost fn : Min        21.399321 Max       104.606363 CPU:    1.162
  Cycle:  153 Cost fn : Min        21.399321 Max      4536.291597 CPU:    1.170
  Cycle:  154 Cost fn : Min        21.397912 Max       166.642481 CPU:    1.177
  Cycle:  155 Cost fn : Min        21.397912 Max       148.952600 CPU:    1.185
  Cycle:  156 Cost fn : Min        21.397912 Max      1068.518974 CPU:    1.192
  Cycle:  157 Cost fn : Min        21.397912 Max      3945.345558 CPU:    1.200
  Cycle:  158 Cost fn : Min        21.397912 Max       631.639473 CPU:    1.208
  Cycle:  159 Cost fn : Min        21.397912 Max      1973.220605 CPU:    1.215
  Cycle:  160 Cost fn : Min        21.397912 Max       112.013890 CPU:    1.223
  Cycle:  161 Cost fn : Min        21.397912 Max       226.420049 CPU:    1.230
  Cycle:  162 Cost fn : Min        21.397912 Max       228.031483 CPU:    1.238
  Cycle:  163 Cost fn : Min        21.397912 Max      2949.238933 CPU:    1.246
  Cycle:  164 Cost fn : Min        21.397912 Max        84.769123 CPU:    1.253
  Cycle:  165 Cost fn : Min        21.397912 Max       235.955413 CPU:    1.261
  Cycle:  166 Cost fn : Min        21.397912 Max       481.208010 CPU:    1.269
  Cycle:  167 Cost fn : Min        21.397912 Max      1407.455408 CPU:    1.276
  Cycle:  168 Cost fn : Min        21.397912 Max       198.857203 CPU:    1.284
  Cycle:  169 Cost fn : Min        21.397912 Max        97.042623 CPU:    1.291
  Cycle:  170 Cost fn : Min        21.397912 Max       148.637698 CPU:    1.299
  Cycle:  171 Cost fn : Min        21.397912 Max      9748.679482 CPU:    1.307
  Cycle:  172 Cost fn : Min        21.397912 Max       214.122606 CPU:    1.314
  Cycle:  173 Cost fn : Min        21.397912 Max        95.948520 CPU:    1.322
  Cycle:  174 Cost fn : Min        21.383720 Max      2776.076447 CPU:    1.329
  Cycle:  175 Cost fn : Min        21.383720 Max      7488.572435 CPU:    1.337
  Cycle:  176 Cost fn : Min        21.383720 Max      3556.300734 CPU:    1.345
  Cycle:  177 Cost fn : Min        21.383720 Max       549.638048 CPU:    1.352
  Cycle:  178 Cost fn : Min        21.383720 Max        77.990802 CPU:    1.360
  Cycle:  179 Cost fn : Min        21.383720 Max        90.702184 CPU:    1.368
  Cycle:  180 Cost fn : Min        21.383720 Max      2097.380396 CPU:    1.375
  Cycle:  181 Cost fn : Min        21.383720 Max       203.181926 CPU:    1.383
  Cycle:  182 Cost fn : Min        21.383720 Max       192.729364 CPU:    1.390
  Cycle:  183 Cost fn : Min        21.383720 Max      3369.477315 CPU:    1.398
  Cycle:  184 Cost fn : Min        21.383720 Max       521.241720 CPU:    1.405
  Cycle:  185 Cost fn : Min        21.383720 Max       159.964021 CPU:    1.413
  Cycle:  186 Cost fn : Min        21.383720 Max       170.167131 CPU:    1.421
  Cycle:  187 Cost fn : Min        21.383720 Max      2926.253229 CPU:    1.428
  Cycle:  188 Cost fn : Min        21.383720 Max        96.814528 CPU:    1.436
  Cycle:  189 Cost fn : Min        21.383720 Max       312.180167 CPU:    1.443
  Cycle:  190 Cost fn : Min        21.383720 Max      3332.614900 CPU:    1.451
  Cycle:  191 Cost fn : Min        21.383720 Max      1062.527825 CPU:    1.459
  Cycle:  192 Cost fn : Min        21.383720 Max        95.849024 CPU:    1.466
  Cycle:  193 Cost fn : Min        21.383720 Max       844.419017 CPU:    1.474
  Cycle:  194 Cost fn : Min        21.383720 Max       501.145985 CPU:    1.481
  Cycle:  195 Cost fn : Min        21.383720 Max       860.859973 CPU:    1.489
  Cycle:  196 Cost fn : Min        21.383720 Max       377.854027 CPU:    1.496
  Cycle:  197 Cost fn : Min        21.383720 Max       219.997755 CPU:    1.504
  Cycle:  198 Cost fn : Min        21.383720 Max      1589.635614 CPU:    1.512
  Cycle:  199 Cost fn : Min        21.383720 Max      3518.810487 CPU:    1.519
  Cycle:  200 Cost fn : Min        21.383720 Max        68.929602 CPU:    1.527
  Cycle:  201 Cost fn : Min        21.383720 Max       150.866585 CPU:    1.534
  Cycle:  202 Cost fn : Min        21.383720 Max      1228.532521 CPU:    1.542
  Cycle:  203 Cost fn : Min        21.383720 Max        68.947141 CPU:    1.550
  Cycle:  204 Cost fn : Min        21.383720 Max        92.527891 CPU:    1.557
  Cycle:  205 Cost fn : Min        21.383720 Max      2144.397240 CPU:    1.565
  Cycle:  206 Cost fn : Min        21.383720 Max       133.150408 CPU:    1.572
  Cycle:  207 Cost fn : Min        21.383720 Max       212.898223 CPU:    1.580
  Cycle:  208 Cost fn : Min        21.383720 Max      2724.451778 CPU:    1.588
  Cycle:  209 Cost fn : Min        21.383720 Max       129.930637 CPU:    1.598
  Cycle:  210 Cost fn : Min        21.383720 Max       171.807120 CPU:    1.606
  Cycle:  211 Cost fn : Min        21.383720 Max       112.399176 CPU:    1.614
  Cycle:  212 Cost fn : Min        21.383720 Max       210.773158 CPU:    1.621
  Cycle:  213 Cost fn : Min        21.383720 Max      2145.837345 CPU:    1.629
  Cycle:  214 Cost fn : Min        21.383720 Max      1956.555975 CPU:    1.636
  Cycle:  215 Cost fn : Min        21.383720 Max      1103.134901 CPU:    1.644
  Cycle:  216 Cost fn : Min        21.383720 Max      1027.857865 CPU:    1.651
  Cycle:  217 Cost fn : Min        21.383720 Max      6209.757584 CPU:    1.659
  Cycle:  218 Cost fn : Min        21.383720 Max      1177.034458 CPU:    1.667
  Cycle:  219 Cost fn : Min        21.383720 Max       688.661544 CPU:    1.674
  Cycle:  220 Cost fn : Min        21.381291 Max       990.479666 CPU:    1.682
  Cycle:  221 Cost fn : Min        21.381291 Max      2914.226147 CPU:    1.689
  Cycle:  222 Cost fn : Min        21.381291 Max       123.797322 CPU:    1.697
  Cycle:  223 Cost fn : Min        21.381291 Max      5357.718456 CPU:    1.704
  Cycle:  224 Cost fn : Min        21.381291 Max       145.845955 CPU:    1.712
  Cycle:  225 Cost fn : Min        21.381291 Max        84.158536 CPU:    1.719
  Cycle:  226 Cost fn : Min        21.381291 Max      4599.060761 CPU:    1.727
  Cycle:  227 Cost fn : Min        21.381291 Max        99.437283 CPU:    1.735
  Cycle:  228 Cost fn : Min        21.381291 Max       743.424037 CPU:    1.742
  Cycle:  229 Cost fn : Min        21.381291 Max      1396.410130 CPU:    1.750
  Cycle:  230 Cost fn : Min        21.381291 Max        83.050355 CPU:    1.757
  Cycle:  231 Cost fn : Min        21.381291 Max      2323.234053 CPU:    1.765
  Cycle:  232 Cost fn : Min        21.381291 Max      4262.115546 CPU:    1.772
  Cycle:  233 Cost fn : Min        21.381291 Max       481.689986 CPU:    1.780
  Cycle:  234 Cost fn : Min        21.381291 Max       100.571525 CPU:    1.788
  Cycle:  235 Cost fn : Min        21.381291 Max       144.255324 CPU:    1.795
  Cycle:  236 Cost fn : Min        21.381291 Max        68.318899 CPU:    1.803
  Cycle:  237 Cost fn : Min        21.381291 Max       306.442025 CPU:    1.810
  Cycle:  238 Cost fn : Min        21.381291 Max       265.458603 CPU:    1.818
  Cycle:  239 Cost fn : Min        21.381291 Max      3142.759800 CPU:    1.825
  Cycle:  240 Cost fn : Min        21.381291 Max      2577.244797 CPU:    1.833
  Cycle:  241 Cost fn : Min        21.381291 Max        67.651738 CPU:    1.840
  Cycle:  242 Cost fn : Min        21.381291 Max       250.555532 CPU:    1.848
  Cycle:  243 Cost fn : Min        21.381291 Max        79.833682 CPU:    1.856
  Cycle:  244 Cost fn : Min        21.381291 Max      5803.939767 CPU:    1.863
  Cycle:  245 Cost fn : Min        21.381291 Max       122.192619 CPU:    1.871
  Cycle:  246 Cost fn : Min        21.381291 Max        98.146492 CPU:    1.878
  Cycle:  247 Cost fn : Min        21.381291 Max       169.448515 CPU:    1.886
  Cycle:  248 Cost fn : Min        21.381291 Max       116.012063 CPU:    1.893
  Cycle:  249 Cost fn : Min        21.381291 Max       711.054613 CPU:    1.901
  Cycle:  250 Cost fn : Min        21.381291 Max       116.195878 CPU:    1.908
  Cycle:  251 Cost fn : Min        21.381291 Max        69.250554 CPU:    1.916
  Cycle:  252 Cost fn : Min        21.381291 Max        79.873415 CPU:    1.924
  Cycle:  253 Cost fn : Min        21.381291 Max       184.402533 CPU:    1.931
  Cycle:  254 Cost fn : Min        21.381291 Max       180.595791 CPU:    1.939
  Cycle:  255 Cost fn : Min        21.381291 Max      3711.657576 CPU:    1.946
  Cycle:  256 Cost fn : Min        21.381291 Max       106.803815 CPU:    1.954
  Cycle:  257 Cost fn : Min        21.381291 Max        98.086045 CPU:    1.961
  Cycle:  258 Cost fn : Min        21.381291 Max        71.172824 CPU:    1.969
  Cycle:  259 Cost fn : Min        21.381291 Max       760.484568 CPU:    1.976
  Cycle:  260 Cost fn : Min        21.381291 Max     11379.238013 CPU:    1.984
  Cycle:  261 Cost fn : Min        21.381291 Max       826.957081 CPU:    1.992
  Cycle:  262 Cost fn : Min        21.381291 Max       274.158617 CPU:    2.000
  Cycle:  263 Cost fn : Min        21.381291 Max       265.510323 CPU:    2.007
  Cycle:  264 Cost fn : Min        21.381291 Max       481.399115 CPU:    2.015
  Cycle:  265 Cost fn : Min        21.381291 Max        99.166015 CPU:    2.022
  Cycle:  266 Cost fn : Min        21.381291 Max      1137.098946 CPU:    2.030
  Cycle:  267 Cost fn : Min        21.381291 Max       140.160697 CPU:    2.037
  Cycle:  268 Cost fn : Min        21.381291 Max      2795.000440 CPU:    2.045
  ************  STUCK  *******************************************************
  ************  CHANGING GRID SIZE *******************************************
  Cycle:  269 Cost fn : Min        21.381291 Max       379.657124 CPU:    2.053
  Cycle:  270 Cost fn : Min        21.381291 Max       200.075055 CPU:    2.060
  Cycle:  271 Cost fn : Min        21.381291 Max     16913.396313 CPU:    2.068
 The number of grid points across the unit cell in
 any one direction has now changed to           32
 Thus pmuta has also changed becoming    1.3333333333333334E-002
  Cycle:  272 Cost fn : Min        21.381291 Max      2077.895254 CPU:    2.076
  Cycle:  273 Cost fn : Min        21.381291 Max      3626.663288 CPU:    2.083
  Cycle:  274 Cost fn : Min        21.381291 Max       120.354906 CPU:    2.091
  Cycle:  275 Cost fn : Min        21.381291 Max       407.148724 CPU:    2.098
  Cycle:  276 Cost fn : Min        21.381291 Max        74.662190 CPU:    2.106
  Cycle:  277 Cost fn : Min        21.381291 Max     31848.372972 CPU:    2.113
  Cycle:  278 Cost fn : Min        21.369219 Max        97.173908 CPU:    2.121
  Cycle:  279 Cost fn : Min        21.369219 Max       947.684962 CPU:    2.128
 The number of grid points across the unit cell in
 any one direction has now changed to           64
 Thus pmuta has also changed becoming    1.1111111111111112E-002
  Cycle:  280 Cost fn : Min        21.369219 Max       105.804763 CPU:    2.136
  Cycle:  281 Cost fn : Min        21.369219 Max       126.899245 CPU:    2.143
  Cycle:  282 Cost fn : Min        21.369219 Max       392.421724 CPU:    2.151
  Cycle:  283 Cost fn : Min        21.369219 Max       187.996221 CPU:    2.158
  Cycle:  284 Cost fn : Min        21.369219 Max       175.748516 CPU:    2.166
  Cycle:  285 Cost fn : Min        21.369219 Max       146.102474 CPU:    2.173
  Cycle:  286 Cost fn : Min        21.359165 Max       561.343788 CPU:    2.181
  Cycle:  287 Cost fn : Min        21.359165 Max      3491.332833 CPU:    2.188
 The number of grid points across the unit cell in
 any one direction has now changed to          128
 Thus pmuta has also changed becoming    9.5238095238095247E-003
  Cycle:  288 Cost fn : Min        21.359165 Max      2998.750910 CPU:    2.196
  Cycle:  289 Cost fn : Min        21.359165 Max      3776.049279 CPU:    2.203
  Cycle:  290 Cost fn : Min        21.359165 Max       617.909201 CPU:    2.211
  Cycle:  291 Cost fn : Min        21.359165 Max       119.586311 CPU:    2.219
  Cycle:  292 Cost fn : Min        21.311293 Max      1390.158025 CPU:    2.226
  Cycle:  293 Cost fn : Min        21.311293 Max       199.512016 CPU:    2.234
  Cycle:  294 Cost fn : Min        21.311293 Max       949.104329 CPU:    2.241
  Cycle:  295 Cost fn : Min        21.311293 Max       225.183829 CPU:    2.249
 The number of grid points across the unit cell in
 any one direction has now changed to          256
 Thus pmuta has also changed becoming    8.3333333333333332E-003
  Cycle:  296 Cost fn : Min        21.311293 Max       102.186631 CPU:    2.256
  Cycle:  297 Cost fn : Min        21.311293 Max      1287.282441 CPU:    2.264
  Cycle:  298 Cost fn : Min        21.311293 Max      2745.062542 CPU:    2.271
  Cycle:  299 Cost fn : Min        21.311293 Max       633.292248 CPU:    2.279
  Cycle:  300 Cost fn : Min        21.311293 Max      1297.636807 CPU:    2.287


  Best configurations from genetic algorithm optimisation :

--------------------------------------------------------------------------------
                                1            2
--------------------------------------------------------------------------------
  Sum of squares =            21.31129     21.31129
--------------------------------------------------------------------------------
  1  Fractional    2 x        0.50000      0.50000
  2  Fractional    2 y        0.50000      0.50000
  3  Fractional    2 z        0.49609      0.49609
  4  Fractional    3 x        0.53516      0.53516
  5  Fractional    3 y        0.84766      0.84766
  6  Fractional    3 z        0.34375      0.34375
  7  Fractional    4 x        0.93750      0.93750
  8  Fractional    4 y        0.33984      0.33984
  9  Fractional    4 z        0.07422      0.07422
 10  Fractional    5 x        0.17188      0.17188
 11  Fractional    5 y        0.74609      0.74609
 12  Fractional    5 z        0.37500      0.37500
 13  Fractional    6 x        0.59375      0.59375
 14  Fractional    6 y        0.25000      0.25000
 15  Fractional    6 z        0.96875      0.96875
--------------------------------------------------------------------------------




  Time for Global Optimiser  =        2.2852   seconds

++++++++++++++++++++++++++++++++++++++++++++++++++++++++++++++++++++++++++++++++
################################################################################
                     0  structures optimised out of            2
################################################################################
++++++++++++++++++++++++++++++++++++++++++++++++++++++++++++++++++++++++++++++++

  Components of energy : 

--------------------------------------------------------------------------------
  Interatomic potentials     =        8060.71729971 eV    
  Monopole - monopole (real) =         384.94480200 eV    
  Monopole - monopole (recip)=        -170.64595353 eV    
  Monopole - monopole (total)=         214.29884847 eV    
--------------------------------------------------------------------------------
  Total lattice energy       =        8275.01614818 eV    
--------------------------------------------------------------------------------
  Total lattice energy       =          798412.5631 kJ/(mole unit cells)
--------------------------------------------------------------------------------


  Number of variables =       15

  Maximum number of calculations  =          1000
  Maximum Hessian update interval =            10
  Maximum step size               =   1.000000000
  Maximum parameter tolerance     =   0.000010000
  Maximum function  tolerance     =   0.000010000
  Maximum gradient  tolerance     =   0.001000000
  Maximum gradient  component     =   0.010000000

  Symmetry not applied to optimisation

  Conjugate gradient optimiser to be used

  Start of bulk optimisation :

  Cycle:      0 Energy:      8275.016148  Gnorm:  12319.399116  CPU:    2.286
  Cycle:      1 Energy:      3893.499772  Gnorm:   6031.497930  CPU:    2.288
  Cycle:      2 Energy:      2295.032964  Gnorm:   2936.532614  CPU:    2.289
  Cycle:      3 Energy:      1475.423046  Gnorm:   1878.555855  CPU:    2.290
  Cycle:      4 Energy:      1011.286117  Gnorm:   1262.280577  CPU:    2.292
  Cycle:      5 Energy:       654.451185  Gnorm:    841.491151  CPU:    2.293
  Cycle:      6 Energy:       433.786716  Gnorm:    567.715813  CPU:    2.295
  Cycle:      7 Energy:       241.009331  Gnorm:    370.734238  CPU:    2.296
  Cycle:      8 Energy:        74.622505  Gnorm:    215.828825  CPU:    2.298
  Cycle:      9 Energy:      -162.187328  Gnorm:     17.087151  CPU:    2.300
  Cycle:     10 Energy:      -172.116152  Gnorm:     12.310442  CPU:    2.301
  Cycle:     11 Energy:      -181.229959  Gnorm:      9.063246  CPU:    2.302
  Cycle:     12 Energy:      -186.597558  Gnorm:      5.848900  CPU:    2.304
  Cycle:     13 Energy:      -189.261510  Gnorm:      3.402373  CPU:    2.305
  Cycle:     14 Energy:      -191.084251  Gnorm:      5.273248  CPU:    2.306
  Cycle:     15 Energy:      -195.129219  Gnorm:      1.427950  CPU:    2.307
  Cycle:     16 Energy:      -195.302921  Gnorm:      0.978171  CPU:    2.308
  Cycle:     17 Energy:      -195.481662  Gnorm:      0.868580  CPU:    2.309
  Cycle:     18 Energy:      -195.621652  Gnorm:      1.204526  CPU:    2.310
  Cycle:     19 Energy:      -195.952339  Gnorm:      1.955919  CPU:    2.311
  Cycle:     20 Energy:      -196.310699  Gnorm:      1.489700  CPU:    2.312
  Cycle:     21 Energy:      -197.080904  Gnorm:      3.125394  CPU:    2.313
  Cycle:     22 Energy:      -198.053795  Gnorm:      2.473694  CPU:    2.314
  Cycle:     23 Energy:      -201.066399  Gnorm:      4.643274  CPU:    2.316
  Cycle:     24 Energy:      -202.603308  Gnorm:      3.577692  CPU:    2.317
  Cycle:     25 Energy:      -204.124399  Gnorm:      2.163911  CPU:    2.317
  Cycle:     26 Energy:      -205.153518  Gnorm:      1.425750  CPU:    2.319
  Cycle:     27 Energy:      -205.398734  Gnorm:      0.818986  CPU:    2.319
  Cycle:     28 Energy:      -205.597042  Gnorm:      0.918341  CPU:    2.321
  Cycle:     29 Energy:      -205.814686  Gnorm:      0.770907  CPU:    2.322
  Cycle:     30 Energy:      -205.903931  Gnorm:      0.602668  CPU:    2.323
  Cycle:     31 Energy:      -205.991502  Gnorm:      0.623062  CPU:    2.324
  Cycle:     32 Energy:      -206.271694  Gnorm:      0.804006  CPU:    2.325
  Cycle:     33 Energy:      -206.799618  Gnorm:      1.312850  CPU:    2.326
  Cycle:     34 Energy:      -207.546110  Gnorm:      1.216274  CPU:    2.327
  Cycle:     35 Energy:      -207.829937  Gnorm:      1.049016  CPU:    2.328
  Cycle:     36 Energy:      -208.038338  Gnorm:      0.581099  CPU:    2.329
  Cycle:     37 Energy:      -208.087643  Gnorm:      0.410901  CPU:    2.330
  Cycle:     38 Energy:      -208.141577  Gnorm:      0.257539  CPU:    2.331
  Cycle:     39 Energy:      -208.154707  Gnorm:      0.200206  CPU:    2.332
  Cycle:     40 Energy:      -208.159359  Gnorm:      0.115097  CPU:    2.333
  Cycle:     41 Energy:      -208.163969  Gnorm:      0.126441  CPU:    2.334
  Cycle:     42 Energy:      -208.166821  Gnorm:      0.090291  CPU:    2.335
  Cycle:     43 Energy:      -208.169677  Gnorm:      0.051042  CPU:    2.336
  Cycle:     44 Energy:      -208.170231  Gnorm:      0.038393  CPU:    2.337
  Cycle:     45 Energy:      -208.170447  Gnorm:      0.009615  CPU:    2.338
  Cycle:     46 Energy:      -208.170468  Gnorm:      0.006848  CPU:    2.339
  Cycle:     47 Energy:      -208.170480  Gnorm:      0.006004  CPU:    2.340
  Cycle:     48 Energy:      -208.170493  Gnorm:      0.004022  CPU:    2.341
  Cycle:     49 Energy:      -208.170497  Gnorm:      0.003273  CPU:    2.342
  Cycle:     50 Energy:      -208.170499  Gnorm:      0.003459  CPU:    2.342
  Cycle:     51 Energy:      -208.170503  Gnorm:      0.002564  CPU:    2.343
  Cycle:     52 Energy:      -208.170504  Gnorm:      0.001790  CPU:    2.344
  Cycle:     53 Energy:      -208.170505  Gnorm:      0.001469  CPU:    2.345
  Cycle:     54 Energy:      -208.170506  Gnorm:      0.001387  CPU:    2.346
  Cycle:     55 Energy:      -208.170507  Gnorm:      0.001280  CPU:    2.347
  Cycle:     56 Energy:      -208.170507  Gnorm:      0.001236  CPU:    2.348
  Cycle:     57 Energy:      -208.170508  Gnorm:      0.001060  CPU:    2.349


  **** Optimisation achieved ****


  Final energy =    -208.17050843 eV
  Final Gnorm  =       0.00071655

  Components of energy : 

--------------------------------------------------------------------------------
  Interatomic potentials     =          84.66120278 eV    
  Monopole - monopole (real) =         -89.27070985 eV    
  Monopole - monopole (recip)=        -203.56100135 eV    
  Monopole - monopole (total)=        -292.83171121 eV    
--------------------------------------------------------------------------------
  Total lattice energy       =        -208.17050843 eV    
--------------------------------------------------------------------------------
  Total lattice energy       =          -20085.2719 kJ/(mole unit cells)
--------------------------------------------------------------------------------

  Final fractional coordinates of atoms :

--------------------------------------------------------------------------------
   No.  Atomic        x           y          z          Radius
        Label       (Frac)      (Frac)     (Frac)       (Angs) 
--------------------------------------------------------------------------------
     1  Ti1   c     0.000000    0.000000    0.000000    0.000000
     2  Ti2   c     0.499992    0.499992    0.500058    0.000000
     3  O1    c     0.643984    0.643984    0.000055    0.000000
     4  O2    c     0.355982    0.355982    0.000055    0.000000
     5  O3    c     0.143992    0.143992    0.500031    0.000000
     6  O4    c     0.855990    0.855990    0.500031    0.000000
--------------------------------------------------------------------------------

  Final internal derivatives :

--------------------------------------------------------------------------------
   No.  Atomic          a             b             c           Radius
        Label          (eV)          (eV)          (eV)        (eV/Angs)
--------------------------------------------------------------------------------
      1 Ti1   c       0.000000      0.000000      0.000000      0.000000
      2 Ti2   c       0.001178      0.001178      0.003156      0.000000
      3 O1    c      -0.004796     -0.004796      0.003062      0.000000
      4 O2    c       0.000508      0.000508      0.003154      0.000000
      5 O3    c      -0.002581     -0.002581      0.001639      0.000000
      6 O4    c       0.003003      0.003003      0.001703      0.000000
--------------------------------------------------------------------------------
  Maximum abs         0.004796      0.004796      0.003156      0.000000
--------------------------------------------------------------------------------


  Time to end of optimisation =       2.3499 seconds

++++++++++++++++++++++++++++++++++++++++++++++++++++++++++++++++++++++++++++++++
################################################################################
                     1  structures optimised out of            2
################################################################################
++++++++++++++++++++++++++++++++++++++++++++++++++++++++++++++++++++++++++++++++

  Components of energy : 

--------------------------------------------------------------------------------
  Interatomic potentials     =          84.66120278 eV    
  Monopole - monopole (real) =         -89.27070985 eV    
  Monopole - monopole (recip)=        -203.56100135 eV    
  Monopole - monopole (total)=        -292.83171121 eV    
--------------------------------------------------------------------------------
  Total lattice energy       =        -208.17050843 eV    
--------------------------------------------------------------------------------
  Total lattice energy       =          -20085.2719 kJ/(mole unit cells)
--------------------------------------------------------------------------------


  Number of variables =       15

  Maximum number of calculations  =          1000
  Maximum Hessian update interval =            10
  Maximum step size               =   1.000000000
  Maximum parameter tolerance     =   0.000010000
  Maximum function  tolerance     =   0.000010000
  Maximum gradient  tolerance     =   0.001000000
  Maximum gradient  component     =   0.010000000

  Symmetry not applied to optimisation

  Conjugate gradient optimiser to be used

  Start of bulk optimisation :

  Cycle:      0 Energy:      -208.170508  Gnorm:      0.000717  CPU:    2.350


  **** Optimisation achieved ****


  Final energy =    -208.17050843 eV
  Final Gnorm  =       0.00071655

  Components of energy : 

--------------------------------------------------------------------------------
  Interatomic potentials     =          84.66120278 eV    
  Monopole - monopole (real) =         -89.27070985 eV    
  Monopole - monopole (recip)=        -203.56100135 eV    
  Monopole - monopole (total)=        -292.83171121 eV    
--------------------------------------------------------------------------------
  Total lattice energy       =        -208.17050843 eV    
--------------------------------------------------------------------------------
  Total lattice energy       =          -20085.2719 kJ/(mole unit cells)
--------------------------------------------------------------------------------

  Final fractional coordinates of atoms :

--------------------------------------------------------------------------------
   No.  Atomic        x           y          z          Radius
        Label       (Frac)      (Frac)     (Frac)       (Angs) 
--------------------------------------------------------------------------------
     1  Ti1   c     0.000000    0.000000    0.000000    0.000000
     2  Ti2   c     0.499992    0.499992    0.500058    0.000000
     3  O1    c     0.643984    0.643984    0.000055    0.000000
     4  O2    c     0.355982    0.355982    0.000055    0.000000
     5  O3    c     0.143992    0.143992    0.500031    0.000000
     6  O4    c     0.855990    0.855990    0.500031    0.000000
--------------------------------------------------------------------------------

  Final internal derivatives :

--------------------------------------------------------------------------------
   No.  Atomic          a             b             c           Radius
        Label          (eV)          (eV)          (eV)        (eV/Angs)
--------------------------------------------------------------------------------
      1 Ti1   c       0.000000      0.000000      0.000000      0.000000
      2 Ti2   c       0.001178      0.001178      0.003156      0.000000
      3 O1    c      -0.004796     -0.004796      0.003062      0.000000
      4 O2    c       0.000508      0.000508      0.003154      0.000000
      5 O3    c      -0.002581     -0.002581      0.001639      0.000000
      6 O4    c       0.003003      0.003003      0.001703      0.000000
--------------------------------------------------------------------------------
  Maximum abs         0.004796      0.004796      0.003156      0.000000
--------------------------------------------------------------------------------


  Time to end of optimisation =       2.3508 seconds



  XTL file written for configuration    1 as ruti01_1.xtl                  
  XTL file written for configuration    2 as ruti01_2.xtl                  

********************************************************************************
*  Output for configuration   2 : anatase                                      *
********************************************************************************



  Maximum number of cycles     =           300
  Initial #configurations      =           100
  Maximum #configurations      =           100

  Will look for   2 best candidates once all cycles completed

  Difference between best candidates:  0.00000
  Tournament probability       =     0.9000000
  #successful old parents      =             2 (trying again)
  Implementing a one point crossover scheme
  Crossover probability        =     0.5000000
  Mutation probability         =    -1.0000000
  Random number seed           =            -1


 COST FUNCTION

  Will use the following weighted terms to assess the candidate structures

   Weight                 Term
   1.0000    Bond Valence Discrepancy
   0.1000    Cation 1st Coodination Number Discrepancy
   0.2000    Anion  1st Coodination Number Discrepancy
   1.0000    Coulombic Energy between Cations
   1.0000    Coulombic Energy between Anions


  Start of optimisation :

 The number of grid points across the unit cell in
 any one direction has now changed to           16
 Thus pmuta has also changed becoming    7.5757575757575760E-003
  Cycle:    1 Cost fn : Min       252.937699 Max      4039.478943 CPU:    2.405
  Cycle:    2 Cost fn : Min       252.937699 Max       910.675436 CPU:    2.431
  Cycle:    3 Cost fn : Min       225.893481 Max      2743.877342 CPU:    2.458
  Cycle:    4 Cost fn : Min       225.893481 Max      1053.753955 CPU:    2.484
  Cycle:    5 Cost fn : Min       225.893481 Max      9455.097843 CPU:    2.510
  Cycle:    6 Cost fn : Min       225.893481 Max     12726.785366 CPU:    2.537
  Cycle:    7 Cost fn : Min       225.893481 Max       817.294284 CPU:    2.563
 The number of grid points across the unit cell in
 any one direction has now changed to           32
 Thus pmuta has also changed becoming    6.0606060606060606E-003
  Cycle:    8 Cost fn : Min       225.893481 Max       445.848243 CPU:    2.590
  Cycle:    9 Cost fn : Min       224.654361 Max      6357.494973 CPU:    2.616
  Cycle:   10 Cost fn : Min       223.089553 Max      2758.397480 CPU:    2.642
  Cycle:   11 Cost fn : Min       212.654715 Max       382.224610 CPU:    2.669
  Cycle:   12 Cost fn : Min       210.551201 Max      9116.869610 CPU:    2.695
  Cycle:   13 Cost fn : Min       210.551201 Max      5868.224265 CPU:    2.722
  Cycle:   14 Cost fn : Min       210.377570 Max      4023.085651 CPU:    2.748
  Cycle:   15 Cost fn : Min       202.352943 Max       418.008788 CPU:    2.775
 The number of grid points across the unit cell in
 any one direction has now changed to           64
 Thus pmuta has also changed becoming    5.0505050505050509E-003
  Cycle:   16 Cost fn : Min       202.352943 Max       388.978411 CPU:    2.802
  Cycle:   17 Cost fn : Min       202.352943 Max       444.706395 CPU:    2.828
  Cycle:   18 Cost fn : Min       201.866968 Max      3319.645726 CPU:    2.855
  Cycle:   19 Cost fn : Min       201.866968 Max      7294.501906 CPU:    2.882
  Cycle:   20 Cost fn : Min       199.912023 Max       389.182766 CPU:    2.908
  Cycle:   21 Cost fn : Min       199.912023 Max       402.054588 CPU:    2.935
  Cycle:   22 Cost fn : Min       198.068920 Max      3554.881624 CPU:    2.962
  Cycle:   23 Cost fn : Min       198.068920 Max      1875.226685 CPU:    2.989
 The number of grid points across the unit cell in
 any one direction has now changed to          128
 Thus pmuta has also changed becoming    4.3290043290043290E-003
  Cycle:   24 Cost fn : Min       198.068920 Max      2740.422692 CPU:    3.015
  Cycle:   25 Cost fn : Min       197.695296 Max      2784.946559 CPU:    3.042
  Cycle:   26 Cost fn : Min       195.535376 Max     15698.402213 CPU:    3.071
  Cycle:   27 Cost fn : Min       195.535376 Max       562.912603 CPU:    3.098
  Cycle:   28 Cost fn : Min       193.671769 Max       659.511563 CPU:    3.125
  Cycle:   29 Cost fn : Min       193.671769 Max      9332.740836 CPU:    3.155
  Cycle:   30 Cost fn : Min       193.671769 Max      5592.379378 CPU:    3.183
  Cycle:   31 Cost fn : Min       193.671769 Max      6702.923678 CPU:    3.215
 The number of grid points across the unit cell in
 any one direction has now changed to          256
 Thus pmuta has also changed becoming    3.7878787878787880E-003
  Cycle:   32 Cost fn : Min       193.671769 Max      3611.737504 CPU:    3.247
  Cycle:   33 Cost fn : Min       193.529971 Max       623.634424 CPU:    3.278
  Cycle:   34 Cost fn : Min       193.529971 Max      6205.754433 CPU:    3.307
  Cycle:   35 Cost fn : Min       192.040791 Max      2296.278049 CPU:    3.337
  Cycle:   36 Cost fn : Min       192.040791 Max      2392.227726 CPU:    3.366
  Cycle:   37 Cost fn : Min       192.040791 Max      1466.566532 CPU:    3.393
  Cycle:   38 Cost fn : Min       191.891009 Max       387.787502 CPU:    3.420
  Cycle:   39 Cost fn : Min       190.817460 Max      2355.365176 CPU:    3.446
  Cycle:   40 Cost fn : Min       188.958200 Max       958.298048 CPU:    3.473
  Cycle:   41 Cost fn : Min       188.958200 Max      5286.184207 CPU:    3.500
  Cycle:   42 Cost fn : Min       188.958200 Max      1288.504181 CPU:    3.527
  Cycle:   43 Cost fn : Min       188.958200 Max      2477.716468 CPU:    3.554
  Cycle:   44 Cost fn : Min       188.958200 Max       964.917279 CPU:    3.581
  Cycle:   45 Cost fn : Min       188.598458 Max      1853.161633 CPU:    3.608
  Cycle:   46 Cost fn : Min       187.637844 Max       518.108224 CPU:    3.635
  Cycle:   47 Cost fn : Min       187.637844 Max      5513.990701 CPU:    3.661
  Cycle:   48 Cost fn : Min       187.637844 Max       349.134450 CPU:    3.688
  Cycle:   49 Cost fn : Min       187.637844 Max       292.071558 CPU:    3.715
  Cycle:   50 Cost fn : Min       183.659640 Max       372.533472 CPU:    3.742
  Cycle:   51 Cost fn : Min       183.659640 Max       306.477281 CPU:    3.769
  Cycle:   52 Cost fn : Min       183.659640 Max      1396.002391 CPU:    3.795
  Cycle:   53 Cost fn : Min       183.659640 Max      9911.374558 CPU:    3.822
  Cycle:   54 Cost fn : Min       182.906768 Max       314.325967 CPU:    3.852
  Cycle:   55 Cost fn : Min       182.906768 Max       974.591589 CPU:    3.879
  Cycle:   56 Cost fn : Min       182.868269 Max       517.636191 CPU:    3.906
  Cycle:   57 Cost fn : Min       182.868269 Max      2600.531971 CPU:    3.936
  Cycle:   58 Cost fn : Min       182.868269 Max       666.927047 CPU:    3.963
  Cycle:   59 Cost fn : Min       180.943430 Max       879.032313 CPU:    3.990
  Cycle:   60 Cost fn : Min       180.283483 Max      2275.456101 CPU:    4.020
  Cycle:   61 Cost fn : Min       179.961592 Max      1185.503792 CPU:    4.047
  Cycle:   62 Cost fn : Min       179.961592 Max      4746.788600 CPU:    4.074
  Cycle:   63 Cost fn : Min       179.961592 Max      3995.316519 CPU:    4.104
  Cycle:   64 Cost fn : Min       179.961592 Max       724.169950 CPU:    4.131
  Cycle:   65 Cost fn : Min       179.961592 Max       780.576594 CPU:    4.158
  Cycle:   66 Cost fn : Min       179.961592 Max      9217.912750 CPU:    4.184
  Cycle:   67 Cost fn : Min       179.938024 Max       442.827545 CPU:    4.211
  Cycle:   68 Cost fn : Min       178.898861 Max      1659.333568 CPU:    4.238
  Cycle:   69 Cost fn : Min       178.898861 Max      1116.458892 CPU:    4.265
  Cycle:   70 Cost fn : Min       178.898861 Max       640.369204 CPU:    4.292
  Cycle:   71 Cost fn : Min       177.797030 Max      8865.879465 CPU:    4.319
  Cycle:   72 Cost fn : Min       177.797030 Max      1240.617489 CPU:    4.346
  Cycle:   73 Cost fn : Min       176.844836 Max       445.766035 CPU:    4.373
  Cycle:   74 Cost fn : Min       176.844836 Max      1930.052126 CPU:    4.400
  Cycle:   75 Cost fn : Min       176.844836 Max       578.315118 CPU:    4.426
  Cycle:   76 Cost fn : Min       176.844836 Max       609.099161 CPU:    4.453
  Cycle:   77 Cost fn : Min       176.844836 Max       805.423393 CPU:    4.480
  Cycle:   78 Cost fn : Min       175.416209 Max       253.512276 CPU:    4.507
  Cycle:   79 Cost fn : Min       175.416209 Max       330.770234 CPU:    4.537
  Cycle:   80 Cost fn : Min       173.867463 Max      1318.473042 CPU:    4.564
  Cycle:   81 Cost fn : Min       173.867463 Max       395.782400 CPU:    4.591
  Cycle:   82 Cost fn : Min       173.867463 Max       877.341913 CPU:    4.618
  Cycle:   83 Cost fn : Min       173.859598 Max      7431.069789 CPU:    4.644
  Cycle:   84 Cost fn : Min       173.793243 Max      1201.490972 CPU:    4.671
  Cycle:   85 Cost fn : Min       173.793243 Max       918.299096 CPU:    4.698
  Cycle:   86 Cost fn : Min       173.698291 Max       502.437463 CPU:    4.725
  Cycle:   87 Cost fn : Min       173.252522 Max     13151.506086 CPU:    4.752
  Cycle:   88 Cost fn : Min       173.252522 Max       784.372737 CPU:    4.782
  Cycle:   89 Cost fn : Min       173.252522 Max      1671.955376 CPU:    4.812
  Cycle:   90 Cost fn : Min       173.252522 Max       410.712150 CPU:    4.844
  Cycle:   91 Cost fn : Min       173.128601 Max       491.386233 CPU:    4.875
  Cycle:   92 Cost fn : Min       172.973381 Max       313.947706 CPU:    4.905
  Cycle:   93 Cost fn : Min       172.973381 Max      2891.962648 CPU:    4.931
  Cycle:   94 Cost fn : Min       172.670332 Max      4070.080069 CPU:    4.963
  Cycle:   95 Cost fn : Min       172.670332 Max      3675.917430 CPU:    4.996
  Cycle:   96 Cost fn : Min       172.460086 Max      1810.837460 CPU:    5.025
  Cycle:   97 Cost fn : Min       172.460086 Max      1736.157271 CPU:    5.052
  Cycle:   98 Cost fn : Min       171.835981 Max       322.422465 CPU:    5.079
  Cycle:   99 Cost fn : Min       171.835981 Max       304.592909 CPU:    5.106
  Cycle:  100 Cost fn : Min       171.835981 Max      5769.343335 CPU:    5.132
  Cycle:  101 Cost fn : Min       171.835981 Max      8224.451568 CPU:    5.159
  Cycle:  102 Cost fn : Min       171.835981 Max      1326.298356 CPU:    5.186
  Cycle:  103 Cost fn : Min       171.835981 Max      2720.260958 CPU:    5.213
  Cycle:  104 Cost fn : Min       171.835981 Max      7688.152935 CPU:    5.240
  Cycle:  105 Cost fn : Min       171.835981 Max       952.342670 CPU:    5.266
  Cycle:  106 Cost fn : Min       171.835981 Max       296.704327 CPU:    5.293
  Cycle:  107 Cost fn : Min       171.835981 Max      2143.049956 CPU:    5.320
  Cycle:  108 Cost fn : Min       171.835981 Max      1125.147295 CPU:    5.347
  Cycle:  109 Cost fn : Min       171.835981 Max      2036.791992 CPU:    5.373
  Cycle:  110 Cost fn : Min       171.801602 Max      1937.138349 CPU:    5.400
  Cycle:  111 Cost fn : Min       171.801602 Max      5175.527122 CPU:    5.427
  Cycle:  112 Cost fn : Min       171.801602 Max      3902.455433 CPU:    5.454
  Cycle:  113 Cost fn : Min       171.801602 Max       532.979196 CPU:    5.480
  Cycle:  114 Cost fn : Min       171.801602 Max       605.276377 CPU:    5.507
  Cycle:  115 Cost fn : Min       171.801602 Max      1994.693579 CPU:    5.537
  Cycle:  116 Cost fn : Min       171.801602 Max       429.707280 CPU:    5.564
  Cycle:  117 Cost fn : Min       171.801602 Max       468.264703 CPU:    5.596
  Cycle:  118 Cost fn : Min       171.457882 Max       351.184816 CPU:    5.623
  Cycle:  119 Cost fn : Min       171.457882 Max       382.914891 CPU:    5.654
  Cycle:  120 Cost fn : Min       171.457882 Max      2172.478683 CPU:    5.681
  Cycle:  121 Cost fn : Min       171.457882 Max      1103.408018 CPU:    5.709
  Cycle:  122 Cost fn : Min       171.457882 Max      4544.929430 CPU:    5.737
  Cycle:  123 Cost fn : Min       171.250801 Max       641.702484 CPU:    5.767
  Cycle:  124 Cost fn : Min       171.250801 Max     14980.158281 CPU:    5.799
  Cycle:  125 Cost fn : Min       171.250801 Max      7617.884511 CPU:    5.830
  Cycle:  126 Cost fn : Min       171.250801 Max      1343.028467 CPU:    5.859
  Cycle:  127 Cost fn : Min       171.250801 Max       798.176573 CPU:    5.889
  Cycle:  128 Cost fn : Min       171.250801 Max       459.675084 CPU:    5.916
  Cycle:  129 Cost fn : Min       171.250801 Max       458.325944 CPU:    5.943
  Cycle:  130 Cost fn : Min       171.250801 Max      1039.852724 CPU:    5.970
  Cycle:  131 Cost fn : Min       171.217048 Max       332.688033 CPU:    5.996
  Cycle:  132 Cost fn : Min       171.217048 Max      1126.626692 CPU:    6.023
  Cycle:  133 Cost fn : Min       171.217048 Max      1846.318537 CPU:    6.050
  Cycle:  134 Cost fn : Min       171.173391 Max      6886.413159 CPU:    6.077
  Cycle:  135 Cost fn : Min       171.173391 Max      1921.538119 CPU:    6.104
  Cycle:  136 Cost fn : Min       171.173391 Max       595.615430 CPU:    6.130
  Cycle:  137 Cost fn : Min       171.041531 Max      1023.389035 CPU:    6.157
  Cycle:  138 Cost fn : Min       171.041531 Max      1553.155849 CPU:    6.187
  Cycle:  139 Cost fn : Min       170.756951 Max      1835.386724 CPU:    6.214
  Cycle:  140 Cost fn : Min       170.756951 Max       477.395755 CPU:    6.241
  Cycle:  141 Cost fn : Min       170.756951 Max       300.204840 CPU:    6.268
  Cycle:  142 Cost fn : Min       170.496765 Max      4909.256955 CPU:    6.294
  Cycle:  143 Cost fn : Min       170.496765 Max      2044.621257 CPU:    6.321
  Cycle:  144 Cost fn : Min       170.496765 Max       416.166817 CPU:    6.348
  Cycle:  145 Cost fn : Min       170.496765 Max       401.788851 CPU:    6.375
  Cycle:  146 Cost fn : Min       170.496765 Max       303.094675 CPU:    6.401
  Cycle:  147 Cost fn : Min       170.496765 Max      2802.517398 CPU:    6.428
  Cycle:  148 Cost fn : Min       170.333004 Max      3000.529104 CPU:    6.455
  Cycle:  149 Cost fn : Min       170.333004 Max       478.445206 CPU:    6.482
  Cycle:  150 Cost fn : Min       170.333004 Max       270.059921 CPU:    6.509
  Cycle:  151 Cost fn : Min       170.333004 Max       337.564488 CPU:    6.535
  Cycle:  152 Cost fn : Min       170.333004 Max       948.568084 CPU:    6.562
  Cycle:  153 Cost fn : Min       170.333004 Max       474.904067 CPU:    6.589
  Cycle:  154 Cost fn : Min       169.561798 Max       332.629892 CPU:    6.619
  Cycle:  155 Cost fn : Min       169.561798 Max       381.245703 CPU:    6.646
  Cycle:  156 Cost fn : Min       169.561798 Max      1504.028162 CPU:    6.673
  Cycle:  157 Cost fn : Min       169.561798 Max       426.398351 CPU:    6.699
  Cycle:  158 Cost fn : Min       169.561798 Max      2804.959675 CPU:    6.726
  Cycle:  159 Cost fn : Min       169.561798 Max      3369.037213 CPU:    6.753
  Cycle:  160 Cost fn : Min       169.561798 Max      1664.996782 CPU:    6.780
  Cycle:  161 Cost fn : Min       169.561798 Max     10150.689023 CPU:    6.806
  Cycle:  162 Cost fn : Min       169.561798 Max       446.780879 CPU:    6.833
  Cycle:  163 Cost fn : Min       169.561798 Max       358.672808 CPU:    6.860
  Cycle:  164 Cost fn : Min       169.561798 Max       658.434281 CPU:    6.887
  Cycle:  165 Cost fn : Min       169.561798 Max      1868.516481 CPU:    6.914
  Cycle:  166 Cost fn : Min       169.561798 Max       917.295574 CPU:    6.940
  Cycle:  167 Cost fn : Min       169.561798 Max       700.822415 CPU:    6.967
  Cycle:  168 Cost fn : Min       169.561798 Max     12204.214052 CPU:    7.001
  Cycle:  169 Cost fn : Min       169.479242 Max       491.251440 CPU:    7.027
  Cycle:  170 Cost fn : Min       169.479242 Max       454.309400 CPU:    7.058
  Cycle:  171 Cost fn : Min       169.439442 Max       393.485429 CPU:    7.086
  Cycle:  172 Cost fn : Min       169.439442 Max      5547.953547 CPU:    7.118
  Cycle:  173 Cost fn : Min       169.439442 Max       601.066998 CPU:    7.146
  Cycle:  174 Cost fn : Min       169.439442 Max       723.355790 CPU:    7.173
  Cycle:  175 Cost fn : Min       169.359521 Max       432.370703 CPU:    7.200
  Cycle:  176 Cost fn : Min       169.334183 Max      3738.862551 CPU:    7.233
  Cycle:  177 Cost fn : Min       169.334183 Max       855.500182 CPU:    7.267
  Cycle:  178 Cost fn : Min       169.334183 Max      3122.772961 CPU:    7.296
  Cycle:  179 Cost fn : Min       169.312771 Max      5734.609703 CPU:    7.328
  Cycle:  180 Cost fn : Min       169.312771 Max       656.701883 CPU:    7.361
  Cycle:  181 Cost fn : Min       169.266890 Max      1385.751730 CPU:    7.395
  Cycle:  182 Cost fn : Min       169.080531 Max      6727.759964 CPU:    7.425
  Cycle:  183 Cost fn : Min       169.059120 Max       784.463781 CPU:    7.452
  Cycle:  184 Cost fn : Min       169.059120 Max      2154.066399 CPU:    7.479
  Cycle:  185 Cost fn : Min       168.971808 Max       293.721739 CPU:    7.506
  Cycle:  186 Cost fn : Min       168.971808 Max       819.601375 CPU:    7.533
  Cycle:  187 Cost fn : Min       168.944001 Max       820.230973 CPU:    7.560
  Cycle:  188 Cost fn : Min       168.944001 Max       365.391699 CPU:    7.587
  Cycle:  189 Cost fn : Min       168.620755 Max      2379.037523 CPU:    7.614
  Cycle:  190 Cost fn : Min       168.620755 Max      1304.976792 CPU:    7.642
  Cycle:  191 Cost fn : Min       168.616626 Max       636.281992 CPU:    7.669
  Cycle:  192 Cost fn : Min       168.616626 Max      1853.655100 CPU:    7.699
  Cycle:  193 Cost fn : Min       168.510464 Max     11693.519064 CPU:    7.729
  Cycle:  194 Cost fn : Min       168.396908 Max       558.496859 CPU:    7.759
  Cycle:  195 Cost fn : Min       168.396908 Max       736.000414 CPU:    7.788
  Cycle:  196 Cost fn : Min       168.396908 Max      7742.708220 CPU:    7.820
  Cycle:  197 Cost fn : Min       168.396908 Max      2057.585360 CPU:    7.850
  Cycle:  198 Cost fn : Min       168.396908 Max       594.751867 CPU:    7.876
  Cycle:  199 Cost fn : Min       168.320020 Max      3842.786589 CPU:    7.903
  Cycle:  200 Cost fn : Min       168.320020 Max       784.811853 CPU:    7.934
  Cycle:  201 Cost fn : Min       168.320020 Max       363.870073 CPU:    7.960
  Cycle:  202 Cost fn : Min       168.244203 Max      8782.244351 CPU:    7.991
  Cycle:  203 Cost fn : Min       168.244203 Max      2087.807149 CPU:    8.022
  Cycle:  204 Cost fn : Min       168.244203 Max       572.994468 CPU:    8.054
  Cycle:  205 Cost fn : Min       168.244203 Max      4379.758174 CPU:    8.081
  Cycle:  206 Cost fn : Min       168.186810 Max       690.807282 CPU:    8.107
  Cycle:  207 Cost fn : Min       167.879551 Max      4396.955181 CPU:    8.134
  Cycle:  208 Cost fn : Min       167.879551 Max      8112.977633 CPU:    8.163
  Cycle:  209 Cost fn : Min       167.879551 Max      3707.351005 CPU:    8.190
  Cycle:  210 Cost fn : Min       167.879551 Max      1295.255826 CPU:    8.217
  Cycle:  211 Cost fn : Min       167.878786 Max       560.770509 CPU:    8.244
  Cycle:  212 Cost fn : Min       167.831796 Max       488.530087 CPU:    8.274
  Cycle:  213 Cost fn : Min       167.831796 Max       529.172918 CPU:    8.301
  Cycle:  214 Cost fn : Min       167.831796 Max       505.736777 CPU:    8.328
  Cycle:  215 Cost fn : Min       167.330469 Max       487.043180 CPU:    8.355
  Cycle:  216 Cost fn : Min       167.330469 Max      5179.470663 CPU:    8.381
  Cycle:  217 Cost fn : Min       167.330469 Max      2891.130139 CPU:    8.408
  Cycle:  218 Cost fn : Min       166.688761 Max      1012.939182 CPU:    8.435
  Cycle:  219 Cost fn : Min       166.688761 Max      7690.079352 CPU:    8.461
  Cycle:  220 Cost fn : Min       166.688761 Max      2851.409444 CPU:    8.488
  Cycle:  221 Cost fn : Min       166.688761 Max       264.594642 CPU:    8.515
  Cycle:  222 Cost fn : Min       166.485251 Max       362.653085 CPU:    8.542
  Cycle:  223 Cost fn : Min       166.485251 Max      3119.897802 CPU:    8.568
  Cycle:  224 Cost fn : Min       166.256385 Max       637.595937 CPU:    8.597
  Cycle:  225 Cost fn : Min       166.256385 Max       670.241080 CPU:    8.625
  Cycle:  226 Cost fn : Min       166.256385 Max       426.213019 CPU:    8.652
  Cycle:  227 Cost fn : Min       165.758947 Max       333.095874 CPU:    8.679
  Cycle:  228 Cost fn : Min       165.753620 Max      2543.368831 CPU:    8.706
  Cycle:  229 Cost fn : Min       165.427824 Max       333.474226 CPU:    8.734
  Cycle:  230 Cost fn : Min       165.003347 Max       326.687706 CPU:    8.760
  Cycle:  231 Cost fn : Min       165.003347 Max       451.844896 CPU:    8.787
  Cycle:  232 Cost fn : Min       165.003347 Max      5333.845094 CPU:    8.814
  Cycle:  233 Cost fn : Min       165.003347 Max      4544.039742 CPU:    8.840
  Cycle:  234 Cost fn : Min       165.003347 Max       253.863754 CPU:    8.867
  Cycle:  235 Cost fn : Min       164.313548 Max       781.686182 CPU:    8.894
  Cycle:  236 Cost fn : Min       164.313548 Max      2258.137980 CPU:    8.921
  Cycle:  237 Cost fn : Min       164.313548 Max      1943.614207 CPU:    8.948
  Cycle:  238 Cost fn : Min       164.279975 Max      1320.423712 CPU:    8.975
  Cycle:  239 Cost fn : Min       164.279975 Max     14073.995775 CPU:    9.001
  Cycle:  240 Cost fn : Min       163.759490 Max      8620.230271 CPU:    9.028
  Cycle:  241 Cost fn : Min       163.759490 Max      9771.483552 CPU:    9.055
  Cycle:  242 Cost fn : Min       163.759490 Max      5865.413955 CPU:    9.082
  Cycle:  243 Cost fn : Min       163.737775 Max      1740.915207 CPU:    9.108
  Cycle:  244 Cost fn : Min       163.737775 Max      6222.183562 CPU:    9.135
  Cycle:  245 Cost fn : Min       163.737775 Max      7608.787850 CPU:    9.162
  Cycle:  246 Cost fn : Min       163.737775 Max      4585.041918 CPU:    9.189
  Cycle:  247 Cost fn : Min       163.737775 Max      8669.396151 CPU:    9.216
  Cycle:  248 Cost fn : Min       163.700376 Max       736.158274 CPU:    9.242
  Cycle:  249 Cost fn : Min       163.681962 Max       768.036249 CPU:    9.269
  Cycle:  250 Cost fn : Min       163.681962 Max      1214.785752 CPU:    9.296
  Cycle:  251 Cost fn : Min       163.681962 Max       578.964115 CPU:    9.323
  Cycle:  252 Cost fn : Min       163.681962 Max     12059.903865 CPU:    9.350
  Cycle:  253 Cost fn : Min       163.681962 Max      1087.941212 CPU:    9.377
  Cycle:  254 Cost fn : Min       163.681962 Max      9004.799818 CPU:    9.404
  Cycle:  255 Cost fn : Min       163.653127 Max      1803.924356 CPU:    9.430
  Cycle:  256 Cost fn : Min       163.653127 Max       802.234018 CPU:    9.457
  Cycle:  257 Cost fn : Min       163.653127 Max       294.729056 CPU:    9.484
  Cycle:  258 Cost fn : Min       163.653127 Max      3065.491887 CPU:    9.511
  Cycle:  259 Cost fn : Min       163.576339 Max       300.363176 CPU:    9.541
  Cycle:  260 Cost fn : Min       163.576339 Max      5649.576785 CPU:    9.568
  Cycle:  261 Cost fn : Min       163.576339 Max      1704.324562 CPU:    9.595
  Cycle:  262 Cost fn : Min       163.560226 Max      1002.489805 CPU:    9.622
  Cycle:  263 Cost fn : Min       163.560226 Max      3249.555702 CPU:    9.648
  Cycle:  264 Cost fn : Min       159.735799 Max      3590.196974 CPU:    9.675
  Cycle:  265 Cost fn : Min       159.735799 Max      3075.071324 CPU:    9.702
  Cycle:  266 Cost fn : Min       159.735799 Max      8229.762074 CPU:    9.729
  Cycle:  267 Cost fn : Min       159.735799 Max       517.651483 CPU:    9.756
  Cycle:  268 Cost fn : Min       159.517904 Max       813.945118 CPU:    9.783
  Cycle:  269 Cost fn : Min       159.517904 Max      5435.894702 CPU:    9.809
  Cycle:  270 Cost fn : Min       159.517904 Max       309.244572 CPU:    9.836
  Cycle:  271 Cost fn : Min       159.247494 Max      7671.623857 CPU:    9.863
  Cycle:  272 Cost fn : Min       159.128833 Max       542.905182 CPU:    9.890
  Cycle:  273 Cost fn : Min       159.128833 Max      2612.933442 CPU:    9.917
  Cycle:  274 Cost fn : Min       159.128833 Max      3663.682688 CPU:    9.944
  Cycle:  275 Cost fn : Min       159.128833 Max       729.755277 CPU:    9.971
  Cycle:  276 Cost fn : Min       159.128833 Max      2280.365981 CPU:    9.998
  Cycle:  277 Cost fn : Min       159.128833 Max       415.952442 CPU:   10.025
  Cycle:  278 Cost fn : Min       159.128833 Max       809.428496 CPU:   10.051
  Cycle:  279 Cost fn : Min       158.825810 Max       457.685359 CPU:   10.078
  Cycle:  280 Cost fn : Min       158.749902 Max       746.098049 CPU:   10.105
  Cycle:  281 Cost fn : Min       158.749902 Max      1556.286643 CPU:   10.132
  Cycle:  282 Cost fn : Min       158.516434 Max       245.789641 CPU:   10.159
  Cycle:  283 Cost fn : Min       158.516434 Max      5868.737527 CPU:   10.186
  Cycle:  284 Cost fn : Min       158.516434 Max       578.632307 CPU:   10.213
  Cycle:  285 Cost fn : Min       158.516434 Max       405.913881 CPU:   10.240
  Cycle:  286 Cost fn : Min       158.335933 Max       295.483575 CPU:   10.267
  Cycle:  287 Cost fn : Min       158.263206 Max      1425.413813 CPU:   10.293
  Cycle:  288 Cost fn : Min       158.143140 Max      1122.064510 CPU:   10.320
  Cycle:  289 Cost fn : Min       158.143140 Max      8436.817386 CPU:   10.347
  Cycle:  290 Cost fn : Min       158.143140 Max      1660.245549 CPU:   10.374
  Cycle:  291 Cost fn : Min       158.143140 Max      1356.171324 CPU:   10.401
  Cycle:  292 Cost fn : Min       158.143140 Max       990.860437 CPU:   10.428
  Cycle:  293 Cost fn : Min       158.143140 Max       795.727567 CPU:   10.455
  Cycle:  294 Cost fn : Min       156.963638 Max       403.885300 CPU:   10.482
  Cycle:  295 Cost fn : Min       156.963638 Max       416.454118 CPU:   10.508
  Cycle:  296 Cost fn : Min       156.963638 Max      3519.550105 CPU:   10.535
  Cycle:  297 Cost fn : Min       156.632290 Max       319.124514 CPU:   10.562
  Cycle:  298 Cost fn : Min       156.632290 Max       315.697554 CPU:   10.589
  Cycle:  299 Cost fn : Min       156.632290 Max      1715.953700 CPU:   10.616
  Cycle:  300 Cost fn : Min       156.580404 Max     14499.917397 CPU:   10.643


  Best configurations from genetic algorithm optimisation :

--------------------------------------------------------------------------------
                                1            2
--------------------------------------------------------------------------------
  Sum of squares =           156.58040    156.60137
--------------------------------------------------------------------------------
  1  Fractional    2 x        0.46484      0.46484
  2  Fractional    2 y        0.07031      0.07031
  3  Fractional    2 z        0.35156      0.35156
  4  Fractional    3 x        0.57812      0.57812
  5  Fractional    3 y        0.18359      0.18359
  6  Fractional    3 z        0.53516      0.53516
  7  Fractional    4 x        0.78125      0.78125
  8  Fractional    4 y        0.84375      0.84375
  9  Fractional    4 z        0.73438      0.73438
 10  Fractional    5 x        0.85938      0.85938
 11  Fractional    5 y        0.92578      0.92578
 12  Fractional    5 z        0.36328      0.36328
 13  Fractional    6 x        0.87891      0.87891
 14  Fractional    6 y        0.26562      0.26562
 15  Fractional    6 z        0.84766      0.84766
 16  Fractional    7 x        0.00000      0.00000
 17  Fractional    7 y        0.27734      0.27734
 18  Fractional    7 z        0.53906      0.53906
 19  Fractional    8 x        0.42578      0.42578
 20  Fractional    8 y        0.36719      0.36719
 21  Fractional    8 z        0.68750      0.68750
 22  Fractional    9 x        0.33594      0.33594
 23  Fractional    9 y        0.25000      0.25000
 24  Fractional    9 z        0.95312      0.95312
 25  Fractional   10 x        0.23828      0.23828
 26  Fractional   10 y        0.83203      0.83203
 27  Fractional   10 z        0.19141      0.19141
 28  Fractional   11 x        0.87500      0.87500
 29  Fractional   11 y        0.43750      0.43750
 30  Fractional   11 z        0.75000      0.75000
 31  Fractional   12 x        0.21484      0.21484
 32  Fractional   12 y        0.14062      0.14062
 33  Fractional   12 z        0.14844      0.14844
--------------------------------------------------------------------------------




  Time for Global Optimiser  =       10.6414   seconds

++++++++++++++++++++++++++++++++++++++++++++++++++++++++++++++++++++++++++++++++
################################################################################
                     0  structures optimised out of            2
################################################################################
++++++++++++++++++++++++++++++++++++++++++++++++++++++++++++++++++++++++++++++++

  Components of energy : 

--------------------------------------------------------------------------------
  Interatomic potentials     =       83893.20706805 eV    
  Monopole - monopole (real) =        4001.84108944 eV    
  Monopole - monopole (recip)=          -5.32203719 eV    
  Monopole - monopole (total)=        3996.51905225 eV    
--------------------------------------------------------------------------------
  Total lattice energy       =       87889.72612029 eV    
--------------------------------------------------------------------------------
  Total lattice energy       =         8480015.0531 kJ/(mole unit cells)
--------------------------------------------------------------------------------


  Number of variables =       33

  Maximum number of calculations  =          1000
  Maximum Hessian update interval =            10
  Maximum step size               =   1.000000000
  Maximum parameter tolerance     =   0.000010000
  Maximum function  tolerance     =   0.000010000
  Maximum gradient  tolerance     =   0.001000000
  Maximum gradient  component     =   0.010000000

  Symmetry not applied to optimisation

  Conjugate gradient optimiser to be used

  Start of bulk optimisation :

  Cycle:      0 Energy:     87889.726120  Gnorm:  51915.154867  CPU:   10.643
  Cycle:      1 Energy:     44227.639112  Gnorm:  23453.955666  CPU:   10.647
  Cycle:      2 Energy:     28701.767054  Gnorm:  17819.548102  CPU:   10.651
  Cycle:      3 Energy:     21743.528617  Gnorm:  10994.574462  CPU:   10.654
  Cycle:      4 Energy:     18637.314721  Gnorm:   8462.377252  CPU:   10.657
  Cycle:      5 Energy:     16514.369137  Gnorm:   7532.915502  CPU:   10.661
  Cycle:      6 Energy:     14879.580737  Gnorm:   6169.199834  CPU:   10.664
  Cycle:      7 Energy:     13506.160633  Gnorm:   5732.990495  CPU:   10.667
  Cycle:      8 Energy:     12335.727892  Gnorm:   4931.900577  CPU:   10.671
  Cycle:      9 Energy:     11251.256405  Gnorm:   4721.985550  CPU:   10.674
  Cycle:     10 Energy:     10332.395238  Gnorm:   4001.160456  CPU:   10.678
  Cycle:     11 Energy:      9361.247592  Gnorm:   4194.487560  CPU:   10.681
  Cycle:     12 Energy:      8375.693625  Gnorm:   3491.986347  CPU:   10.685
  Cycle:     13 Energy:      7412.573041  Gnorm:   3453.250067  CPU:   10.688
  Cycle:     14 Energy:      6209.401129  Gnorm:   3288.169839  CPU:   10.692
  Cycle:     15 Energy:      4613.084432  Gnorm:   3027.310841  CPU:   10.695
  Cycle:     16 Energy:      2267.136050  Gnorm:   2360.133774  CPU:   10.700
  Cycle:     17 Energy:       153.869698  Gnorm:    287.258706  CPU:   10.705
  Cycle:     18 Energy:        -8.864076  Gnorm:     71.956325  CPU:   10.709
  Cycle:     19 Energy:      -132.930751  Gnorm:     69.664781  CPU:   10.713
  Cycle:     20 Energy:      -159.937264  Gnorm:     34.896065  CPU:   10.715
  Cycle:     21 Energy:      -218.348958  Gnorm:     58.755438  CPU:   10.719
[...]
  Cycle:     67 Energy:      -437.880280  Gnorm:      2.197661  CPU:   10.839
  Cycle:     68 Energy:      -437.880280  Gnorm:      2.197661  CPU:   10.841
  Cycle:     69 Energy:      -437.880280  Gnorm:      2.197661  CPU:   10.844
  Cycle:     70 Energy:      -437.880280  Gnorm:      2.197661  CPU:   10.846


  **** Too many failed attempts to optimise ****

  Final energy =    -437.88027965 eV
  Final Gnorm  =       2.19766092

  Components of energy : 

--------------------------------------------------------------------------------
  Interatomic potentials     =         124.64440683 eV    
  Monopole - monopole (real) =        -232.40999797 eV    
  Monopole - monopole (recip)=        -330.11468851 eV    
  Monopole - monopole (total)=        -562.52468648 eV    
--------------------------------------------------------------------------------
  Total lattice energy       =        -437.88027965 eV    
--------------------------------------------------------------------------------
  Total lattice energy       =          -42248.7534 kJ/(mole unit cells)
--------------------------------------------------------------------------------

  Final fractional coordinates of atoms :

--------------------------------------------------------------------------------
   No.  Atomic        x           y          z          Radius
        Label       (Frac)      (Frac)     (Frac)       (Angs) 
--------------------------------------------------------------------------------
     1  Ti1   c     0.000000    0.000000    0.000000    0.000000
     2  Ti2   c     0.581534    0.581534    0.732982    0.000000
     3  Ti3   c     0.080571    0.080571    0.476494    0.000000
     4  Ti4   c     0.539256    0.539256    0.238021    0.000000
     5  O1    c     0.307086    0.307086    0.627569    0.000000
     6  O2    c     0.876113    0.876113    0.332175    0.000000
     7  O3    c     0.382417    0.382417    0.380172    0.000000
     8  O4    c     0.696830    0.696830    0.087932    0.000000
     9  O5    c     0.209253    0.209253    0.140537    0.000000
    10  O6    c     0.387094    0.387094    0.887338    0.000000
    11  O7    c     0.895785    0.895785    0.843270    0.000000
    12  O8    c     0.800136    0.800136    0.588182    0.000000
--------------------------------------------------------------------------------

  Final internal derivatives :

--------------------------------------------------------------------------------
   No.  Atomic          a             b             c           Radius
        Label          (eV)          (eV)          (eV)        (eV/Angs)
--------------------------------------------------------------------------------
      1 Ti1   c       0.000000      0.000000      0.000000      0.000000
      2 Ti2   c       1.729126      1.729126    -27.694986      0.000000
      3 Ti3   c       0.323950      0.323950    -45.405832      0.000000
      4 Ti4   c      -1.624388     -1.624388     27.260242      0.000000
      5 O1    c       1.896102      1.896102     20.300868      0.000000
      6 O2    c       3.017737      3.017737      3.238764      0.000000
      7 O3    c       5.544031      5.544031    -10.936604      0.000000
      8 O4    c      -6.772279     -6.772279    -14.761589      0.000000
      9 O5    c      -1.191335     -1.191335    -11.009991      0.000000
     10 O6    c       0.300682      0.300682      1.024665      0.000000
     11 O7    c       7.668810      7.668810     17.503215      0.000000
     12 O8    c      -0.579978     -0.579978     13.696354      0.000000
--------------------------------------------------------------------------------
  Maximum abs         7.668810      7.668810     45.405832      0.000000
--------------------------------------------------------------------------------


  Time to end of optimisation =      10.8493 seconds

++++++++++++++++++++++++++++++++++++++++++++++++++++++++++++++++++++++++++++++++
################################################################################
                     1  structures optimised out of            2
################################################################################
++++++++++++++++++++++++++++++++++++++++++++++++++++++++++++++++++++++++++++++++

  Components of energy : 

--------------------------------------------------------------------------------
  Interatomic potentials     =         124.64440683 eV    
  Monopole - monopole (real) =        -232.40999797 eV    
  Monopole - monopole (recip)=        -330.11468851 eV    
  Monopole - monopole (total)=        -562.52468648 eV    
--------------------------------------------------------------------------------
  Total lattice energy       =        -437.88027965 eV    
--------------------------------------------------------------------------------
  Total lattice energy       =          -42248.7534 kJ/(mole unit cells)
--------------------------------------------------------------------------------


  Number of variables =       33

  Maximum number of calculations  =          1000
  Maximum Hessian update interval =            10
  Maximum step size               =   1.000000000
  Maximum parameter tolerance     =   0.000010000
  Maximum function  tolerance     =   0.000010000
  Maximum gradient  tolerance     =   0.001000000
  Maximum gradient  component     =   0.010000000

  Symmetry not applied to optimisation

  Conjugate gradient optimiser to be used

  Start of bulk optimisation :

  Cycle:      0 Energy:      -437.880280  Gnorm:      2.197661  CPU:   10.851
  Cycle:      1 Energy:      -438.192900  Gnorm:      1.045590  CPU:   10.853
  Cycle:      2 Energy:      -438.385848  Gnorm:      0.935983  CPU:   10.856
  Cycle:      3 Energy:      -438.498083  Gnorm:      0.663168  CPU:   10.858
  Cycle:      4 Energy:      -438.769059  Gnorm:      1.067812  CPU:   10.861
  Cycle:      5 Energy:      -438.972672  Gnorm:      1.206539  CPU:   10.863
  Cycle:      6 Energy:      -439.130271  Gnorm:      0.729816  CPU:   10.866
  Cycle:      7 Energy:      -439.245307  Gnorm:      0.578230  CPU:   10.868
  Cycle:      8 Energy:      -439.303674  Gnorm:      0.488254  CPU:   10.871
  Cycle:      9 Energy:      -439.353015  Gnorm:      0.594031  CPU:   10.873
  Cycle:     10 Energy:      -439.391743  Gnorm:      0.442678  CPU:   10.875
  Cycle:     11 Energy:      -439.420477  Gnorm:      0.372690  CPU:   10.878
  Cycle:     12 Energy:      -439.454693  Gnorm:      0.494045  CPU:   10.880
  Cycle:     13 Energy:      -439.501896  Gnorm:      0.470098  CPU:   10.882
  Cycle:     14 Energy:      -439.713846  Gnorm:      0.725729  CPU:   10.885
  Cycle:     15 Energy:      -439.770221  Gnorm:      0.524814  CPU:   10.888
  Cycle:     16 Energy:      -439.820909  Gnorm:      0.599880  CPU:   10.890
  Cycle:     17 Energy:      -439.885917  Gnorm:      0.617459  CPU:   10.893
  Cycle:     18 Energy:      -440.008643  Gnorm:      0.604536  CPU:   10.896
  Cycle:     19 Energy:      -440.085533  Gnorm:      0.713592  CPU:   10.898
  Cycle:     20 Energy:      -440.134182  Gnorm:      0.392944  CPU:   10.901
  Cycle:     21 Energy:      -440.159776  Gnorm:      0.229957  CPU:   10.903
  Cycle:     22 Energy:      -440.169482  Gnorm:      0.234677  CPU:   10.906
  Cycle:     23 Energy:      -440.175786  Gnorm:      0.180173  CPU:   10.908
  Cycle:     24 Energy:      -440.252456  Gnorm:      0.412886  CPU:   10.912
  Cycle:     25 Energy:      -440.282191  Gnorm:      0.264248  CPU:   10.914
  Cycle:     26 Energy:      -440.290583  Gnorm:      0.239156  CPU:   10.916
  Cycle:     27 Energy:      -440.309875  Gnorm:      0.312276  CPU:   10.919
  Cycle:     28 Energy:      -440.322608  Gnorm:      0.269281  CPU:   10.922
  Cycle:     29 Energy:      -440.341698  Gnorm:      0.238212  CPU:   10.925
  Cycle:     30 Energy:      -440.347555  Gnorm:      0.138350  CPU:   10.928
  Cycle:     31 Energy:      -440.350568  Gnorm:      0.132987  CPU:   10.931
  Cycle:     32 Energy:      -440.354638  Gnorm:      0.144497  CPU:   10.933
  Cycle:     33 Energy:      -440.357349  Gnorm:      0.119382  CPU:   10.935
  Cycle:     34 Energy:      -440.367302  Gnorm:      0.144289  CPU:   10.938
  Cycle:     35 Energy:      -440.376888  Gnorm:      0.163485  CPU:   10.940
  Cycle:     36 Energy:      -440.383356  Gnorm:      0.250442  CPU:   10.943
  Cycle:     37 Energy:      -440.393562  Gnorm:      0.167597  CPU:   10.946
  Cycle:     38 Energy:      -440.400415  Gnorm:      0.135835  CPU:   10.948
  Cycle:     39 Energy:      -440.402976  Gnorm:      0.124494  CPU:   10.951
  Cycle:     40 Energy:      -440.404624  Gnorm:      0.095183  CPU:   10.953
  Cycle:     41 Energy:      -440.406252  Gnorm:      0.094455  CPU:   10.955
  Cycle:     42 Energy:      -440.409192  Gnorm:      0.158021  CPU:   10.958
  Cycle:     43 Energy:      -440.413972  Gnorm:      0.092056  CPU:   10.960
  Cycle:     44 Energy:      -440.415764  Gnorm:      0.061800  CPU:   10.962
  Cycle:     45 Energy:      -440.416707  Gnorm:      0.077556  CPU:   10.964
  Cycle:     46 Energy:      -440.417865  Gnorm:      0.074287  CPU:   10.967
  Cycle:     47 Energy:      -440.418775  Gnorm:      0.063694  CPU:   10.969
  Cycle:     48 Energy:      -440.419307  Gnorm:      0.053583  CPU:   10.971
  Cycle:     49 Energy:      -440.420723  Gnorm:      0.060841  CPU:   10.974
  Cycle:     50 Energy:      -440.421394  Gnorm:      0.056355  CPU:   10.976
  Cycle:     51 Energy:      -440.421762  Gnorm:      0.044176  CPU:   10.978
  Cycle:     52 Energy:      -440.422251  Gnorm:      0.041274  CPU:   10.980
  Cycle:     53 Energy:      -440.422641  Gnorm:      0.054072  CPU:   10.983
  Cycle:     54 Energy:      -440.423505  Gnorm:      0.052491  CPU:   10.985
  Cycle:     55 Energy:      -440.424311  Gnorm:      0.052391  CPU:   10.987
  Cycle:     56 Energy:      -440.426023  Gnorm:      0.086006  CPU:   10.990
  Cycle:     57 Energy:      -440.427082  Gnorm:      0.075308  CPU:   10.992
  Cycle:     58 Energy:      -440.428027  Gnorm:      0.064409  CPU:   10.994
  Cycle:     59 Energy:      -440.428512  Gnorm:      0.042369  CPU:   10.996
  Cycle:     60 Energy:      -440.428748  Gnorm:      0.036145  CPU:   10.999
  Cycle:     61 Energy:      -440.428951  Gnorm:      0.030471  CPU:   11.001
  Cycle:     62 Energy:      -440.429199  Gnorm:      0.045585  CPU:   11.003
  Cycle:     63 Energy:      -440.429613  Gnorm:      0.032998  CPU:   11.006
  Cycle:     64 Energy:      -440.429795  Gnorm:      0.021050  CPU:   11.008
  Cycle:     65 Energy:      -440.429971  Gnorm:      0.037294  CPU:   11.010
  Cycle:     66 Energy:      -440.430176  Gnorm:      0.023811  CPU:   11.012
  Cycle:     67 Energy:      -440.430258  Gnorm:      0.024504  CPU:   11.015
  Cycle:     68 Energy:      -440.430371  Gnorm:      0.015260  CPU:   11.017
  Cycle:     69 Energy:      -440.430438  Gnorm:      0.020699  CPU:   11.019
  Cycle:     70 Energy:      -440.430477  Gnorm:      0.012395  CPU:   11.022
  Cycle:     71 Energy:      -440.430527  Gnorm:      0.013416  CPU:   11.024
  Cycle:     72 Energy:      -440.430560  Gnorm:      0.017689  CPU:   11.026
  Cycle:     73 Energy:      -440.430648  Gnorm:      0.022773  CPU:   11.028
  Cycle:     74 Energy:      -440.430962  Gnorm:      0.029442  CPU:   11.031
  Cycle:     75 Energy:      -440.431107  Gnorm:      0.029119  CPU:   11.033
  Cycle:     76 Energy:      -440.431211  Gnorm:      0.022018  CPU:   11.035
  Cycle:     77 Energy:      -440.431374  Gnorm:      0.023731  CPU:   11.038
  Cycle:     78 Energy:      -440.431458  Gnorm:      0.018300  CPU:   11.040
  Cycle:     79 Energy:      -440.431523  Gnorm:      0.016008  CPU:   11.042
  Cycle:     80 Energy:      -440.431552  Gnorm:      0.011767  CPU:   11.044
  Cycle:     81 Energy:      -440.431570  Gnorm:      0.009751  CPU:   11.047
  Cycle:     82 Energy:      -440.431598  Gnorm:      0.011555  CPU:   11.049
  Cycle:     83 Energy:      -440.431619  Gnorm:      0.010147  CPU:   11.051
  Cycle:     84 Energy:      -440.431653  Gnorm:      0.009391  CPU:   11.054
  Cycle:     85 Energy:      -440.431673  Gnorm:      0.006041  CPU:   11.056
  Cycle:     86 Energy:      -440.431682  Gnorm:      0.008775  CPU:   11.058
  Cycle:     87 Energy:      -440.431697  Gnorm:      0.005604  CPU:   11.060
  Cycle:     88 Energy:      -440.431700  Gnorm:      0.003472  CPU:   11.063
  Cycle:     89 Energy:      -440.431704  Gnorm:      0.004939  CPU:   11.065
  Cycle:     90 Energy:      -440.431707  Gnorm:      0.003227  CPU:   11.067
  Cycle:     91 Energy:      -440.431709  Gnorm:      0.004035  CPU:   11.070
  Cycle:     92 Energy:      -440.431719  Gnorm:      0.004383  CPU:   11.072
  Cycle:     93 Energy:      -440.431727  Gnorm:      0.004812  CPU:   11.074
  Cycle:     94 Energy:      -440.431730  Gnorm:      0.005586  CPU:   11.076
  Cycle:     95 Energy:      -440.431743  Gnorm:      0.005767  CPU:   11.079
  Cycle:     96 Energy:      -440.431751  Gnorm:      0.006272  CPU:   11.081
  Cycle:     97 Energy:      -440.431757  Gnorm:      0.004928  CPU:   11.083
  Cycle:     98 Energy:      -440.431763  Gnorm:      0.005102  CPU:   11.086
  Cycle:     99 Energy:      -440.431766  Gnorm:      0.004099  CPU:   11.088
  Cycle:    100 Energy:      -440.431768  Gnorm:      0.003915  CPU:   11.090
  Cycle:    101 Energy:      -440.431771  Gnorm:      0.003233  CPU:   11.092
  Cycle:    102 Energy:      -440.431774  Gnorm:      0.004859  CPU:   11.095
  Cycle:    103 Energy:      -440.431779  Gnorm:      0.003171  CPU:   11.097
  Cycle:    104 Energy:      -440.431782  Gnorm:      0.002816  CPU:   11.099
  Cycle:    105 Energy:      -440.431783  Gnorm:      0.002274  CPU:   11.102
  Cycle:    106 Energy:      -440.431784  Gnorm:      0.001762  CPU:   11.104
  Cycle:    107 Energy:      -440.431785  Gnorm:      0.002273  CPU:   11.106
  Cycle:    108 Energy:      -440.431785  Gnorm:      0.001482  CPU:   11.108
  Cycle:    109 Energy:      -440.431786  Gnorm:      0.001381  CPU:   11.111
  Cycle:    110 Energy:      -440.431786  Gnorm:      0.001287  CPU:   11.113
  Cycle:    111 Energy:      -440.431787  Gnorm:      0.001303  CPU:   11.115
  Cycle:    112 Energy:      -440.431787  Gnorm:      0.001829  CPU:   11.118
  Cycle:    113 Energy:      -440.431788  Gnorm:      0.001436  CPU:   11.120
  Cycle:    114 Energy:      -440.431789  Gnorm:      0.002107  CPU:   11.122
  Cycle:    115 Energy:      -440.431790  Gnorm:      0.002257  CPU:   11.124
  Cycle:    116 Energy:      -440.431791  Gnorm:      0.002639  CPU:   11.127
  Cycle:    117 Energy:      -440.431792  Gnorm:      0.002362  CPU:   11.129
  Cycle:    118 Energy:      -440.431793  Gnorm:      0.001468  CPU:   11.131
  Cycle:    119 Energy:      -440.431793  Gnorm:      0.001355  CPU:   11.134
  Cycle:    120 Energy:      -440.431793  Gnorm:      0.000924  CPU:   11.136
  Cycle:    121 Energy:      -440.431793  Gnorm:      0.000790  CPU:   11.138
  Cycle:    122 Energy:      -440.431793  Gnorm:      0.000880  CPU:   11.141
  Cycle:    123 Energy:      -440.431794  Gnorm:      0.000908  CPU:   11.143
  Cycle:    124 Energy:      -440.431794  Gnorm:      0.000943  CPU:   11.145
  Cycle:    125 Energy:      -440.431794  Gnorm:      0.000762  CPU:   11.147


  **** Optimisation achieved ****


  Final energy =    -440.43179480 eV
  Final Gnorm  =       0.00040602

  Components of energy : 

--------------------------------------------------------------------------------
  Interatomic potentials     =         123.72255262 eV    
  Monopole - monopole (real) =        -233.63331982 eV    
  Monopole - monopole (recip)=        -330.52102761 eV    
  Monopole - monopole (total)=        -564.15434743 eV    
--------------------------------------------------------------------------------
  Total lattice energy       =        -440.43179480 eV    
--------------------------------------------------------------------------------
  Total lattice energy       =          -42494.9356 kJ/(mole unit cells)
--------------------------------------------------------------------------------

  Final fractional coordinates of atoms :

--------------------------------------------------------------------------------
   No.  Atomic        x           y          z          Radius
        Label       (Frac)      (Frac)     (Frac)       (Angs) 
--------------------------------------------------------------------------------
     1  Ti1   c     0.000000    0.000000    0.000000    0.000000
     2  Ti2   c     0.500061    0.500061    0.750000    0.000000
     3  Ti3   c     0.000094    0.000094    0.500000    0.000000
     4  Ti4   c     0.500062    0.500062    0.250001    0.000000
     5  O1    c     0.217278    0.217278    0.642956    0.000000
     6  O2    c     0.782908    0.782908    0.357045    0.000000
     7  O3    c     0.282936    0.282936    0.392969    0.000000
     8  O4    c     0.717217    0.717217    0.107048    0.000000
     9  O5    c     0.217205    0.217205    0.142968    0.000000
    10  O6    c     0.282847    0.282847    0.892960    0.000000
    11  O7    c     0.782839    0.782839    0.857053    0.000000
    12  O8    c     0.717302    0.717302    0.607056    0.000000
--------------------------------------------------------------------------------

  Final internal derivatives :

--------------------------------------------------------------------------------
   No.  Atomic          a             b             c           Radius
        Label          (eV)          (eV)          (eV)        (eV/Angs)
--------------------------------------------------------------------------------
      1 Ti1   c       0.000000      0.000000      0.000000      0.000000
      2 Ti2   c       0.001254      0.001254     -0.003378      0.000000
      3 Ti3   c       0.002066      0.002066     -0.000107      0.000000
      4 Ti4   c       0.001509      0.001509     -0.001367      0.000000
      5 O1    c       0.000382      0.000382     -0.000712      0.000000
      6 O2    c       0.000360      0.000360      0.002912      0.000000
      7 O3    c       0.004271      0.004271      0.003114      0.000000
      8 O4    c       0.001581      0.001581      0.003759      0.000000
      9 O5    c      -0.000759     -0.000759      0.003089      0.000000
     10 O6    c       0.001551      0.001551     -0.000597      0.000000
     11 O7    c       0.000291      0.000291      0.002145      0.000000
     12 O8    c       0.003178      0.003178      0.005859      0.000000
--------------------------------------------------------------------------------
  Maximum abs         0.004271      0.004271      0.005859      0.000000
--------------------------------------------------------------------------------


  Time to end of optimisation =      11.1507 seconds



  XTL file written for configuration    1 as anat01_1.xtl                  
  XTL file written for configuration    2 as anat01_2.xtl                  

  Peak dynamic memory used =       0.59 MB 


  Timing analysis for GULP :

--------------------------------------------------------------------------------
  Task / Subroutine                                          Time (Seconds)
--------------------------------------------------------------------------------
  Calculation of reciprocal space energy and derivatives          0.1499
  Calculation of real space energy and derivatives               10.7083
  Global summation overhead                                       0.0009
--------------------------------------------------------------------------------
  Total CPU time                                                 11.1512
--------------------------------------------------------------------------------


  XTL file written for configuration    1 as anat01_1.xtl                  
  XTL file written for configuration    2 as anat01_2.xtl                  
  Job Finished at 16:07.37 23rd September  2016                               

