********************************************************************************
*                       GENERAL UTILITY LATTICE PROGRAM                        *
*                                 Julian Gale                                  *
*                       Curtin Institute for Computation                       *
*                           Department of Chemistry                            *
*                    Curtin University, Western Australia                      *
********************************************************************************
* Version = 4.5.0 * Last modified =  20th September 2016                       *
********************************************************************************
*  optimise     - perform optimisation run                                     *
*  conp         - constant pressure calculation                                *
*  property     - calculate properties for final geometry                      *
*  phonon       - calculate phonons for final geometry                         *
*  intensity    - calculate phonon eigenvectors and estimate IR intensities    *
*  raman        - calculate Raman susceptibility                               *
********************************************************************************

  Job Started  at 16:19.33 23rd September  2016                               

  Number of CPUs =     1

  Host name      = M-A0010516-S                            


  Total number of configurations input =   1

********************************************************************************
*  Input for Configuration =   1                                               *
********************************************************************************

  Formula = Si3O6                                                       

  Number of irreducible atoms/shells =       3


  Total number atoms/shells =      15

  Dimensionality = 3               :  Bulk   


  Symmetry :

  Crystal family                   :  Hexagonal   
  Crystal class  (Groth - 1921)    :  Trigonal Trapezohedral               

  Space group (noncentrosymmetric) :  P 31 2 1        

  Patterson group                  :  P -3 m 1 

  Cartesian lattice vectors (Angstroms) :

        4.914730    0.000000    0.000000
       -2.457365    4.256281    0.000000
        0.000000    0.000000    5.406570

  Cell parameters (Angstroms/Degrees):

  a =       4.9147    alpha =  90.0000
  b =       4.9147    beta  =  90.0000
  c =       5.4066    gamma = 120.0000

  Initial cell volume =         113.097184 Angs**3

  Temperature of configuration =  0.000     K 

  Pressure of configuration =         0.000 GPa 

  Fractional coordinates of asymmetric unit :

--------------------------------------------------------------------------------
   No.  Atomic       x           y          z         Charge      Occupancy
        Label      (Frac)      (Frac)     (Frac)        (e)         (Frac)  
--------------------------------------------------------------------------------
      1 Si    c    0.468200 *  0.000000    0.333333     4.00000    1.000000    
      2 O     c    0.413100 *  0.266100 *  0.213100 *   0.86902    1.000000    
      3 O     s    0.431813 *  0.264902 *  0.204106 *  -2.86902    1.000000    
--------------------------------------------------------------------------------


  Constraints : 

--------------------------------------------------------------------------------
  Constraint no.      Unconstrained     Constrained    Coefficient    Offset
                         Variable         Variable
--------------------------------------------------------------------------------
           1              Strain 1        Strain 2       1.00000      0.0000
--------------------------------------------------------------------------------


********************************************************************************
*  General input information                                                   *
********************************************************************************

  Species output for all configurations : 

--------------------------------------------------------------------------------
  Species    Type    Atomic    Atomic    Charge       Radii (Angs)     Library
                     Number     Mass       (e)     Cova   Ionic  VDW   Symbol
--------------------------------------------------------------------------------
    Si       Core       14      28.09   4.000000   1.200  0.000  2.100          
    O        Core        8      16.00   0.869020   0.730  0.000  1.360          
    O        Shell       8       0.00  -2.869020   0.730  0.000  1.360          
--------------------------------------------------------------------------------


  Lattice summation method               =    Ewald          (3-D)
                                         =    Parry          (2-D)
                                         =    Saunders et al (1-D)
  Accuracy factor for lattice sums       =   12.000


  Time limit = Infinity

  Maximum range for interatomic potentials =    100000.000000 Angstroms

  General interatomic potentials :

--------------------------------------------------------------------------------
Atom  Types   Potential      Parameter       Value         Units   Cutoffs(Ang)
  1     2                                                            Min /  Max 
--------------------------------------------------------------------------------
Si   c O    s Buckingham    Buckingham A     1283.0377    eV        0.000 12.000
                            Buckingham rho  0.32050000    Ang       
                            Buckingham C     10.660000    eV*Ang^6  
--------------------------------------------------------------------------------
O    s O    s Buckingham    Buckingham A     22764.000    eV        0.000 12.000
                            Buckingham rho  0.14900000    Ang       
                            Buckingham C     27.880000    eV*Ang^6  
--------------------------------------------------------------------------------
O    c O    s Spring (c-s)  Spring k 2       74.920000    eV*Ang^-2 0.000  0.800
                            Spring k 4       0.0000000    eV*Ang^-4 
--------------------------------------------------------------------------------

  General Three-body potentials :

--------------------------------------------------------------------------------
  Atoms       Potential      Parameter       Value         Units   Cutoffs(Ang)
  1 / 2 / 3                                                          Min /  Max 
--------------------------------------------------------------------------------
Si    core    Harmonic      Three-body cnst  2.0972400    eV*rad^-2 0.000  1.800
O     shel                  Three-body angl  109.47000    degrees   0.000  1.800
O     shel                  Three-body k4    0.0000000    eV*rad^-4 0.000  3.500
                            Three-body k3    0.0000000    eV*rad^-3 
--------------------------------------------------------------------------------

********************************************************************************
*  Output for configuration   1                                                *
********************************************************************************


  Components of energy : 

--------------------------------------------------------------------------------
  Interatomic potentials     =         104.20124050 eV    
  Three-body potentials      =           0.05967375 eV    
  Monopole - monopole (real) =        -111.26563177 eV    
  Monopole - monopole (recip)=        -379.17637423 eV    
  Monopole - monopole (total)=        -490.44200600 eV    
--------------------------------------------------------------------------------
  Total lattice energy       =        -386.18109175 eV    
--------------------------------------------------------------------------------
  Total lattice energy       =          -37260.5720 kJ/(mole unit cells)
--------------------------------------------------------------------------------


  Number of variables =        9

  Maximum number of calculations  =          1000
  Maximum Hessian update interval =            10
  Maximum step size               =   1.000000000
  Maximum parameter tolerance     =   0.000010000
  Maximum function  tolerance     =   0.000010000
  Maximum gradient  tolerance     =   0.001000000
  Maximum gradient  component     =   0.010000000

  Symmetry constrained optimisation

  Symmetry used for second derivatives

  Cell parameters to be optimised using strains

  Newton-Raphson optimiser to be used

  BFGS hessian update to be used

  Dumpfile to be written after every cycle

  Start of bulk optimisation :

  Cycle:      0 Energy:      -386.181092  Gnorm:      0.750280  CPU:    0.006
  ** Hessian calculated **
  Cycle:      1 Energy:      -386.222886  Gnorm:      0.313181  CPU:    0.010
  Cycle:      2 Energy:      -386.224259  Gnorm:      0.115989  CPU:    0.014
  Cycle:      3 Energy:      -386.224931  Gnorm:      0.030540  CPU:    0.017
  Cycle:      4 Energy:      -386.224950  Gnorm:      0.002409  CPU:    0.020


  **** Optimisation achieved ****


  Final energy =    -386.22495657 eV
  Final Gnorm  =       0.00053893

  Components of energy : 

--------------------------------------------------------------------------------
  Interatomic potentials     =         106.76170366 eV    
  Three-body potentials      =           0.04851715 eV    
  Monopole - monopole (real) =        -108.17585088 eV    
  Monopole - monopole (recip)=        -384.85932650 eV    
  Monopole - monopole (total)=        -493.03517739 eV    
--------------------------------------------------------------------------------
  Total lattice energy       =        -386.22495657 eV    
--------------------------------------------------------------------------------
  Total lattice energy       =          -37264.8043 kJ/(mole unit cells)
--------------------------------------------------------------------------------

  Final asymmetric unit coordinates :

--------------------------------------------------------------------------------
   No.  Atomic        x           y           z         Radius
        Label       (Frac)      (Frac)      (Frac)       (Angs) 
--------------------------------------------------------------------------------
     1  Si    c     0.463669    0.000000    0.333333    0.000000
     2  O     c     0.408171    0.278693    0.224865    0.000000
     3  O     s     0.428090    0.276072    0.212984    0.000000
--------------------------------------------------------------------------------

  Final Cartesian lattice vectors (Angstroms) :

        4.832773    0.000000    0.000000
       -2.416386    4.185304    0.000000
        0.000000    0.000000    5.343315


  Final cell parameters and derivatives :

--------------------------------------------------------------------------------
       a            4.832773 Angstrom     dE/de1(xx)    -0.000594 eV/strain
       b            4.832773 Angstrom     dE/de2(yy)     0.000000 eV/strain
       c            5.343315 Angstrom     dE/de3(zz)    -0.000086 eV/strain
       alpha       90.000000 Degrees      dE/de4(yz)     0.000000 eV/strain
       beta        90.000000 Degrees      dE/de5(xz)     0.000000 eV/strain
       gamma      120.000000 Degrees      dE/de6(xy)     0.000000 eV/strain
--------------------------------------------------------------------------------

  Primitive cell volume =           108.077223 Angs**3

  Density of cell =      2.769780 g/cm**3

  Non-primitive cell volume =           108.077223 Angs**3


  Final internal derivatives :

--------------------------------------------------------------------------------
   No.  Atomic          a             b             c           Radius
        Label          (eV)          (eV)          (eV)        (eV/Angs)
--------------------------------------------------------------------------------
      1 Si    c      -0.001267      0.000000      0.000000      0.000000
      2 O     c       0.001101     -0.003202      0.002618      0.000000
      3 O     s       0.000180      0.001363     -0.001161      0.000000
--------------------------------------------------------------------------------
  Maximum abs         0.001267      0.003202      0.002618      0.000000
--------------------------------------------------------------------------------


  Born effective charge tensors : 

-------------------------------------------------------------------------------
  Atom             x           y             z
-------------------------------------------------------------------------------
   1 Si    x       3.1475      0.0000      0.0000
           y       0.0000      3.5551      0.3361
           z       0.0000     -0.1951      3.4514
-------------------------------------------------------------------------------
   2 O     x      -1.4064      0.3783     -0.2517
           y       0.3741     -1.9449      0.5311
           z      -0.1659      0.5898     -1.7257
-------------------------------------------------------------------------------



  Core and shell Raman susceptibility tensors (Ang**-1): 

-------------------------------------------------------------------------------
  Atom                   x           y           z
-------------------------------------------------------------------------------
   1 Si    core x      -0.1150      0.0000      0.0000
     X          y       0.0000      0.3286     -1.0550
                z       0.0000     -1.0550     -0.3576
                x      -0.0000      0.3452     -0.9288
     Y          y       0.3452     -0.0000      0.0000
                z      -0.9288      0.0000      0.0000
                x       0.0000     -0.9507     -0.4130
     Z          y      -0.9507      0.0000      0.0000
                z      -0.4130      0.0000      0.0000
-------------------------------------------------------------------------------
   2 Si    core x      -0.3677      0.0534     -0.8590
     X          y       0.0534      0.2609      0.4328
                z      -0.8590      0.4328      0.1788
                x       0.0391      0.2526      0.5591
     Y          y       0.2526      0.1459      0.8590
                z       0.5591      0.8590     -0.3097
                x      -0.8233      0.4754      0.2065
     Z          y       0.4754      0.8233     -0.3577
                z       0.2065     -0.3577      0.0000
-------------------------------------------------------------------------------
   3 Si    core x      -0.3677     -0.0534      0.8590
     X          y      -0.0534      0.2609      0.4328
                z       0.8590      0.4328      0.1788
                x      -0.0391      0.2526      0.5591
     Y          y       0.2526     -0.1459     -0.8590
                z       0.5591     -0.8590      0.3097
                x       0.8233      0.4754      0.2065
     Z          y       0.4754     -0.8233      0.3577
                z       0.2065      0.3577      0.0000
-------------------------------------------------------------------------------
   4 O     core x       0.0931     -0.0296     -0.0275
     X          y      -0.0296      0.0553      0.0127
                z      -0.0275      0.0127      0.0694
                x      -0.0012     -0.0107     -0.0017
     Y          y      -0.0107     -0.0499      0.0210
                z      -0.0017      0.0210     -0.0229
                x      -0.0600      0.0263     -0.0044
     Z          y       0.0263     -0.0266      0.0167
                z      -0.0044      0.0167     -0.0617
-------------------------------------------------------------------------------
   5 O     core x       0.0212      0.0144      0.0136
     X          y       0.0144     -0.0511      0.0255
                z       0.0136      0.0255     -0.0148
                x       0.0574      0.0065      0.0111
     Y          y       0.0065      0.0967     -0.0201
                z       0.0111     -0.0201      0.0716
                x      -0.0122      0.0013     -0.0123
     Z          y       0.0013     -0.0744     -0.0121
                z      -0.0123     -0.0121     -0.0617
-------------------------------------------------------------------------------
   6 O     core x      -0.0698      0.0073      0.0042
     X          y       0.0073     -0.0486     -0.0166
                z       0.0042     -0.0166     -0.0546
                x      -0.0640     -0.0402     -0.0309
     Y          y      -0.0402     -0.0389     -0.0106
                z      -0.0309     -0.0106     -0.0486
                x      -0.0577     -0.0276      0.0166
     Z          y      -0.0276     -0.0289     -0.0046
                z       0.0166     -0.0046     -0.0617
-------------------------------------------------------------------------------
   7 O     core x       0.0931      0.0296      0.0275
     X          y       0.0296      0.0553      0.0127
                z       0.0275      0.0127      0.0694
                x       0.0012     -0.0107     -0.0017
     Y          y      -0.0107      0.0499     -0.0210
                z      -0.0017     -0.0210      0.0229
                x       0.0600      0.0263     -0.0044
     Z          y       0.0263      0.0266     -0.0167
                z      -0.0044     -0.0167      0.0617
-------------------------------------------------------------------------------
   8 O     core x       0.0212     -0.0144     -0.0136
     X          y      -0.0144     -0.0511      0.0255
                z      -0.0136      0.0255     -0.0148
                x      -0.0574      0.0065      0.0111
     Y          y       0.0065     -0.0967      0.0201
                z       0.0111      0.0201     -0.0716
                x       0.0122      0.0013     -0.0123
     Z          y       0.0013      0.0744      0.0121
                z      -0.0123      0.0121      0.0617
-------------------------------------------------------------------------------
   9 O     core x      -0.0698     -0.0073     -0.0042
     X          y      -0.0073     -0.0486     -0.0166
                z      -0.0042     -0.0166     -0.0546
                x       0.0640     -0.0402     -0.0309
     Y          y      -0.0402      0.0389      0.0106
                z      -0.0309      0.0106      0.0486
                x       0.0577     -0.0276      0.0166
     Z          y      -0.0276      0.0289      0.0046
                z       0.0166      0.0046      0.0617
-------------------------------------------------------------------------------
  10 O     shel x      -0.5258      0.1857      0.0723
     X          y       0.1857     -0.4946      0.0799
                z       0.0723      0.0799     -0.1894
                x       0.0812     -0.2695      0.0311
     Y          y      -0.2695      0.0908      0.1857
                z       0.0311      0.1857      0.0011
                x       0.1432      0.0336     -0.0866
     Z          y       0.0336      0.1080      0.0384
                z      -0.0866      0.0384      0.3864
-------------------------------------------------------------------------------
  11 O     shel x       0.2963     -0.0806      0.2054
     X          y      -0.0806      0.0649      0.0457
                z       0.2054      0.0457      0.0937
                x      -0.2233     -0.1381     -0.0030
     Y          y      -0.1381     -0.7464      0.0525
                z      -0.0030      0.0525     -0.1646
                x       0.1459     -0.0320      0.0100
     Z          y      -0.0320      0.1053     -0.0943
                z       0.0100     -0.0943      0.3864
-------------------------------------------------------------------------------
  12 O     shel x       0.6103      0.1663      0.1092
     X          y       0.1663      0.0489     -0.0525
                z       0.1092     -0.0525      0.0957
                x       0.4135      0.0268     -0.1012
     Y          y       0.0268      0.3842      0.1487
                z      -0.1012      0.1487      0.1635
                x       0.0877     -0.0015      0.0766
     Z          y      -0.0015      0.1635      0.0558
                z       0.0766      0.0558      0.3864
-------------------------------------------------------------------------------
  13 O     shel x      -0.5258     -0.1857     -0.0723
     X          y      -0.1857     -0.4946      0.0799
                z      -0.0723      0.0799     -0.1894
                x      -0.0812     -0.2695      0.0311
     Y          y      -0.2695     -0.0908     -0.1857
                z       0.0311     -0.1857     -0.0011
                x      -0.1432      0.0336     -0.0866
     Z          y       0.0336     -0.1080     -0.0384
                z      -0.0866     -0.0384     -0.3864
-------------------------------------------------------------------------------
  14 O     shel x       0.2963      0.0806     -0.2054
     X          y       0.0806      0.0650      0.0457
                z      -0.2054      0.0457      0.0937
                x       0.2233     -0.1381     -0.0030
     Y          y      -0.1381      0.7463     -0.0525
                z      -0.0030     -0.0525      0.1646
                x      -0.1459     -0.0320      0.0100
     Z          y      -0.0320     -0.1053      0.0942
                z       0.0100      0.0942     -0.3864
-------------------------------------------------------------------------------
  15 O     shel x       0.6102     -0.1663     -0.1093
     X          y      -0.1663      0.0489     -0.0525
                z      -0.1093     -0.0525      0.0957
                x      -0.4135      0.0268     -0.1012
     Y          y       0.0268     -0.3842     -0.1487
                z      -0.1012     -0.1487     -0.1635
                x      -0.0877     -0.0015      0.0766
     Z          y      -0.0015     -0.1635     -0.0558
                z       0.0766     -0.0558     -0.3864
-------------------------------------------------------------------------------



  Atomic Raman susceptibility tensors (Ang**-1): 

-------------------------------------------------------------------------------
  Atom                   x           y           z
-------------------------------------------------------------------------------
   1 Si    core x      -0.1150      0.0000      0.0000
     X          y       0.0000      0.3286     -1.0550
                z       0.0000     -1.0550     -0.3576
                x      -0.0000      0.3452     -0.9288
     Y          y       0.3452     -0.0000      0.0000
                z      -0.9288      0.0000      0.0000
                x       0.0000     -0.9507     -0.4130
     Z          y      -0.9507      0.0000      0.0000
                z      -0.4130      0.0000      0.0000
-------------------------------------------------------------------------------
   2 Si    core x      -0.3677      0.0534     -0.8590
     X          y       0.0534      0.2609      0.4328
                z      -0.8590      0.4328      0.1788
                x       0.0391      0.2526      0.5591
     Y          y       0.2526      0.1459      0.8590
                z       0.5591      0.8590     -0.3097
                x      -0.8233      0.4754      0.2065
     Z          y       0.4754      0.8233     -0.3577
                z       0.2065     -0.3577      0.0000
-------------------------------------------------------------------------------
   3 Si    core x      -0.3677     -0.0534      0.8590
     X          y      -0.0534      0.2609      0.4328
                z       0.8590      0.4328      0.1788
                x      -0.0391      0.2526      0.5591
     Y          y       0.2526     -0.1459     -0.8590
                z       0.5591     -0.8590      0.3097
                x       0.8233      0.4754      0.2065
     Z          y       0.4754     -0.8233      0.3577
                z       0.2065      0.3577      0.0000
-------------------------------------------------------------------------------
   4 O     core x      -0.4327      0.1561      0.0447
     X          y       0.1561     -0.4393      0.0925
                z       0.0447      0.0925     -0.1200
                x       0.0800     -0.2802      0.0294
     Y          y      -0.2802      0.0409      0.2067
                z       0.0294      0.2067     -0.0218
                x       0.0832      0.0598     -0.0910
     Z          y       0.0598      0.0814      0.0551
                z      -0.0910      0.0551      0.3247
-------------------------------------------------------------------------------
   5 O     core x       0.3175     -0.0662      0.2190
     X          y      -0.0662      0.0138      0.0712
                z       0.2190      0.0712      0.0789
                x      -0.1659     -0.1316      0.0081
     Y          y      -0.1316     -0.6497      0.0324
                z       0.0081      0.0324     -0.0930
                x       0.1336     -0.0307     -0.0022
     Z          y      -0.0307      0.0309     -0.1064
                z      -0.0022     -0.1064      0.3247
-------------------------------------------------------------------------------
   6 O     core x       0.5404      0.1736      0.1134
     X          y       0.1736      0.0002     -0.0691
                z       0.1134     -0.0691      0.0411
                x       0.3494     -0.0134     -0.1322
     Y          y      -0.0134      0.3453      0.1380
                z      -0.1322      0.1380      0.1148
                x       0.0300     -0.0291      0.0932
     Z          y      -0.0291      0.1345      0.0512
                z       0.0932      0.0512      0.3247
-------------------------------------------------------------------------------
   7 O     core x      -0.4327     -0.1561     -0.0447
     X          y      -0.1561     -0.4393      0.0925
                z      -0.0447      0.0925     -0.1200
                x      -0.0800     -0.2802      0.0294
     Y          y      -0.2802     -0.0409     -0.2067
                z       0.0294     -0.2067      0.0218
                x      -0.0832      0.0598     -0.0910
     Z          y       0.0598     -0.0814     -0.0551
                z      -0.0910     -0.0551     -0.3247
-------------------------------------------------------------------------------
   8 O     core x       0.3175      0.0662     -0.2190
     X          y       0.0662      0.0138      0.0712
                z      -0.2190      0.0712      0.0789
                x       0.1659     -0.1316      0.0081
     Y          y      -0.1316      0.6497     -0.0324
                z       0.0081     -0.0324      0.0930
                x      -0.1336     -0.0307     -0.0022
     Z          y      -0.0307     -0.0309      0.1064
                z      -0.0022      0.1064     -0.3247
-------------------------------------------------------------------------------
   9 O     core x       0.5404     -0.1736     -0.1134
     X          y      -0.1736      0.0002     -0.0691
                z      -0.1134     -0.0691      0.0411
                x      -0.3494     -0.0134     -0.1322
     Y          y      -0.0134     -0.3453     -0.1380
                z      -0.1322     -0.1380     -0.1148
                x      -0.0300     -0.0291      0.0932
     Z          y      -0.0291     -0.1345     -0.0513
                z       0.0932     -0.0513     -0.3247
-------------------------------------------------------------------------------




  Elastic Constant Matrix: (Units=GPa)

-------------------------------------------------------------------------------
  Indices      1         2         3         4         5         6    
-------------------------------------------------------------------------------
       1     94.7112   18.5517   19.7658  -14.4598    0.0002    0.0000
       2     18.5517   94.7112   19.7658   14.4598   -0.0002   -0.0000
       3     19.7658   19.7658  116.2855   -0.0000    0.0000   -0.0000
       4    -14.4598   14.4598   -0.0000   50.0491    0.0000   -0.0002
       5      0.0002   -0.0002    0.0000    0.0000   50.0491  -14.4598
       6      0.0000   -0.0000   -0.0000   -0.0002  -14.4598   38.0797
-------------------------------------------------------------------------------


  Elastic Compliance Matrix: (Units=1/GPa)

-------------------------------------------------------------------------------
  Indices      1         2         3         4         5         6    
-------------------------------------------------------------------------------
       1    0.012067 -0.002681 -0.001595  0.004261 -0.000000 -0.000000
       2   -0.002681  0.012067 -0.001595 -0.004261  0.000000  0.000000
       3   -0.001595 -0.001595  0.009142 -0.000000  0.000000  0.000000
       4    0.004261 -0.004261 -0.000000  0.022442 -0.000000  0.000000
       5   -0.000000  0.000000  0.000000 -0.000000  0.022442  0.008522
       6   -0.000000  0.000000  0.000000  0.000000  0.008522  0.029497
-------------------------------------------------------------------------------

  Mechanical properties :

-------------------------------------------------------------------------------
  Convention :                    Reuss         Voigt         Hill
-------------------------------------------------------------------------------
  Bulk  Modulus (GPa)     =      46.44237      46.87496      46.65866
  Shear Modulus (GPa)     =      39.50100      44.14389      41.82245
-------------------------------------------------------------------------------
  Velocity S-wave (km/s)  =       3.77643       3.99220       3.88581
  Velocity P-wave (km/s)  =       5.98187       6.17851       6.08098
-------------------------------------------------------------------------------
  Compressibility (1/GPa) =    0.02153206
-------------------------------------------------------------------------------
  Stress axis :                     x             y             z
-------------------------------------------------------------------------------
  Youngs Moduli (GPa)     =      82.87002      82.87002     109.38675
-------------------------------------------------------------------------------
  Poissons Ratio (x)      =                     0.22220       0.17451
  Poissons Ratio (y)      =       0.22220                     0.17451
  Poissons Ratio (z)      =       0.13221       0.13221
-------------------------------------------------------------------------------


  Piezoelectric Strain Matrix: (Units=C/m**2)

-------------------------------------------------------------------------------
  Indices      1         2         3         4         5         6    
-------------------------------------------------------------------------------
       x     2.69182  -2.69182  -0.00000  -1.41366   0.00007   0.00001
       y     0.00001  -0.00001  -0.00000   0.00007   1.41366  -2.69182
       z    -0.00004  -0.00004   0.00010   0.00000   0.00000  -0.00000
-------------------------------------------------------------------------------


  Piezoelectric Stress Matrix: (Units=10**-11 C/N)

-------------------------------------------------------------------------------
  Indices      1         2         3         4         5         6    
-------------------------------------------------------------------------------
       x     3.36763  -3.36763  -0.00000  -0.87865   0.00013   0.00006
       y     0.00003  -0.00003  -0.00000   0.00013   0.87865  -6.73526
       z    -0.00005  -0.00005   0.00011   0.00000   0.00000  -0.00000
-------------------------------------------------------------------------------


  Static dielectric constant tensor : 

-------------------------------------------------------------------------------
              x         y         z
-------------------------------------------------------------------------------
       x     4.75221  -0.00000  -0.00000
       y    -0.00000   4.75221   0.00000
       z    -0.00000   0.00000   5.02516
--------------------------------------------------------------------------------

  High frequency dielectric constant tensor : 

-------------------------------------------------------------------------------
              x         y         z
-------------------------------------------------------------------------------
       x     2.11948  -0.00000   0.00000
       y    -0.00000   2.11948  -0.00000
       z     0.00000  -0.00000   2.14288
-------------------------------------------------------------------------------

  Static refractive indices : 

-------------------------------------------------------------------------------
    1 =    2.17996      2 =    2.17996      3 =    2.24169
-------------------------------------------------------------------------------

  High frequency refractive indices : 

-------------------------------------------------------------------------------
    1 =    1.45584      2 =    1.45584      3 =    1.46386
-------------------------------------------------------------------------------


  Phonon Calculation : 

  Directions for Raman intensities: Type  =  Fractional 
                                    In    =  1.00000  0.00000  0.00000
                                    Out   =  0.00000  0.00000  1.00000

  Number of k points for this configuration =        1

--------------------------------------------------------------------------------
  K point      1 =   0.000000  0.000000  0.000000  Weight =    1.000
--------------------------------------------------------------------------------

 Frequencies (cm-1) and Eigenvectors : 

 Frequency      -0.0000    0.0000    0.0000  146.5854  146.5854  231.6449
 IR Intensity    0.0000    0.0000    0.0000    0.0002    0.0002    0.0000
    in X         0.0000    0.0000    0.0000    0.0001    0.0002    0.0000
    in Y         0.0000    0.0000    0.0000    0.0002    0.0001    0.0000
    in Z         0.0000    0.0000    0.0000    0.0000    0.0000    0.0000
 Raman Intsty    0.0000    0.0000    0.0000    0.0409    0.0137    0.0000

     1 x      -0.058722 -0.102015  0.376785 -0.049441  0.085559 -0.261790
     1 y       0.008160  0.380620  0.104325  0.104320  0.060282 -0.000000
     1 z       0.390265 -0.023308  0.054512 -0.028333 -0.016373  0.000000
     2 x      -0.058722 -0.102015  0.376785  0.115071 -0.009339  0.130896
     2 y       0.008160  0.380620  0.104325  0.009422 -0.104230 -0.226717
     2 z       0.390265 -0.023308  0.054512  0.028346 -0.016351  0.000000
     3 x      -0.058722 -0.102015  0.376785 -0.049369 -0.104361  0.130895
     3 y       0.008160  0.380620  0.104325 -0.085601  0.060210  0.226717
     3 z       0.390265 -0.023308  0.054512 -0.000013  0.032724  0.000000
     4 x      -0.044318 -0.076992  0.284366 -0.161143  0.197722 -0.058457
     4 y       0.006159  0.287260  0.078736  0.071502  0.350880  0.291810
     4 z       0.294540 -0.017591  0.041141  0.123156  0.334960  0.209353
     5 x      -0.044318 -0.076992  0.284366  0.339452  0.217517 -0.223486
     5 y       0.006159  0.287260  0.078736  0.091297 -0.149714 -0.196530
     5 z       0.294540 -0.017591  0.041141 -0.351662 -0.060824  0.209353
     6 x      -0.044318 -0.076992  0.284366  0.106297 -0.225908  0.281943
     6 y       0.006159  0.287260  0.078736 -0.352129  0.083440 -0.095280
     6 z       0.294540 -0.017591  0.041141  0.228506 -0.274136  0.209353
     7 x      -0.044318 -0.076992  0.284366 -0.090841  0.238347 -0.058458
     7 y       0.006159  0.287260  0.078736  0.339709 -0.113261 -0.291811
     7 z       0.294540 -0.017591  0.041141  0.351709 -0.060558 -0.209354
     8 x      -0.044318 -0.076992  0.284366 -0.357962 -0.185487 -0.223487
     8 y       0.006159  0.287260  0.078736 -0.084125  0.153860  0.196531
     8 z       0.294540 -0.017591  0.041141 -0.228299 -0.274310 -0.209354
     9 x      -0.044318 -0.076992  0.284366  0.142650 -0.204904  0.281945
     9 y       0.006159  0.287260  0.078736 -0.103542 -0.346752  0.095280
     9 z       0.294540 -0.017591  0.041141 -0.123410  0.334868 -0.209354


 Frequency     271.5111  271.5111  326.8966  339.7305  398.1175  398.1175
 IR Intensity    0.0252    0.0252    0.2330    0.0000    0.0714    0.0714
    in X         0.0063    0.0189    0.0000    0.0000    0.0178    0.0536
    in Y         0.0189    0.0063    0.0000    0.0000    0.0536    0.0178
    in Z         0.0000    0.0000    0.2330    0.0000    0.0000    0.0000
 Raman Intsty    0.0505    0.0169    0.0000    0.0000    1.5084    0.5024

     1 x       0.007630  0.013176  0.000014  0.396741 -0.061596 -0.106724
     1 y      -0.134993  0.078170 -0.062577  0.000003  0.275286 -0.158880
     1 z       0.167985 -0.097274  0.187575 -0.000006  0.182570 -0.105371
     2 x      -0.120879 -0.060798  0.054186 -0.198373  0.269176  0.084314
     2 y      -0.061018 -0.050339  0.031300  0.343587  0.084248  0.171892
     2 z      -0.168234 -0.096842  0.187575 -0.000006 -0.182539 -0.105424
     3 x       0.007439 -0.135103 -0.054200 -0.198368 -0.061654  0.275253
     3 y       0.013286  0.077979  0.031276 -0.343589 -0.106691 -0.158938
     3 z       0.000250  0.194116  0.187575 -0.000006 -0.000031  0.210795
     4 x       0.347214 -0.313647 -0.206828  0.187820 -0.301644 -0.045671
     4 y       0.195288 -0.043284 -0.298149  0.055864  0.109862  0.067512
     4 z       0.165798  0.125614 -0.124261  0.222650  0.251859  0.282621
     5 x       0.339642  0.199660  0.361619 -0.142289 -0.058697 -0.030403
     5 y      -0.318019 -0.050857 -0.030044  0.134725  0.094595  0.310459
     5 z       0.025886 -0.206392 -0.124261  0.222650  0.118828 -0.359426
     6 x      -0.101108 -0.063551 -0.154791 -0.045530 -0.193393  0.172361
     6 y      -0.054808 -0.491607  0.328193 -0.190589 -0.108170  0.175763
     6 z      -0.191684  0.080778 -0.124261  0.222650 -0.370686  0.076806
     7 x      -0.444862  0.145017  0.206839  0.187805  0.111355 -0.284035
     7 y       0.134749 -0.147828 -0.298152 -0.055844 -0.003500 -0.128900
     7 z      -0.026418 -0.206323 -0.124276 -0.222643 -0.118725 -0.359463
     8 x       0.004102  0.393958 -0.361627 -0.142265  0.003039 -0.066037
     8 y      -0.114193  0.301135 -0.030052 -0.134722 -0.221499 -0.237217
     8 z       0.191890  0.080283 -0.124276 -0.222643  0.370666  0.076913
     9 x      -0.004790 -0.119327  0.154787 -0.045541  0.245989 -0.081231
     9 y       0.399092  0.292243  0.328204  0.190566 -0.206305  0.005734
     9 z      -0.165472  0.126040 -0.124276 -0.222643 -0.251942  0.282550


 Frequency     440.4129  440.4129  467.7397  508.9876  718.7582  718.7582
 IR Intensity    0.5133    0.5133    0.0000    0.4491    0.0121    0.0121
    in X         0.3847    0.1286    0.0000    0.0000    0.0091    0.0030
    in Y         0.1286    0.3847    0.0000    0.0000    0.0030    0.0091
    in Z         0.0000    0.0000    0.0000    0.4491    0.0000    0.0000
 Raman Intsty    0.0149    0.0444    0.0000    0.0000    0.0056    0.0168

     1 x       0.190306  0.110055 -0.173791 -0.000001  0.097908 -0.056566
     1 y      -0.141711  0.245053  0.000001 -0.132049  0.103155  0.178547
     1 z      -0.084001  0.145259 -0.000001  0.220415 -0.299740 -0.518816
     2 x       0.217658  0.157503  0.086895  0.114358 -0.040272  0.182933
     2 y      -0.094263  0.217700 -0.150507  0.066024 -0.136345  0.040367
     2 z      -0.083798 -0.145376 -0.000001  0.220415 -0.299438  0.518990
     3 x       0.245074  0.110091  0.086896 -0.114357 -0.178595 -0.056484
     3 y      -0.141675  0.190285  0.150507  0.066025  0.103073 -0.097956
     3 z       0.167799  0.000117 -0.000001  0.220415  0.599178 -0.000174
     4 x      -0.249778 -0.022121  0.340263  0.325109  0.194042 -0.011257
     4 y      -0.147638 -0.207691  0.103710 -0.081478 -0.146894  0.214157
     4 z       0.161989 -0.317765 -0.158204 -0.146027 -0.044162 -0.137855
     5 x      -0.291720  0.123422 -0.259946 -0.091993 -0.170840  0.063771
     5 y      -0.002094 -0.165749  0.242821  0.322292 -0.221921 -0.150725
     5 z       0.194198  0.299169 -0.158204 -0.146027 -0.097305  0.107172
     6 x      -0.144705  0.086974 -0.080316 -0.233117 -0.053375 -0.289740
     6 y      -0.038543 -0.312764 -0.346531 -0.240814  0.131589 -0.033260
     6 z      -0.356187  0.018596 -0.158204 -0.146027  0.141466  0.030682
     7 x      -0.143754 -0.205457  0.340269 -0.325105  0.106673 -0.162479
     7 y       0.253650  0.024372 -0.103709 -0.081480  0.258899 -0.020288
     7 z       0.194621 -0.298891  0.158205 -0.146023 -0.097368 -0.107112
     8 x      -0.038527 -0.314402 -0.259949  0.091989 -0.140577  0.116149
     8 y       0.144705 -0.080854 -0.242827  0.322289 -0.019729 -0.267539
     8 z      -0.356157 -0.019101  0.158205 -0.146023  0.141445 -0.030767
     9 x       0.003209 -0.168801 -0.080320  0.233116  0.224347  0.190960
     9 y       0.290306 -0.122590  0.346536 -0.240809 -0.094540  0.097385
     9 z       0.161536  0.317992  0.158205 -0.146023 -0.044078  0.137879


 Frequency     816.3525  823.8701  823.8701  888.3889  888.4996  888.4996
 IR Intensity    0.5366    0.2932    0.2932    0.0000    1.4521    1.4521
    in X         0.0000    0.0735    0.2197    0.0000    1.0875    0.3646
    in Y         0.0000    0.2197    0.0735    0.0000    0.3646    1.0875
    in Z         0.5366    0.0000    0.0000    0.0000    0.0000    0.0000
 Raman Intsty    0.0000    1.9793    0.6619    0.0000    0.0999    0.2978

     1 x      -0.000006 -0.321007  0.555119  0.277835  0.099930  0.057843
     1 y      -0.500364  0.250225  0.144709 -0.000019 -0.193420  0.334022
     1 z      -0.197637  0.135892  0.078585  0.000000 -0.061785  0.106702
     2 x       0.433331  0.377004  0.152772 -0.138902  0.216793  0.260890
     2 y       0.250176 -0.152122 -0.553302  0.240621  0.009628  0.217160
     2 z      -0.197637 -0.136003  0.078393  0.000001 -0.061514 -0.106859
     3 x      -0.433325 -0.320444 -0.250550 -0.138933  0.334206  0.058161
     3 y       0.250187 -0.555444  0.144147 -0.240603 -0.193102  0.099747
     3 z      -0.197637  0.000111 -0.156978  0.000000  0.123299  0.000156
     4 x       0.006897  0.196970 -0.119547 -0.110435 -0.107211  0.114256
     4 y      -0.069023 -0.003635  0.068689  0.260078  0.324908 -0.154702
     4 z       0.130940 -0.125745  0.001449 -0.219631 -0.269696  0.133397
     5 x       0.056327  0.047420 -0.082707 -0.170016  0.047334 -0.235682
     5 y       0.040484  0.033204  0.218239 -0.225678 -0.025029 -0.309247
     5 z       0.130940  0.061617 -0.109623 -0.219630  0.019323 -0.300263
     6 x      -0.063224  0.154099  0.028387  0.280452 -0.332993 -0.194552
     6 y       0.028538  0.144299  0.111561 -0.034399  0.016100  0.071080
     6 z       0.130940  0.064128  0.108174 -0.219631  0.250373  0.166865
     7 x      -0.006891  0.005366 -0.230355 -0.110427  0.045722 -0.149847
     7 y      -0.069009  0.057717 -0.037432 -0.260068 -0.027576 -0.358796
     7 z       0.130929 -0.061464 -0.109692  0.219630  0.018569  0.300314
     8 x      -0.056319  0.048022 -0.082345 -0.170012 -0.180840  0.158381
     8 y       0.040472  0.205728 -0.080088  0.225667  0.280652 -0.132234
     8 z       0.130929 -0.064264  0.108075  0.219630  0.250795 -0.166238
     9 x       0.063209 -0.101487 -0.119409  0.280440 -0.334493 -0.191941
     9 y       0.028537  0.168664  0.069421  0.034401 -0.069670  0.021419
     9 z       0.130929  0.125728  0.001617  0.219630 -0.269364 -0.134075


 Frequency     903.4689 1017.0432 1017.0432
 IR Intensity    1.3149    0.0404    0.0404
    in X         0.0000    0.0101    0.0302
    in Y         0.0000    0.0302    0.0101
    in Z         1.3149    0.0000    0.0000
 Raman Intsty    0.0000    0.0127    0.0042

     1 x       0.000007 -0.001988  0.003440
     1 y       0.248227  0.108740  0.062904
     1 z      -0.233846 -0.342396 -0.198064
     2 x      -0.214974  0.095256 -0.052596
     2 y      -0.124108  0.052704 -0.034340
     2 z      -0.233846  0.342726 -0.197491
     3 x       0.214967 -0.001894 -0.108794
     3 y      -0.124119 -0.003494  0.062810
     3 z      -0.233846 -0.000331  0.395556
     4 x       0.134699  0.144646 -0.040320
     4 y      -0.257619 -0.313821  0.167201
     4 z       0.154917  0.271234 -0.156985
     5 x       0.155755  0.008215  0.235053
     5 y       0.245462 -0.038449  0.303633
     5 z       0.154917  0.000336  0.313388
     6 x      -0.290454  0.314910  0.215519
     6 y       0.012157 -0.057982 -0.003063
     6 z       0.154917 -0.271570 -0.156403
     7 x      -0.134703 -0.037159 -0.145490
     7 y      -0.257632 -0.011511 -0.355401
     7 z       0.154929 -0.000864  0.313391
     8 x      -0.155764 -0.207857  0.110063
     8 y       0.245472  0.244043 -0.184703
     8 z       0.154929  0.271836 -0.155947
     9 x       0.290467 -0.343824 -0.165542
     9 y       0.012160 -0.031563 -0.048737
     9 z       0.154929 -0.270972 -0.157443


--------------------------------------------------------------------------------
  Phonon properties (per mole of unit cells): Temperature =      0.000 K
--------------------------------------------------------------------------------
  Zero point energy            =        0.861250 eV
--------------------------------------------------------------------------------

  Time to end of optimisation =       0.0412 seconds


  Peak dynamic memory used =       0.74 MB 


  Timing analysis for GULP :

--------------------------------------------------------------------------------
  Task / Subroutine                                          Time (Seconds)
--------------------------------------------------------------------------------
  Calculation of reciprocal space energy and derivatives          0.0022
  Calculation of reciprocal space energy using symmetry           0.0023
  Calculation of real space energy and derivatives                0.0099
  Calculation of real space energy using symmetry                 0.0142
  Calculation of three-body energy and derivatives                0.0023
  Calculation of phonons                                          0.0039
  Symmetry generation of equivalent positions                     0.0003
--------------------------------------------------------------------------------
  Total CPU time                                                  0.0413
--------------------------------------------------------------------------------


  Dump file written as example53.res                                           


  Job Finished at 16:19.33 23rd September  2016                               

