********************************************************************************
*                       GENERAL UTILITY LATTICE PROGRAM                        *
*                                 Julian Gale                                  *
*                       Curtin Institute for Computation                       *
*                           Department of Chemistry                            *
*                    Curtin University, Western Australia                      *
********************************************************************************
* Version = 4.5.0 * Last modified =  20th September 2016                       *
********************************************************************************
 Copying current pdf block settings to all configurations
*  optimise     - perform optimisation run                                     *
*  conv         - constant volume calculation                                  *
*  phonon       - calculate phonons for final geometry                         *
*  eigenvectors - output phonon eigenvectors                                   *
*  nosymmetry   - turn off symmetry after initial structure generation         *
*  full         - generate full unit cell when symmetry is removed             *
*  nofrequency  - suppress frequency output after phonon calculation           *
*  noksymmetry  - do not use Brillouin zone symmetry when generating k points  *
*  nokpoints    - do not print out list of k points                            *
*  makeEigenArrays - store all eigenvectors and frequencies after calculation  *
*  coreinfo     - output atomic information for "cores" used                   *
*                 in phonon calculations                                       *
*  PDF          - calculate Pair Distribution Functions                        *
*  nowidth      - suppress output of peak widths for PDFs                      *
*  nopartial    - suppress output of partial Pair Distribution Functions       *
********************************************************************************
* MT Dove fitted potentials for Ca/Sr titanates used for multiple configuratio *
* Both partial and width output is suppressed.                                 *
* This is a test file, so small shrink factors have been used.                 *
* Convergence of phonon properties with k points has NOT been achieved         *
********************************************************************************


  Job Started  at 16:08.17 23rd September  2016                               

  Number of CPUs =     1

  Host name      = M-A0010516-S                            


  Total number of configurations input =   4

********************************************************************************
*  Input for Configuration =   1 : Ca0.25Sr0.75TiO3                            *
********************************************************************************

  Formula = CaSr3Ti4O12                                                 

  Number of irreducible atoms/shells =      36


  Total number atoms/shells =      36

  Dimensionality = 3               :  Bulk   



  Cartesian lattice vectors (Angstroms) :

        5.470000    0.000000    0.000000
        0.000000    5.470000    0.000000
        0.000000    0.000000    7.730000

  Cell parameters (Angstroms/Degrees):

  a =       5.4700    alpha =  90.0000
  b =       5.4700    beta  =  90.0000
  c =       7.7300    gamma =  90.0000

  Initial cell volume =         231.288557 Angs**3

  Shrinking factors =      2     2     2

  Temperature of configuration =  0.000     K 

  Pressure of configuration =         0.000 GPa 

  Fractional coordinates of asymmetric unit :

--------------------------------------------------------------------------------
   No.  Atomic       x           y          z         Charge      Occupancy
        Label      (Frac)      (Frac)     (Frac)        (e)         (Frac)  
--------------------------------------------------------------------------------
      1 Ca    c    0.950000 *  0.263000 *  0.250000     2.00000    0.250000    
      2 Ca    c    0.450000 *  0.737000 *  0.750000 *   2.00000    0.250000    
      3 Sr    c    0.950000    0.263000    0.250000     2.00000    0.750000    
      4 Sr    c    0.450000    0.737000    0.750000     2.00000    0.750000    
      5 Ca    c    0.446000 *  0.760000 *  0.250000 *   2.00000    0.250000    
      6 Ca    c    0.946000 *  0.240000 *  0.750000 *   2.00000    0.250000    
      7 Sr    c    0.446000    0.760000    0.250000     2.00000    0.750000    
      8 Sr    c    0.946000    0.240000    0.750000     2.00000    0.750000    
      9 Ti    c    0.965000 *  0.749000 *  0.999000 *   4.00000    1.000000    
     10 Ti    c    0.465000 *  0.251000 *  0.001000 *   4.00000    1.000000    
     11 Ti    c    0.465000 *  0.251000 *  0.499000 *   4.00000    1.000000    
     12 Ti    c    0.965000 *  0.749000 *  0.501000 *   4.00000    1.000000    
     13 O1    c    0.910000 *  0.746000 *  0.250000 *   0.84819    1.000000    
     14 O1    c    0.410000 *  0.254000 *  0.750000 *   0.84819    1.000000    
     15 O2    c    0.172000 *  0.031000 *  0.027000 *   0.84819    1.000000    
     16 O2    c    0.672000 *  0.969000 *  0.973000 *   0.84819    1.000000    
     17 O2    c    0.672000 *  0.969000 *  0.527000 *   0.84819    1.000000    
     18 O2    c    0.172000 *  0.031000 *  0.473000 *   0.84819    1.000000    
     19 O3    c    0.006000 *  0.757000 *  0.750000 *   0.84819    1.000000    
     20 O3    c    0.506000 *  0.243000 *  0.250000 *   0.84819    1.000000    
     21 O4    c    0.719000 *  0.485000 *  0.976000 *   0.84819    1.000000    
     22 O4    c    0.219000 *  0.515000 *  0.024000 *   0.84819    1.000000    
     23 O4    c    0.219000 *  0.515000 *  0.476000 *   0.84819    1.000000    
     24 O4    c    0.719000 *  0.485000 *  0.524000 *   0.84819    1.000000    
     25 O1    s    0.910000 *  0.746000 *  0.250000 *  -2.84819    1.000000    
     26 O1    s    0.410000 *  0.254000 *  0.750000 *  -2.84819    1.000000    
     27 O2    s    0.172000 *  0.031000 *  0.027000 *  -2.84819    1.000000    
     28 O2    s    0.672000 *  0.969000 *  0.973000 *  -2.84819    1.000000    
     29 O2    s    0.672000 *  0.969000 *  0.527000 *  -2.84819    1.000000    
     30 O2    s    0.172000 *  0.031000 *  0.473000 *  -2.84819    1.000000    
     31 O3    s    0.006000 *  0.757000 *  0.750000 *  -2.84819    1.000000    
     32 O3    s    0.506000 *  0.243000 *  0.250000 *  -2.84819    1.000000    
     33 O4    s    0.719000 *  0.485000 *  0.976000 *  -2.84819    1.000000    
     34 O4    s    0.219000 *  0.515000 *  0.024000 *  -2.84819    1.000000    
     35 O4    s    0.219000 *  0.515000 *  0.476000 *  -2.84819    1.000000    
     36 O4    s    0.719000 *  0.485000 *  0.524000 *  -2.84819    1.000000    
--------------------------------------------------------------------------------


  Constraints : 

--------------------------------------------------------------------------------
  Constraint no.      Unconstrained     Constrained    Coefficient    Offset
                         Variable         Variable
--------------------------------------------------------------------------------
           1                 1 x             3 x         1.00000      0.0000
           2                 1 y             3 y         1.00000      0.0000
           3                 1 z             3 z         1.00000      0.0000
           4                 2 x             4 x         1.00000      0.0000
           5                 2 y             4 y         1.00000      0.0000
           6                 2 z             4 z         1.00000      0.0000
           7                 5 x             7 x         1.00000      0.0000
           8                 5 y             7 y         1.00000      0.0000
           9                 5 z             7 z         1.00000      0.0000
          10                 6 x             8 x         1.00000      0.0000
          11                 6 y             8 y         1.00000      0.0000
          12                 6 z             8 z         1.00000      0.0000
--------------------------------------------------------------------------------

  PDF uses Gamma centred Brillouin zone with no symmetry reduction


********************************************************************************
*  Input for Configuration =   2 : CaSr(TiO3)2                                 *
********************************************************************************

  Formula = Ca2Sr2Ti4O12                                                

  Number of irreducible atoms/shells =      32


  Total number atoms/shells =      32

  Dimensionality = 3               :  Bulk   



  Cartesian lattice vectors (Angstroms) :

        5.470000    0.000000    0.000000
        0.000000    5.470000    0.000000
        0.000000    0.000000    7.730000

  Cell parameters (Angstroms/Degrees):

  a =       5.4700    alpha =  90.0000
  b =       5.4700    beta  =  90.0000
  c =       7.7300    gamma =  90.0000

  Initial cell volume =         231.288557 Angs**3

  Shrinking factors =      2     2     2

  Temperature of configuration =  0.000     K 

  Pressure of configuration =         0.000 GPa 

  Fractional coordinates of asymmetric unit :

--------------------------------------------------------------------------------
   No.  Atomic       x           y          z         Charge      Occupancy
        Label      (Frac)      (Frac)     (Frac)        (e)         (Frac)  
--------------------------------------------------------------------------------
      1 Ca    c    0.950000    0.263000    0.250000     2.00000    1.000000    
      2 Ca    c    0.450000 *  0.737000 *  0.750000 *   2.00000    1.000000    
      3 Sr    c    0.446000 *  0.760000 *  0.250000 *   2.00000    1.000000    
      4 Sr    c    0.946000 *  0.240000 *  0.750000 *   2.00000    1.000000    
      5 Ti    c    0.965000 *  0.749000 *  0.999000 *   4.00000    1.000000    
      6 Ti    c    0.465000 *  0.251000 *  0.001000 *   4.00000    1.000000    
      7 Ti    c    0.465000 *  0.251000 *  0.499000 *   4.00000    1.000000    
      8 Ti    c    0.965000 *  0.749000 *  0.501000 *   4.00000    1.000000    
      9 O1    c    0.910000 *  0.746000 *  0.250000 *   0.84819    1.000000    
     10 O1    c    0.410000 *  0.254000 *  0.750000 *   0.84819    1.000000    
     11 O2    c    0.172000 *  0.031000 *  0.027000 *   0.84819    1.000000    
     12 O2    c    0.672000 *  0.969000 *  0.973000 *   0.84819    1.000000    
     13 O2    c    0.672000 *  0.969000 *  0.527000 *   0.84819    1.000000    
     14 O2    c    0.172000 *  0.031000 *  0.473000 *   0.84819    1.000000    
     15 O3    c    0.006000 *  0.757000 *  0.750000 *   0.84819    1.000000    
     16 O3    c    0.506000 *  0.243000 *  0.250000 *   0.84819    1.000000    
     17 O4    c    0.719000 *  0.485000 *  0.976000 *   0.84819    1.000000    
     18 O4    c    0.219000 *  0.515000 *  0.024000 *   0.84819    1.000000    
     19 O4    c    0.219000 *  0.515000 *  0.476000 *   0.84819    1.000000    
     20 O4    c    0.719000 *  0.485000 *  0.524000 *   0.84819    1.000000    
     21 O1    s    0.910000 *  0.746000 *  0.250000 *  -2.84819    1.000000    
     22 O1    s    0.410000 *  0.254000 *  0.750000 *  -2.84819    1.000000    
     23 O2    s    0.172000 *  0.031000 *  0.027000 *  -2.84819    1.000000    
     24 O2    s    0.672000 *  0.969000 *  0.973000 *  -2.84819    1.000000    
     25 O2    s    0.672000 *  0.969000 *  0.527000 *  -2.84819    1.000000    
     26 O2    s    0.172000 *  0.031000 *  0.473000 *  -2.84819    1.000000    
     27 O3    s    0.006000 *  0.757000 *  0.750000 *  -2.84819    1.000000    
     28 O3    s    0.506000 *  0.243000 *  0.250000 *  -2.84819    1.000000    
     29 O4    s    0.719000 *  0.485000 *  0.976000 *  -2.84819    1.000000    
     30 O4    s    0.219000 *  0.515000 *  0.024000 *  -2.84819    1.000000    
     31 O4    s    0.219000 *  0.515000 *  0.476000 *  -2.84819    1.000000    
     32 O4    s    0.719000 *  0.485000 *  0.524000 *  -2.84819    1.000000    
--------------------------------------------------------------------------------


  PDF uses Gamma centred Brillouin zone with no symmetry reduction


********************************************************************************
*  Input for Configuration =   3 : Ca0.75Sr0.25TiO3                            *
********************************************************************************

  Formula = Ca3SrTi4O12                                                 

  Number of irreducible atoms/shells =      36


  Total number atoms/shells =      36

  Dimensionality = 3               :  Bulk   



  Cartesian lattice vectors (Angstroms) :

        5.470000    0.000000    0.000000
        0.000000    5.470000    0.000000
        0.000000    0.000000    7.730000

  Cell parameters (Angstroms/Degrees):

  a =       5.4700    alpha =  90.0000
  b =       5.4700    beta  =  90.0000
  c =       7.7300    gamma =  90.0000

  Initial cell volume =         231.288557 Angs**3

  Shrinking factors =      2     2     2

  Temperature of configuration =  0.000     K 

  Pressure of configuration =         0.000 GPa 

  Fractional coordinates of asymmetric unit :

--------------------------------------------------------------------------------
   No.  Atomic       x           y          z         Charge      Occupancy
        Label      (Frac)      (Frac)     (Frac)        (e)         (Frac)  
--------------------------------------------------------------------------------
      1 Ca    c    0.950000 *  0.263000 *  0.250000     2.00000    0.750000    
      2 Ca    c    0.450000 *  0.737000 *  0.750000 *   2.00000    0.750000    
      3 Sr    c    0.950000    0.263000    0.250000     2.00000    0.250000    
      4 Sr    c    0.450000    0.737000    0.750000     2.00000    0.250000    
      5 Ca    c    0.446000 *  0.760000 *  0.250000 *   2.00000    0.750000    
      6 Ca    c    0.946000 *  0.240000 *  0.750000 *   2.00000    0.750000    
      7 Sr    c    0.446000    0.760000    0.250000     2.00000    0.250000    
      8 Sr    c    0.946000    0.240000    0.750000     2.00000    0.250000    
      9 Ti    c    0.965000 *  0.749000 *  0.999000 *   4.00000    1.000000    
     10 Ti    c    0.465000 *  0.251000 *  0.001000 *   4.00000    1.000000    
     11 Ti    c    0.465000 *  0.251000 *  0.499000 *   4.00000    1.000000    
     12 Ti    c    0.965000 *  0.749000 *  0.501000 *   4.00000    1.000000    
     13 O1    c    0.910000 *  0.746000 *  0.250000 *   0.84819    1.000000    
     14 O1    c    0.410000 *  0.254000 *  0.750000 *   0.84819    1.000000    
     15 O2    c    0.172000 *  0.031000 *  0.027000 *   0.84819    1.000000    
     16 O2    c    0.672000 *  0.969000 *  0.973000 *   0.84819    1.000000    
     17 O2    c    0.672000 *  0.969000 *  0.527000 *   0.84819    1.000000    
     18 O2    c    0.172000 *  0.031000 *  0.473000 *   0.84819    1.000000    
     19 O3    c    0.006000 *  0.757000 *  0.750000 *   0.84819    1.000000    
     20 O3    c    0.506000 *  0.243000 *  0.250000 *   0.84819    1.000000    
     21 O4    c    0.719000 *  0.485000 *  0.976000 *   0.84819    1.000000    
     22 O4    c    0.219000 *  0.515000 *  0.024000 *   0.84819    1.000000    
     23 O4    c    0.219000 *  0.515000 *  0.476000 *   0.84819    1.000000    
     24 O4    c    0.719000 *  0.485000 *  0.524000 *   0.84819    1.000000    
     25 O1    s    0.910000 *  0.746000 *  0.250000 *  -2.84819    1.000000    
     26 O1    s    0.410000 *  0.254000 *  0.750000 *  -2.84819    1.000000    
     27 O2    s    0.172000 *  0.031000 *  0.027000 *  -2.84819    1.000000    
     28 O2    s    0.672000 *  0.969000 *  0.973000 *  -2.84819    1.000000    
     29 O2    s    0.672000 *  0.969000 *  0.527000 *  -2.84819    1.000000    
     30 O2    s    0.172000 *  0.031000 *  0.473000 *  -2.84819    1.000000    
     31 O3    s    0.006000 *  0.757000 *  0.750000 *  -2.84819    1.000000    
     32 O3    s    0.506000 *  0.243000 *  0.250000 *  -2.84819    1.000000    
     33 O4    s    0.719000 *  0.485000 *  0.976000 *  -2.84819    1.000000    
     34 O4    s    0.219000 *  0.515000 *  0.024000 *  -2.84819    1.000000    
     35 O4    s    0.219000 *  0.515000 *  0.476000 *  -2.84819    1.000000    
     36 O4    s    0.719000 *  0.485000 *  0.524000 *  -2.84819    1.000000    
--------------------------------------------------------------------------------


  Constraints : 

--------------------------------------------------------------------------------
  Constraint no.      Unconstrained     Constrained    Coefficient    Offset
                         Variable         Variable
--------------------------------------------------------------------------------
           1                 1 x             3 x         1.00000      0.0000
           2                 1 y             3 y         1.00000      0.0000
           3                 1 z             3 z         1.00000      0.0000
           4                 2 x             4 x         1.00000      0.0000
           5                 2 y             4 y         1.00000      0.0000
           6                 2 z             4 z         1.00000      0.0000
           7                 5 x             7 x         1.00000      0.0000
           8                 5 y             7 y         1.00000      0.0000
           9                 5 z             7 z         1.00000      0.0000
          10                 6 x             8 x         1.00000      0.0000
          11                 6 y             8 y         1.00000      0.0000
          12                 6 z             8 z         1.00000      0.0000
--------------------------------------------------------------------------------

  PDF uses Gamma centred Brillouin zone with no symmetry reduction


********************************************************************************
*  Input for Configuration =   4 : CaTiO3                                      *
********************************************************************************

  Formula = Ca4Ti4O12                                                   

  Number of irreducible atoms/shells =      32


  Total number atoms/shells =      32

  Dimensionality = 3               :  Bulk   



  Cartesian lattice vectors (Angstroms) :

        5.378500    0.000000    0.000000
        0.000000    5.441900    0.000000
        0.000000    0.000000    7.640000

  Cell parameters (Angstroms/Degrees):

  a =       5.3785    alpha =  90.0000
  b =       5.4419    beta  =  90.0000
  c =       7.6400    gamma =  90.0000

  Initial cell volume =         223.617140 Angs**3

  Shrinking factors =      2     2     2

  Temperature of configuration =  0.000     K 

  Pressure of configuration =         0.000 GPa 

  Fractional coordinates of asymmetric unit :

--------------------------------------------------------------------------------
   No.  Atomic       x           y          z         Charge      Occupancy
        Label      (Frac)      (Frac)     (Frac)        (e)         (Frac)  
--------------------------------------------------------------------------------
      1 Ca    c    0.993000    0.033000    0.250000     2.00000    1.000000    
      2 Ca    c    0.493000 *  0.467000 *  0.750000 *   2.00000    1.000000    
      3 Ca    c    0.507000 *  0.533000 *  0.250000 *   2.00000    1.000000    
      4 Ca    c    0.007000 *  0.967000 *  0.750000 *   2.00000    1.000000    
      5 Ti    c    0.000000 *  0.500000 *  0.000000 *   4.00000    1.000000    
      6 Ti    c    0.500000 *  0.000000 *  0.000000 *   4.00000    1.000000    
      7 Ti    c    0.500000 *  0.000000 *  0.500000 *   4.00000    1.000000    
      8 Ti    c    0.000000 *  0.500000 *  0.500000 *   4.00000    1.000000    
      9 O1    c    0.072000 *  0.489000 *  0.250000 *   0.84819    1.000000    
     10 O1    c    0.572000 *  0.011000 *  0.750000 *   0.84819    1.000000    
     11 O1    c    0.428000 *  0.989000 *  0.250000 *   0.84819    1.000000    
     12 O1    c    0.928000 *  0.511000 *  0.750000 *   0.84819    1.000000    
     13 O2    c    0.717000 *  0.284000 *  0.035000 *   0.84819    1.000000    
     14 O2    c    0.217000 *  0.216000 *  0.965000 *   0.84819    1.000000    
     15 O2    c    0.783000 *  0.784000 *  0.465000 *   0.84819    1.000000    
     16 O2    c    0.283000 *  0.716000 *  0.535000 *   0.84819    1.000000    
     17 O2    c    0.283000 *  0.716000 *  0.965000 *   0.84819    1.000000    
     18 O2    c    0.783000 *  0.784000 *  0.035000 *   0.84819    1.000000    
     19 O2    c    0.217000 *  0.216000 *  0.535000 *   0.84819    1.000000    
     20 O2    c    0.717000 *  0.284000 *  0.465000 *   0.84819    1.000000    
     21 O1    s    0.072000 *  0.489000 *  0.250000 *  -2.84819    1.000000    
     22 O1    s    0.572000 *  0.011000 *  0.750000 *  -2.84819    1.000000    
     23 O1    s    0.428000 *  0.989000 *  0.250000 *  -2.84819    1.000000    
     24 O1    s    0.928000 *  0.511000 *  0.750000 *  -2.84819    1.000000    
     25 O2    s    0.717000 *  0.284000 *  0.035000 *  -2.84819    1.000000    
     26 O2    s    0.217000 *  0.216000 *  0.965000 *  -2.84819    1.000000    
     27 O2    s    0.783000 *  0.784000 *  0.465000 *  -2.84819    1.000000    
     28 O2    s    0.283000 *  0.716000 *  0.535000 *  -2.84819    1.000000    
     29 O2    s    0.283000 *  0.716000 *  0.965000 *  -2.84819    1.000000    
     30 O2    s    0.783000 *  0.784000 *  0.035000 *  -2.84819    1.000000    
     31 O2    s    0.217000 *  0.216000 *  0.535000 *  -2.84819    1.000000    
     32 O2    s    0.717000 *  0.284000 *  0.465000 *  -2.84819    1.000000    
--------------------------------------------------------------------------------


  PDF uses Gamma centred Brillouin zone with no symmetry reduction


********************************************************************************
*  General input information                                                   *
********************************************************************************

  Species output for all configurations : 

--------------------------------------------------------------------------------
  Species    Type    Atomic    Atomic    Charge       Radii (Angs)     Library
                     Number     Mass       (e)     Cova   Ionic  VDW   Symbol
--------------------------------------------------------------------------------
    Sr       Core       38      87.62   2.000000   1.120  0.000  1.670          
    Ca       Core       20      40.08   2.000000   0.990  0.000  2.750          
    Ti       Core       22      47.88   4.000000   1.470  0.000  2.190          
    O        Core        8      16.00   0.848190   0.730  0.000  1.360          
    O        Shell       8       0.00  -2.848190   0.730  0.000  1.360          
--------------------------------------------------------------------------------


  Species output for PDF data: 

--------------------------------------------------------------------------------
  Species    Type       bbar     sigma_inc  sigma_coh     
                       (Angs)     (Angs^2)   (Angs^2)     
--------------------------------------------------------------------------------
    Sr       Core     0.7020E-04 0.5724E-09 0.6193E-07
    Ca       Core     0.4760E-04 0.4276E-09 0.2847E-07
    Ti       Core     -.3438E-04 0.2865E-07 0.1485E-07
    O        Core     0.5803E-04 0.2987E-11 0.4232E-07
    O        Shell    0.5803E-04 0.2987E-11 0.4232E-07
--------------------------------------------------------------------------------




********************************************************************************
*  PDF Input Settings                                                          *
********************************************************************************




!!!!!!!!!!!!!!!!!!!!!!!!!!!!!!!!!!!!!!!!!!!!!!!!!!!!!!!!!!!!!!!!!!!!!!!!!!!!!!!!
!! ADVICE  : 'pdf all' option acts on all configurations
!!!!!!!!!!!!!!!!!!!!!!!!!!!!!!!!!!!!!!!!!!!!!!!!!!!!!!!!!!!!!!!!!!!!!!!!!!!!!!!!

********************************************************************************
*  PDF parameters for each configuration 
*
*  Configuration   1
********************************************************************************
 Pair Distribution Function to be calculated up to  6.0000 A
 300 rbins to be used.
********************************************************************************
*  Configuration   2
********************************************************************************
 Pair Distribution Function to be calculated up to  6.0000 A
 300 rbins to be used.
********************************************************************************
*  Configuration   3
********************************************************************************
 Pair Distribution Function to be calculated up to  6.0000 A
 300 rbins to be used.
********************************************************************************
*  Configuration   4
********************************************************************************
 Pair Distribution Function to be calculated up to  6.0000 A
 300 rbins to be used.
********************************************************************************
  Lattice summation method               =    Ewald          (3-D)
                                         =    Parry          (2-D)
                                         =    Saunders et al (1-D)
  Accuracy factor for lattice sums       =   12.000


  Time limit = Infinity

  Maximum range for interatomic potentials =    100000.000000 Angstroms

  C6 terms to be calculated in real/reciprocal space by one-centre decomposition

  General interatomic potentials :

--------------------------------------------------------------------------------
Atom  Types   Potential      Parameter       Value         Units   Cutoffs(Ang)
  1     2                                                            Min /  Max 
--------------------------------------------------------------------------------
Sr   c O    s Buckingham    Buckingham A     13329.779    eV        0.000 10.000
                            Buckingham rho  0.24000000    Ang       
                            Buckingham C     0.0000000    eV*Ang^6  
--------------------------------------------------------------------------------
Ti   c O    s Buckingham    Buckingham A     2526.2674    eV        0.000 10.000
                            Buckingham rho  0.28880000    Ang       
                            Buckingham C     0.0000000    eV*Ang^6  
--------------------------------------------------------------------------------
O    s O    s Buckingham    Buckingham A     481913.54    eV        0.000 10.000
                            Buckingham rho  0.14900000    Ang       
                            Buckingham C     27.880000    eV*Ang^6  
--------------------------------------------------------------------------------
Ca   c O    s Buckingham    Buckingham A     2273.8827    eV        0.000 10.000
                            Buckingham rho  0.29860000    Ang       
                            Buckingham C     0.0000000    eV*Ang^6  
--------------------------------------------------------------------------------
O    c O    s Spring (c-s)  Spring k 2       58.204115    eV*Ang^-2 0.000  0.800
                            Spring k 4       0.0000000    eV*Ang^-4 
--------------------------------------------------------------------------------

********************************************************************************
*  Output for configuration   1 : Ca0.25Sr0.75TiO3                             *
********************************************************************************


  Components of energy : 

--------------------------------------------------------------------------------
  Interatomic potentials     =          81.33507677 eV    
  Monopole - monopole (real) =        -333.31948584 eV    
  Monopole - monopole (recip)=        -400.64827490 eV    
  Monopole - monopole (total)=        -733.96776074 eV    
  Dispersion (real+recip)    =          -3.87599781 eV    
--------------------------------------------------------------------------------
  Total lattice energy       =        -656.50868178 eV    
--------------------------------------------------------------------------------
  Total lattice energy       =          -63343.0521 kJ/(mole unit cells)
--------------------------------------------------------------------------------


  Number of variables =       95

  Maximum number of calculations  =          1000
  Maximum Hessian update interval =            10
  Maximum step size               =   1.000000000
  Maximum parameter tolerance     =   0.000010000
  Maximum function  tolerance     =   0.000010000
  Maximum gradient  tolerance     =   0.001000000
  Maximum gradient  component     =   0.010000000

  Newton-Raphson optimiser to be used

  BFGS hessian update to be used

  Start of bulk optimisation :

  Cycle:      0 Energy:      -656.508682  Gnorm:      0.738605  CPU:    0.026
  ** Hessian calculated **
  Cycle:      1 Energy:      -657.114460  Gnorm:      0.254235  CPU:    0.044
  Cycle:      2 Energy:      -657.238987  Gnorm:      0.159614  CPU:    0.055
  Cycle:      3 Energy:      -657.321312  Gnorm:      0.150037  CPU:    0.067
  Cycle:      4 Energy:      -657.362811  Gnorm:      0.134325  CPU:    0.079
  Cycle:      5 Energy:      -657.440780  Gnorm:      0.135223  CPU:    0.093
  Cycle:      6 Energy:      -657.505607  Gnorm:      0.179435  CPU:    0.108
  Cycle:      7 Energy:      -657.586843  Gnorm:      0.113216  CPU:    0.123
  Cycle:      8 Energy:      -657.631846  Gnorm:      0.102157  CPU:    0.134
  Cycle:      9 Energy:      -657.668837  Gnorm:      0.067817  CPU:    0.149
  Cycle:     10 Energy:      -657.693975  Gnorm:      0.081585  CPU:    0.160
  ** Hessian calculated **
  Cycle:     11 Energy:      -657.733737  Gnorm:      0.060089  CPU:    0.197
  ** Hessian calculated **
  Cycle:     12 Energy:      -657.741552  Gnorm:      0.038293  CPU:    0.222
  Cycle:     13 Energy:      -657.748058  Gnorm:      0.052673  CPU:    0.237
  Cycle:     14 Energy:      -657.753449  Gnorm:      0.037898  CPU:    0.249
  Cycle:     15 Energy:      -657.757929  Gnorm:      0.039489  CPU:    0.260
  Cycle:     16 Energy:      -657.763762  Gnorm:      0.049317  CPU:    0.272
  Cycle:     17 Energy:      -657.771615  Gnorm:      0.049438  CPU:    0.286
  Cycle:     18 Energy:      -657.778294  Gnorm:      0.033664  CPU:    0.298
  Cycle:     19 Energy:      -657.781103  Gnorm:      0.030580  CPU:    0.309
  Cycle:     20 Energy:      -657.783391  Gnorm:      0.033943  CPU:    0.321
  Cycle:     21 Energy:      -657.785644  Gnorm:      0.029955  CPU:    0.333
  ** Hessian calculated **
  Cycle:     22 Energy:      -657.794838  Gnorm:      0.025142  CPU:    0.369
  Cycle:     23 Energy:      -657.796348  Gnorm:      0.024833  CPU:    0.389
  ** Hessian calculated **
  Cycle:     24 Energy:      -657.819692  Gnorm:      0.011630  CPU:    0.420
  ** Hessian calculated **
  Cycle:     25 Energy:      -657.819874  Gnorm:      0.004824  CPU:    0.445
  Cycle:     26 Energy:      -657.819932  Gnorm:      0.004044  CPU:    0.457
  Cycle:     27 Energy:      -657.819985  Gnorm:      0.003834  CPU:    0.468
  Cycle:     28 Energy:      -657.820011  Gnorm:      0.002930  CPU:    0.480
  Cycle:     29 Energy:      -657.820053  Gnorm:      0.004798  CPU:    0.494
  Cycle:     30 Energy:      -657.820129  Gnorm:      0.004453  CPU:    0.509
  Cycle:     31 Energy:      -657.820198  Gnorm:      0.003547  CPU:    0.520
  Cycle:     32 Energy:      -657.820234  Gnorm:      0.004176  CPU:    0.532
  Cycle:     33 Energy:      -657.820289  Gnorm:      0.003675  CPU:    0.546
  Cycle:     34 Energy:      -657.820320  Gnorm:      0.003083  CPU:    0.558
  ** Hessian calculated **
  Cycle:     35 Energy:      -657.820337  Gnorm:      0.003255  CPU:    0.583
  Cycle:     36 Energy:      -657.820363  Gnorm:      0.003609  CPU:    0.597
  Cycle:     37 Energy:      -657.820386  Gnorm:      0.003367  CPU:    0.608
  Cycle:     38 Energy:      -657.820417  Gnorm:      0.003303  CPU:    0.620
  Cycle:     39 Energy:      -657.820455  Gnorm:      0.003082  CPU:    0.632
  Cycle:     40 Energy:      -657.820484  Gnorm:      0.002935  CPU:    0.643
  Cycle:     41 Energy:      -657.820508  Gnorm:      0.002771  CPU:    0.655
  Cycle:     42 Energy:      -657.820538  Gnorm:      0.002523  CPU:    0.669
  Cycle:     43 Energy:      -657.820553  Gnorm:      0.002617  CPU:    0.681
  Cycle:     44 Energy:      -657.820583  Gnorm:      0.003874  CPU:    0.695
  ** Hessian calculated **
  Cycle:     45 Energy:      -657.820602  Gnorm:      0.002280  CPU:    0.721
  Cycle:     46 Energy:      -657.820613  Gnorm:      0.001868  CPU:    0.732
  Cycle:     47 Energy:      -657.820629  Gnorm:      0.001754  CPU:    0.744
  Cycle:     48 Energy:      -657.820643  Gnorm:      0.002162  CPU:    0.755
  Cycle:     49 Energy:      -657.820659  Gnorm:      0.002295  CPU:    0.767
  Cycle:     50 Energy:      -657.820681  Gnorm:      0.002443  CPU:    0.778
  Cycle:     51 Energy:      -657.820698  Gnorm:      0.001984  CPU:    0.790
  Cycle:     52 Energy:      -657.820710  Gnorm:      0.002679  CPU:    0.802
  Cycle:     53 Energy:      -657.820721  Gnorm:      0.001967  CPU:    0.813
  Cycle:     54 Energy:      -657.820727  Gnorm:      0.001701  CPU:    0.825
  ** Hessian calculated **
  Cycle:     55 Energy:      -657.820732  Gnorm:      0.001746  CPU:    0.850
  Cycle:     56 Energy:      -657.820741  Gnorm:      0.001850  CPU:    0.862
  Cycle:     57 Energy:      -657.820749  Gnorm:      0.001685  CPU:    0.874
  Cycle:     58 Energy:      -657.820757  Gnorm:      0.001919  CPU:    0.885
  Cycle:     59 Energy:      -657.820771  Gnorm:      0.001479  CPU:    0.897
  Cycle:     60 Energy:      -657.820779  Gnorm:      0.001576  CPU:    0.908
  Cycle:     61 Energy:      -657.820786  Gnorm:      0.001805  CPU:    0.920
  Cycle:     62 Energy:      -657.820795  Gnorm:      0.001447  CPU:    0.932
  Cycle:     63 Energy:      -657.820799  Gnorm:      0.001466  CPU:    0.943
  Cycle:     64 Energy:      -657.820808  Gnorm:      0.002255  CPU:    0.955
  ** Hessian calculated **
  Cycle:     65 Energy:      -657.820814  Gnorm:      0.001474  CPU:    0.980
  Cycle:     66 Energy:      -657.820817  Gnorm:      0.001264  CPU:    0.992
  Cycle:     67 Energy:      -657.820822  Gnorm:      0.001419  CPU:    1.003
  Cycle:     68 Energy:      -657.820826  Gnorm:      0.001147  CPU:    1.015
  Cycle:     69 Energy:      -657.820832  Gnorm:      0.001252  CPU:    1.027
  Cycle:     70 Energy:      -657.820837  Gnorm:      0.001333  CPU:    1.038
  Cycle:     71 Energy:      -657.820843  Gnorm:      0.001125  CPU:    1.050
  Cycle:     72 Energy:      -657.820847  Gnorm:      0.001411  CPU:    1.061
  Cycle:     73 Energy:      -657.820850  Gnorm:      0.000952  CPU:    1.073
  Cycle:     74 Energy:      -657.820852  Gnorm:      0.001106  CPU:    1.085
  ** Hessian calculated **
  Cycle:     75 Energy:      -657.820854  Gnorm:      0.000854  CPU:    1.110
  Cycle:     76 Energy:      -657.820857  Gnorm:      0.000930  CPU:    1.121
  Cycle:     77 Energy:      -657.820860  Gnorm:      0.000863  CPU:    1.133
  Cycle:     78 Energy:      -657.820863  Gnorm:      0.001017  CPU:    1.145
  Cycle:     79 Energy:      -657.820865  Gnorm:      0.001050  CPU:    1.156
  Cycle:     80 Energy:      -657.820869  Gnorm:      0.000808  CPU:    1.168
  Cycle:     81 Energy:      -657.820871  Gnorm:      0.001211  CPU:    1.179
  Cycle:     82 Energy:      -657.820874  Gnorm:      0.000891  CPU:    1.193
  Cycle:     83 Energy:      -657.820875  Gnorm:      0.000974  CPU:    1.205
  Cycle:     84 Energy:      -657.820878  Gnorm:      0.001565  CPU:    1.218
  ** Hessian calculated **
  Cycle:     85 Energy:      -657.820880  Gnorm:      0.000920  CPU:    1.250
  Cycle:     86 Energy:      -657.820882  Gnorm:      0.000808  CPU:    1.264
  Cycle:     87 Energy:      -657.820883  Gnorm:      0.000862  CPU:    1.278
  Cycle:     88 Energy:      -657.820885  Gnorm:      0.000629  CPU:    1.291
  Cycle:     89 Energy:      -657.820887  Gnorm:      0.000611  CPU:    1.303
  Cycle:     90 Energy:      -657.820888  Gnorm:      0.000664  CPU:    1.315
  Cycle:     91 Energy:      -657.820889  Gnorm:      0.000689  CPU:    1.327
  Cycle:     92 Energy:      -657.820891  Gnorm:      0.000714  CPU:    1.339
  Cycle:     93 Energy:      -657.820892  Gnorm:      0.000552  CPU:    1.350
  Cycle:     94 Energy:      -657.820893  Gnorm:      0.000643  CPU:    1.362
  ** Hessian calculated **
  Cycle:     95 Energy:      -657.820894  Gnorm:      0.000463  CPU:    1.388
  Cycle:     96 Energy:      -657.820895  Gnorm:      0.000593  CPU:    1.399
  Cycle:     97 Energy:      -657.820896  Gnorm:      0.000412  CPU:    1.411
  Cycle:     98 Energy:      -657.820896  Gnorm:      0.000569  CPU:    1.423
  Cycle:     99 Energy:      -657.820897  Gnorm:      0.000497  CPU:    1.435
  Cycle:    100 Energy:      -657.820898  Gnorm:      0.000632  CPU:    1.447
  Cycle:    101 Energy:      -657.820899  Gnorm:      0.000532  CPU:    1.459
  Cycle:    102 Energy:      -657.820900  Gnorm:      0.000674  CPU:    1.471
  Cycle:    103 Energy:      -657.820901  Gnorm:      0.000534  CPU:    1.482
  Cycle:    104 Energy:      -657.820902  Gnorm:      0.000644  CPU:    1.494
  ** Hessian calculated **
  Cycle:    105 Energy:      -657.820902  Gnorm:      0.000502  CPU:    1.520
  Cycle:    106 Energy:      -657.820903  Gnorm:      0.000553  CPU:    1.532
  Cycle:    107 Energy:      -657.820904  Gnorm:      0.000594  CPU:    1.543
  Cycle:    108 Energy:      -657.820904  Gnorm:      0.000453  CPU:    1.555
  Cycle:    109 Energy:      -657.820905  Gnorm:      0.000401  CPU:    1.567
  Cycle:    110 Energy:      -657.820905  Gnorm:      0.000414  CPU:    1.579
  Cycle:    111 Energy:      -657.820906  Gnorm:      0.000304  CPU:    1.590


  **** Optimisation achieved ****


  Final energy =    -657.82090606 eV
  Final Gnorm  =       0.00030674

  Components of energy : 

--------------------------------------------------------------------------------
  Interatomic potentials     =          83.64263664 eV    
  Monopole - monopole (real) =        -155.22482093 eV    
  Monopole - monopole (recip)=        -582.24168555 eV    
  Monopole - monopole (total)=        -737.46650648 eV    
  Dispersion (real+recip)    =          -3.99703621 eV    
--------------------------------------------------------------------------------
  Total lattice energy       =        -657.82090606 eV    
--------------------------------------------------------------------------------
  Total lattice energy       =          -63469.6617 kJ/(mole unit cells)
--------------------------------------------------------------------------------

  Final fractional coordinates of atoms :

--------------------------------------------------------------------------------
   No.  Atomic        x           y          z          Radius
        Label       (Frac)      (Frac)     (Frac)       (Angs) 
--------------------------------------------------------------------------------
     1  Ca    c     0.948594    0.252807    0.250000    0.000000
     2  Ca    c     0.448592    0.752812    0.750001    0.000000
     3  Sr    c     0.948594    0.252807    0.250000    0.000000
     4  Sr    c     0.448592    0.752812    0.750001    0.000000
     5  Ca    c     0.448603    0.752820    0.250001    0.000000
     6  Ca    c     0.948604    0.252800    0.750000    0.000000
     7  Sr    c     0.448603    0.752820    0.250001    0.000000
     8  Sr    c     0.948604    0.252800    0.750000    0.000000
     9  Ti    c     0.948616    0.752814    0.000002    0.000000
    10  Ti    c     0.448621    0.252817    0.000002    0.000000
    11  Ti    c     0.448619    0.252820    0.500001    0.000000
    12  Ti    c     0.948622    0.752813    0.500001    0.000000
    13  O1    c     0.948329    0.752815    0.250000    0.000000
    14  O1    c     0.448330    0.252825    0.749999    0.000000
    15  O2    c     0.198525    0.002935    0.000154    0.000000
    16  O2    c     0.698523    0.002708    0.999851    0.000000
    17  O2    c     0.698503    0.002706    0.500153    0.000000
    18  O2    c     0.198498    0.002931    0.499850    0.000000
    19  O3    c     0.948953    0.752825    0.750004    0.000000
    20  O3    c     0.448952    0.252818    0.250003    0.000000
    21  O4    c     0.698737    0.502690    0.999847    0.000000
    22  O4    c     0.198741    0.502947    0.000155    0.000000
    23  O4    c     0.198765    0.502951    0.499848    0.000000
    24  O4    c     0.698764    0.502690    0.500156    0.000000
    25  O1    s     0.948347    0.752816    0.249998    0.000000
    26  O1    s     0.448347    0.252824    0.749999    0.000000
    27  O2    s     0.198536    0.002932    0.000145    0.000000
    28  O2    s     0.698535    0.002711    0.999860    0.000000
    29  O2    s     0.698508    0.002712    0.500144    0.000000
    30  O2    s     0.198505    0.002926    0.499859    0.000000
    31  O3    s     0.948931    0.752825    0.750004    0.000000
    32  O3    s     0.448930    0.252817    0.250004    0.000000
    33  O4    s     0.698728    0.502697    0.999857    0.000000
    34  O4    s     0.198733    0.502940    0.000145    0.000000
    35  O4    s     0.198757    0.502936    0.499857    0.000000
    36  O4    s     0.698759    0.502706    0.500146    0.000000
--------------------------------------------------------------------------------

  Final internal derivatives :

--------------------------------------------------------------------------------
   No.  Atomic          a             b             c           Radius
        Label          (eV)          (eV)          (eV)        (eV/Angs)
--------------------------------------------------------------------------------
      1 Ca    c      -0.000545     -0.000671      0.000000      0.000000
      2 Ca    c      -0.000437     -0.000063     -0.000057      0.000000
      3 Sr    c       0.000000      0.000000      0.000000      0.000000
      4 Sr    c       0.000000      0.000000      0.000000      0.000000
      5 Ca    c      -0.000039      0.000025      0.000107      0.000000
      6 Ca    c      -0.000150     -0.000703      0.000124      0.000000
      7 Sr    c       0.000000      0.000000      0.000000      0.000000
      8 Sr    c       0.000000      0.000000      0.000000      0.000000
      9 Ti    c      -0.008894     -0.002224      0.000083      0.000000
     10 Ti    c      -0.001468     -0.002882      0.002042      0.000000
     11 Ti    c      -0.003638      0.003765     -0.001786      0.000000
     12 Ti    c       0.002021     -0.001975     -0.001861      0.000000
     13 O1    c      -0.000149     -0.000452      0.001331      0.000000
     14 O1    c       0.000302      0.000810     -0.000081      0.000000
     15 O2    c       0.001662      0.005184      0.000073      0.000000
     16 O2    c      -0.004184     -0.001503     -0.001003      0.000000
     17 O2    c       0.001787      0.004070      0.000199      0.000000
     18 O2    c      -0.002851     -0.005718      0.001023      0.000000
     19 O3    c       0.003696      0.000491      0.002719      0.000000
     20 O3    c       0.004096      0.000571     -0.000299      0.000000
     21 O4    c       0.000225     -0.000585     -0.003175      0.000000
     22 O4    c      -0.003205      0.000777      0.000904      0.000000
     23 O4    c       0.004914      0.005664     -0.000249      0.000000
     24 O4    c       0.001494     -0.004981      0.002091      0.000000
     25 O1    s      -0.002318     -0.000338     -0.003224      0.000000
     26 O1    s      -0.002755      0.000468     -0.002052      0.000000
     27 O2    s       0.000531     -0.002351      0.003661      0.000000
     28 O2    s       0.004980      0.001485     -0.002940      0.000000
     29 O2    s      -0.006853     -0.002287      0.004347      0.000000
     30 O2    s      -0.001305      0.004274     -0.004704      0.000000
     31 O3    s       0.004646      0.000120     -0.000078      0.000000
     32 O3    s       0.003894     -0.000817      0.002512      0.000000
     33 O4    s      -0.000964     -0.007070     -0.001522      0.000000
     34 O4    s       0.003727      0.007840      0.003264      0.000000
     35 O4    s      -0.001376     -0.004141     -0.004068      0.000000
     36 O4    s       0.003161      0.003216      0.002982      0.000000
--------------------------------------------------------------------------------
  Maximum abs         0.008894      0.007840      0.004704      0.000000
--------------------------------------------------------------------------------


  Born effective charge tensors : 

-------------------------------------------------------------------------------
  Atom             x           y             z
-------------------------------------------------------------------------------
   1 Ca    x       0.5862     -0.0000     -0.0000
           y      -0.0000      0.5862     -0.0000
           z      -0.0000     -0.0000      0.5862
-------------------------------------------------------------------------------
   2 Ca    x       0.5862      0.0000     -0.0000
           y       0.0000      0.5862     -0.0000
           z      -0.0000     -0.0000      0.5862
-------------------------------------------------------------------------------
   3 Sr    x       1.7479     -0.0000     -0.0000
           y      -0.0000      1.7479     -0.0000
           z      -0.0000     -0.0000      1.7477
-------------------------------------------------------------------------------
   4 Sr    x       1.7479      0.0000     -0.0000
           y       0.0000      1.7479     -0.0000
           z      -0.0000     -0.0000      1.7477
-------------------------------------------------------------------------------
   5 Ca    x       0.5862      0.0000      0.0000
           y       0.0000      0.5862      0.0000
           z       0.0000      0.0000      0.5862
-------------------------------------------------------------------------------
   6 Ca    x       0.5862     -0.0000      0.0000
           y      -0.0000      0.5862      0.0000
           z       0.0000      0.0000      0.5862
-------------------------------------------------------------------------------
   7 Sr    x       1.7479      0.0000      0.0000
           y       0.0000      1.7479      0.0000
           z       0.0000      0.0000      1.7477
-------------------------------------------------------------------------------
   8 Sr    x       1.7479     -0.0000      0.0000
           y      -0.0000      1.7479      0.0000
           z       0.0000      0.0000      1.7477
-------------------------------------------------------------------------------
   9 Ti    x       3.6767      0.0010      0.0010
           y      -0.0000      3.6767     -0.0000
           z      -0.0011     -0.0000      3.6652
-------------------------------------------------------------------------------
  10 Ti    x       3.6766     -0.0010     -0.0010
           y       0.0000      3.6766     -0.0000
           z       0.0011     -0.0000      3.6655
-------------------------------------------------------------------------------
  11 Ti    x       3.6767     -0.0002      0.0010
           y       0.0009      3.6767      0.0000
           z      -0.0011      0.0000      3.6652
-------------------------------------------------------------------------------
  12 Ti    x       3.6766      0.0002     -0.0010
           y      -0.0009      3.6766      0.0000
           z       0.0011      0.0000      3.6655
-------------------------------------------------------------------------------
  13 O1    x      -1.6652     -0.0002      0.0000
           y       0.0002     -1.6652     -0.0000
           z      -0.0000     -0.0000     -2.6699
-------------------------------------------------------------------------------
  14 O1    x      -1.6653      0.0002      0.0000
           y      -0.0002     -1.6653      0.0000
           z      -0.0000      0.0000     -2.6700
-------------------------------------------------------------------------------
  15 O2    x      -2.1728     -0.5068     -0.0000
           y      -0.5068     -2.1728     -0.0000
           z      -0.0000     -0.0000     -1.6647
-------------------------------------------------------------------------------
  16 O2    x      -2.1727      0.5068      0.0000
           y       0.5068     -2.1727     -0.0000
           z       0.0000     -0.0000     -1.6646
-------------------------------------------------------------------------------
  17 O2    x      -2.1728      0.5069     -0.0000
           y       0.5068     -2.1728     -0.0000
           z      -0.0000      0.0000     -1.6647
-------------------------------------------------------------------------------
  18 O2    x      -2.1728     -0.5068     -0.0000
           y      -0.5068     -2.1728     -0.0000
           z       0.0000      0.0000     -1.6646
-------------------------------------------------------------------------------
  19 O3    x      -1.6652     -0.0002     -0.0000
           y       0.0002     -1.6652      0.0000
           z       0.0000      0.0000     -2.6700
-------------------------------------------------------------------------------
  20 O3    x      -1.6652      0.0002     -0.0000
           y      -0.0002     -1.6652     -0.0000
           z       0.0000     -0.0000     -2.6699
-------------------------------------------------------------------------------
  21 O4    x      -2.1727     -0.5067      0.0000
           y      -0.5067     -2.1727      0.0000
           z      -0.0000     -0.0000     -1.6646
-------------------------------------------------------------------------------
  22 O4    x      -2.1728      0.5068     -0.0000
           y       0.5068     -2.1728      0.0000
           z       0.0000     -0.0000     -1.6646
-------------------------------------------------------------------------------
  23 O4    x      -2.1727      0.5067     -0.0000
           y       0.5067     -2.1727     -0.0000
           z      -0.0000      0.0000     -1.6646
-------------------------------------------------------------------------------
  24 O4    x      -2.1727     -0.5067     -0.0000
           y      -0.5068     -2.1727     -0.0000
           z       0.0000      0.0000     -1.6646
-------------------------------------------------------------------------------




  Elastic Constant Matrix: (Units=GPa)

-------------------------------------------------------------------------------
  Indices      1         2         3         4         5         6    
-------------------------------------------------------------------------------
       1    446.7251   89.3381  140.3346   -0.0000   -0.0000   -0.0000
       2     89.3381  446.7248  140.3345   -0.0000   -0.0000   -0.0000
       3    140.3346  140.3345  397.7700   -0.0000   -0.0000   -0.0000
       4     -0.0000   -0.0000   -0.0000  178.4821   -0.0000   -0.0000
       5     -0.0000   -0.0000   -0.0000   -0.0000  178.4819   -0.0000
       6     -0.0000   -0.0000   -0.0000   -0.0000   -0.0000  127.5808
-------------------------------------------------------------------------------


  Elastic Compliance Matrix: (Units=1/GPa)

-------------------------------------------------------------------------------
  Indices      1         2         3         4         5         6    
-------------------------------------------------------------------------------
       1    0.002543 -0.000255 -0.000807  0.000000  0.000000  0.000000
       2   -0.000255  0.002543 -0.000807  0.000000 -0.000000  0.000000
       3   -0.000807 -0.000807  0.003084  0.000000  0.000000  0.000000
       4    0.000000  0.000000  0.000000  0.005603  0.000000  0.000000
       5    0.000000 -0.000000  0.000000  0.000000  0.005603  0.000000
       6    0.000000  0.000000  0.000000  0.000000  0.000000  0.007838
-------------------------------------------------------------------------------

  Mechanical properties :

-------------------------------------------------------------------------------
  Convention :                    Reuss         Voigt         Hill
-------------------------------------------------------------------------------
  Bulk  Modulus (GPa)     =     225.69150     225.69270     225.69210
  Shear Modulus (GPa)     =     154.18046     158.32313     156.25179
-------------------------------------------------------------------------------
  Velocity S-wave (km/s)  =       5.59315       5.66779       5.63059
  Velocity P-wave (km/s)  =       9.35435       9.41408       9.38426
-------------------------------------------------------------------------------
  Compressibility (1/GPa) =    0.00443083
-------------------------------------------------------------------------------
  Stress axis :                     x             y             z
-------------------------------------------------------------------------------
  Youngs Moduli (GPa)     =     393.22114     393.22089     324.29429
-------------------------------------------------------------------------------
  Poissons Ratio (x)      =                     0.10027       0.26179
  Poissons Ratio (y)      =       0.10027                     0.26179
  Poissons Ratio (z)      =       0.31743       0.31743
-------------------------------------------------------------------------------


  Piezoelectric Strain Matrix: (Units=C/m**2)

-------------------------------------------------------------------------------
  Indices      1         2         3         4         5         6    
-------------------------------------------------------------------------------
       x    -0.06539  -0.01687  -0.02258   0.00001  -0.00078  -0.00612
       y    -0.00623  -0.01970  -0.00671  -0.00077   0.00000  -0.01815
       z    -0.00094  -0.00095  -0.00208  -0.00662  -0.02384   0.00001
-------------------------------------------------------------------------------


  Piezoelectric Stress Matrix: (Units=10**-11 C/N)

-------------------------------------------------------------------------------
  Indices      1         2         3         4         5         6    
-------------------------------------------------------------------------------
       x    -0.01438  -0.00080  -0.00032   0.00000  -0.00044  -0.00480
       y    -0.00054  -0.00431   0.00002  -0.00043   0.00000  -0.01422
       z    -0.00005  -0.00005  -0.00049  -0.00371  -0.01336   0.00001
-------------------------------------------------------------------------------


  Static dielectric constant tensor : 

-------------------------------------------------------------------------------
              x         y         z
-------------------------------------------------------------------------------
       x    23.48587   0.00000   0.00000
       y     0.00000  23.48707   0.00004
       z     0.00000   0.00004  23.20137
--------------------------------------------------------------------------------

  High frequency dielectric constant tensor : 

-------------------------------------------------------------------------------
              x         y         z
-------------------------------------------------------------------------------
       x     2.52685  -0.00000   0.00000
       y    -0.00000   2.52685   0.00000
       z     0.00000   0.00000   2.52476
-------------------------------------------------------------------------------

  Static refractive indices : 

-------------------------------------------------------------------------------
    1 =    4.81678      2 =    4.84622      3 =    4.84635
-------------------------------------------------------------------------------

  High frequency refractive indices : 

-------------------------------------------------------------------------------
    1 =    1.58895      2 =    1.58961      3 =    1.58961
-------------------------------------------------------------------------------


  Phonon Calculation : 

  Number of k points for this configuration =        8

--------------------------------------------------------------------------------
 (Core) Atomic information:
--------------------------------------------------------------------------------
Atom  1(CaSr):
  Mass     =  0.1258E-24 kg
  bbar     =  0.6455E-04 Ang
  sigma_inc     =  0.5362E-09 Ang^2
  Sigma_coh     =  0.5236E-07 Ang^2
  Cartesian  position =   5.18881065    1.38285199    1.93250000  Ang
  Fractional position =   0.94859427    0.25280658    0.25000000
Atom  2(CaSr):
  Mass     =  0.1258E-24 kg
  bbar     =  0.6455E-04 Ang
  sigma_inc     =  0.5362E-09 Ang^2
  Sigma_coh     =  0.5236E-07 Ang^2
  Cartesian  position =   2.45379750    4.11788217    5.79750660  Ang
  Fractional position =   0.44859186    0.75281210    0.75000085
Atom  3(CaSr):
  Mass     =  0.1258E-24 kg
  bbar     =  0.6455E-04 Ang
  sigma_inc     =  0.5362E-09 Ang^2
  Sigma_coh     =  0.5236E-07 Ang^2
  Cartesian  position =   2.45385889    4.11792296    1.93250820  Ang
  Fractional position =   0.44860309    0.75281955    0.25000106
Atom  4(CaSr):
  Mass     =  0.1258E-24 kg
  bbar     =  0.6455E-04 Ang
  sigma_inc     =  0.5362E-09 Ang^2
  Sigma_coh     =  0.5236E-07 Ang^2
  Cartesian  position =   5.18886455    1.38281737    5.79750334  Ang
  Fractional position =   0.94860412    0.25280025    0.75000043
Atom  5(Ti):
  Mass     =  0.7951E-25 kg
  bbar     = -0.3438E-04 Ang
  sigma_inc     =  0.2865E-07 Ang^2
  Sigma_coh     =  0.1485E-07 Ang^2
  Cartesian  position =   5.18893153    4.11789207    0.00001267  Ang
  Fractional position =   0.94861637    0.75281391    0.00000164
Atom  6(Ti):
  Mass     =  0.7951E-25 kg
  bbar     = -0.3438E-04 Ang
  sigma_inc     =  0.2865E-07 Ang^2
  Sigma_coh     =  0.1485E-07 Ang^2
  Cartesian  position =   2.45395954    1.38291098    0.00001631  Ang
  Fractional position =   0.44862149    0.25281736    0.00000211
Atom  7(Ti):
  Mass     =  0.7951E-25 kg
  bbar     = -0.3438E-04 Ang
  sigma_inc     =  0.2865E-07 Ang^2
  Sigma_coh     =  0.1485E-07 Ang^2
  Cartesian  position =   2.45394406    1.38292801    3.86500502  Ang
  Fractional position =   0.44861866    0.25282048    0.50000065
Atom  8(Ti):
  Mass     =  0.7951E-25 kg
  bbar     = -0.3438E-04 Ang
  sigma_inc     =  0.2865E-07 Ang^2
  Sigma_coh     =  0.1485E-07 Ang^2
  Cartesian  position =   5.18896162    4.11788682    3.86500605  Ang
  Fractional position =   0.94862187    0.75281295    0.50000078
Atom  9(O1):
  Mass     =  0.2657E-25 kg
  bbar     =  0.5803E-04 Ang
  sigma_inc     =  0.2987E-11 Ang^2
  Sigma_coh     =  0.4232E-07 Ang^2
  Cartesian  position =   5.18736061    4.11789783    1.93249630  Ang
  Fractional position =   0.94832918    0.75281496    0.24999952
Atom 10(O1):
  Mass     =  0.2657E-25 kg
  bbar     =  0.5803E-04 Ang
  sigma_inc     =  0.2987E-11 Ang^2
  Sigma_coh     =  0.4232E-07 Ang^2
  Cartesian  position =   2.45236687    1.38295496    5.79749571  Ang
  Fractional position =   0.44833032    0.25282540    0.74999944
Atom 11(O2):
  Mass     =  0.2657E-25 kg
  bbar     =  0.5803E-04 Ang
  sigma_inc     =  0.2987E-11 Ang^2
  Sigma_coh     =  0.4232E-07 Ang^2
  Cartesian  position =   1.08592996    0.01605250    0.00118731  Ang
  Fractional position =   0.19852467    0.00293464    0.00015360
Atom 12(O2):
  Mass     =  0.2657E-25 kg
  bbar     =  0.5803E-04 Ang
  sigma_inc     =  0.2987E-11 Ang^2
  Sigma_coh     =  0.4232E-07 Ang^2
  Cartesian  position =   3.82092101    0.01481041    7.72884532  Ang
  Fractional position =   0.69852304    0.00270757    0.99985062
Atom 13(O2):
  Mass     =  0.2657E-25 kg
  bbar     =  0.5803E-04 Ang
  sigma_inc     =  0.2987E-11 Ang^2
  Sigma_coh     =  0.4232E-07 Ang^2
  Cartesian  position =   3.82080991    0.01480149    3.86618241  Ang
  Fractional position =   0.69850273    0.00270594    0.50015296
Atom 14(O2):
  Mass     =  0.2657E-25 kg
  bbar     =  0.5803E-04 Ang
  sigma_inc     =  0.2987E-11 Ang^2
  Sigma_coh     =  0.4232E-07 Ang^2
  Cartesian  position =   1.08578452    0.01603451    3.86384058  Ang
  Fractional position =   0.19849808    0.00293136    0.49985001
Atom 15(O3):
  Mass     =  0.2657E-25 kg
  bbar     =  0.5803E-04 Ang
  sigma_inc     =  0.2987E-11 Ang^2
  Sigma_coh     =  0.4232E-07 Ang^2
  Cartesian  position =   5.19077374    4.11795535    5.79753004  Ang
  Fractional position =   0.94895315    0.75282547    0.75000389
Atom 16(O3):
  Mass     =  0.2657E-25 kg
  bbar     =  0.5803E-04 Ang
  sigma_inc     =  0.2987E-11 Ang^2
  Sigma_coh     =  0.4232E-07 Ang^2
  Cartesian  position =   2.45576915    1.38291237    1.93252664  Ang
  Fractional position =   0.44895231    0.25281762    0.25000345
Atom 17(O4):
  Mass     =  0.2657E-25 kg
  bbar     =  0.5803E-04 Ang
  sigma_inc     =  0.2987E-11 Ang^2
  Sigma_coh     =  0.4232E-07 Ang^2
  Cartesian  position =   3.82209188    2.74971509    7.72881586  Ang
  Fractional position =   0.69873709    0.50269014    0.99984681
Atom 18(O4):
  Mass     =  0.2657E-25 kg
  bbar     =  0.5803E-04 Ang
  sigma_inc     =  0.2987E-11 Ang^2
  Sigma_coh     =  0.4232E-07 Ang^2
  Cartesian  position =   1.08711145    2.75111857    0.00119575  Ang
  Fractional position =   0.19874067    0.50294672    0.00015469
Atom 19(O4):
  Mass     =  0.2657E-25 kg
  bbar     =  0.5803E-04 Ang
  sigma_inc     =  0.2987E-11 Ang^2
  Sigma_coh     =  0.4232E-07 Ang^2
  Cartesian  position =   1.08724593    2.75114192    3.86382649  Ang
  Fractional position =   0.19876525    0.50295099    0.49984819
Atom 20(O4):
  Mass     =  0.2657E-25 kg
  bbar     =  0.5803E-04 Ang
  sigma_inc     =  0.2987E-11 Ang^2
  Sigma_coh     =  0.4232E-07 Ang^2
  Cartesian  position =   3.82223859    2.74971330    3.86620649  Ang
  Fractional position =   0.69876391    0.50268982    0.50015608
--------------------------------------------------------------------------------
  Start of PDF calculation
--------------------------------------------------------------------------------

  PDF information:

  Maximum radius        =  6.000 Ang
  Number density        =  0.086 Ang(^-3)
  (Sum{c_i bbar_i} )^2  =  0.1669E-08

  Using primitive cell parameters   5.4700   5.4700   7.7300
  Testing primitive vectors with x,y,z=-(n+1) to n, n=    2
[width output suppressed by keyword nowidth]
  PDF statistics:

  Maximum width^2  was  0.2437E-01 Ang^2
  Number of pairs      1480
  Angular frequency range used:
   0.163314E+14 to  0.153887E+15 rad/s 
   0.259923E+01 to  0.244919E+02 THz   

  PDF output being written to example46_Cap25Srp75TiO3.pdfs
--------------------------------------------------------------------------------
  End of PDF calculation
--------------------------------------------------------------------------------

--------------------------------------------------------------------------------
  Phonon properties (per mole of unit cells): Temperature =      0.000 K
--------------------------------------------------------------------------------
  Zero point energy            =        1.358636 eV
--------------------------------------------------------------------------------

  Phonon density of states : 

--------------------------------------------------------------------------------
 Frequency (cm-1) Density of States                                             
--------------------------------------------------------------------------------
    0.00000 |                                                              0.000
   12.76501 |                                                              0.000
   25.53002 |                                                              0.000
   38.29504 |                                                              0.000
   51.06005 |                                                              0.000
   63.82506 |                                                              0.000
   76.59007 |************                                                  0.017
   89.35508 |************************************************************  0.083
  102.12010 |************************************                          0.050
  114.88511 |************************                                      0.033
  127.65012 |************                                                  0.017
  140.41513 |************                                                  0.017
  153.18015 |************************                                      0.033
  165.94516 |                                                              0.000
  178.71017 |************************************************              0.067
  191.47518 |************                                                  0.017
  204.24019 |                                                              0.000
  217.00521 |                                                              0.000
  229.77022 |************                                                  0.017
  242.53523 |************************************                          0.050
  255.30024 |************                                                  0.017
  268.06525 |                                                              0.000
  280.83027 |************************************                          0.050
  293.59528 |                                                              0.000
  306.36029 |************                                                  0.017
  319.12530 |************                                                  0.017
  331.89031 |                                                              0.000
  344.65533 |                                                              0.000
  357.42034 |************                                                  0.017
  370.18535 |************************                                      0.033
  382.95036 |************************                                      0.033
  395.71538 |************************                                      0.033
  408.48039 |************                                                  0.017
  421.24540 |                                                              0.000
  434.01041 |************************                                      0.033
  446.77542 |************                                                  0.017
  459.54044 |                                                              0.000
  472.30545 |                                                              0.000
  485.07046 |************                                                  0.017
  497.83547 |************                                                  0.017
  510.60048 |                                                              0.000
  523.36550 |************                                                  0.017
  536.13051 |************                                                  0.017
  548.89552 |************                                                  0.017
  561.66053 |                                                              0.000
  574.42554 |************************************                          0.050
  587.19056 |************************                                      0.033
  599.95557 |************                                                  0.017
  612.72058 |                                                              0.000
  625.48559 |                                                              0.000
  638.25061 |                                                              0.000
  651.01562 |************************                                      0.033
  663.78063 |                                                              0.000
  676.54564 |************************                                      0.033
  689.31065 |                                                              0.000
  702.07567 |                                                              0.000
  714.84068 |                                                              0.000
  727.60569 |                                                              0.000
  740.37070 |                                                              0.000
  753.13571 |                                                              0.000
  765.90073 |                                                              0.000
  778.66574 |                                                              0.000
  791.43075 |************************************                          0.050
  804.19576 |************                                                  0.017
--------------------------------------------------------------------------------



  Time to end of optimisation =       1.8658 seconds


********************************************************************************
*  Output for configuration   2 : CaSr(TiO3)2                                  *
********************************************************************************


  Components of energy : 

--------------------------------------------------------------------------------
  Interatomic potentials     =          82.40857868 eV    
  Monopole - monopole (real) =        -333.31948584 eV    
  Monopole - monopole (recip)=        -400.64827490 eV    
  Monopole - monopole (total)=        -733.96776074 eV    
  Dispersion (real+recip)    =          -3.87599781 eV    
--------------------------------------------------------------------------------
  Total lattice energy       =        -655.43517987 eV    
--------------------------------------------------------------------------------
  Total lattice energy       =          -63239.4756 kJ/(mole unit cells)
--------------------------------------------------------------------------------


  Number of variables =       93

  Maximum number of calculations  =          1000
  Maximum Hessian update interval =            10
  Maximum step size               =   1.000000000
  Maximum parameter tolerance     =   0.000010000
  Maximum function  tolerance     =   0.000010000
  Maximum gradient  tolerance     =   0.001000000
  Maximum gradient  component     =   0.010000000

  Newton-Raphson optimiser to be used

  BFGS hessian update to be used

  Start of bulk optimisation :

  Cycle:      0 Energy:      -655.435180  Gnorm:      0.749131  CPU:    1.876
  ** Hessian calculated **
  Cycle:      1 Energy:      -656.612352  Gnorm:      0.085940  CPU:    1.888
  Cycle:      2 Energy:      -656.673124  Gnorm:      0.051023  CPU:    1.900
  Cycle:      3 Energy:      -656.724075  Gnorm:      0.040804  CPU:    1.911
  Cycle:      4 Energy:      -656.737759  Gnorm:      0.016674  CPU:    1.921
  Cycle:      5 Energy:      -656.739983  Gnorm:      0.010571  CPU:    1.933
  Cycle:      6 Energy:      -656.740230  Gnorm:      0.001698  CPU:    1.944
  Cycle:      7 Energy:      -656.740249  Gnorm:      0.000956  CPU:    1.953


  **** Optimisation achieved ****


  Final energy =    -656.74025397 eV
  Final Gnorm  =       0.00044429

  Components of energy : 

--------------------------------------------------------------------------------
  Interatomic potentials     =          84.72337160 eV    
  Monopole - monopole (real) =        -155.22489986 eV    
  Monopole - monopole (recip)=        -582.24168553 eV    
  Monopole - monopole (total)=        -737.46658538 eV    
  Dispersion (real+recip)    =          -3.99704019 eV    
--------------------------------------------------------------------------------
  Total lattice energy       =        -656.74025397 eV    
--------------------------------------------------------------------------------
  Total lattice energy       =          -63365.3953 kJ/(mole unit cells)
--------------------------------------------------------------------------------

  Final fractional coordinates of atoms :

--------------------------------------------------------------------------------
   No.  Atomic        x           y          z          Radius
        Label       (Frac)      (Frac)     (Frac)       (Angs) 
--------------------------------------------------------------------------------
     1  Ca    c     0.950000    0.263000    0.250000    0.000000
     2  Ca    c     0.450000    0.763101    0.750000    0.000000
     3  Sr    c     0.449969    0.763061    0.250000    0.000000
     4  Sr    c     0.949969    0.263040    0.750000    0.000000
     5  Ti    c     0.949995    0.763046    0.999997    0.000000
     6  Ti    c     0.449995    0.263055    0.000003    0.000000
     7  Ti    c     0.449995    0.263055    0.499997    0.000000
     8  Ti    c     0.949995    0.763046    0.500003    0.000000
     9  O1    c     0.950058    0.763062    0.250000    0.000000
    10  O1    c     0.450058    0.263039    0.750000    0.000000
    11  O2    c     0.199939    0.013110    0.999988    0.000000
    12  O2    c     0.699939    0.012991    0.000012    0.000000
    13  O2    c     0.699939    0.012991    0.499988    0.000000
    14  O2    c     0.199939    0.013110    0.500012    0.000000
    15  O3    c     0.949974    0.763061    0.750000    0.000000
    16  O3    c     0.449974    0.263040    0.250000    0.000000
    17  O4    c     0.700045    0.513002    0.000020    0.000000
    18  O4    c     0.200045    0.513099    0.999980    0.000000
    19  O4    c     0.200045    0.513099    0.500020    0.000000
    20  O4    c     0.700045    0.513002    0.499980    0.000000
    21  O1    s     0.950055    0.763062    0.250000    0.000000
    22  O1    s     0.450055    0.263039    0.750000    0.000000
    23  O2    s     0.199945    0.013104    0.999987    0.000000
    24  O2    s     0.699945    0.012997    0.000013    0.000000
    25  O2    s     0.699945    0.012997    0.499987    0.000000
    26  O2    s     0.199945    0.013104    0.500013    0.000000
    27  O3    s     0.949975    0.763061    0.750000    0.000000
    28  O3    s     0.449975    0.263040    0.250000    0.000000
    29  O4    s     0.700044    0.513005    0.000016    0.000000
    30  O4    s     0.200044    0.513096    0.999984    0.000000
    31  O4    s     0.200044    0.513096    0.500016    0.000000
    32  O4    s     0.700044    0.513005    0.499984    0.000000
--------------------------------------------------------------------------------

  Final internal derivatives :

--------------------------------------------------------------------------------
   No.  Atomic          a             b             c           Radius
        Label          (eV)          (eV)          (eV)        (eV/Angs)
--------------------------------------------------------------------------------
      1 Ca    c       0.000000      0.000000      0.000000      0.000000
      2 Ca    c       0.001212      0.006123     -0.000000      0.000000
      3 Sr    c      -0.000633      0.001917      0.000000      0.000000
      4 Sr    c      -0.000633     -0.001917      0.000000      0.000000
      5 Ti    c      -0.003174      0.004651     -0.008903      0.000000
      6 Ti    c      -0.003174     -0.004651      0.008903      0.000000
      7 Ti    c      -0.003174     -0.004651     -0.008903      0.000000
      8 Ti    c      -0.003174      0.004651      0.008903      0.000000
      9 O1    c      -0.000854      0.003659     -0.000000      0.000000
     10 O1    c      -0.000854     -0.003659     -0.000000      0.000000
     11 O2    c      -0.001446      0.004969      0.006031      0.000000
     12 O2    c      -0.001446     -0.004969     -0.006031      0.000000
     13 O2    c      -0.001446     -0.004969      0.006031      0.000000
     14 O2    c      -0.001446      0.004969     -0.006031      0.000000
     15 O3    c      -0.001136      0.000497     -0.000000      0.000000
     16 O3    c      -0.001136     -0.000497     -0.000000      0.000000
     17 O4    c      -0.001840      0.001162      0.007681      0.000000
     18 O4    c      -0.001840     -0.001162     -0.007681      0.000000
     19 O4    c      -0.001840     -0.001162      0.007681      0.000000
     20 O4    c      -0.001840      0.001162     -0.007681      0.000000
     21 O1    s       0.005784     -0.007205      0.000000      0.000000
     22 O1    s       0.005784      0.007205      0.000000      0.000000
     23 O2    s       0.000605     -0.003908     -0.005415      0.000000
     24 O2    s       0.000605      0.003908      0.005415      0.000000
     25 O2    s       0.000605      0.003908     -0.005415      0.000000
     26 O2    s       0.000605     -0.003908      0.005415      0.000000
     27 O3    s       0.003020     -0.000751      0.000000      0.000000
     28 O3    s       0.003020      0.000751      0.000000      0.000000
     29 O4    s       0.002158     -0.002587     -0.008095      0.000000
     30 O4    s       0.002158      0.002587      0.008095      0.000000
     31 O4    s       0.002158      0.002587     -0.008095      0.000000
     32 O4    s       0.002158     -0.002587      0.008095      0.000000
--------------------------------------------------------------------------------
  Maximum abs         0.005784      0.007205      0.008903      0.000000
--------------------------------------------------------------------------------


  Born effective charge tensors : 

-------------------------------------------------------------------------------
  Atom             x           y             z
-------------------------------------------------------------------------------
   1 Ca    x       2.3427     -0.0001     -0.0000
           y      -0.0001      2.3428     -0.0000
           z       0.0000     -0.0000      2.3426
-------------------------------------------------------------------------------
   2 Ca    x       2.3427      0.0001     -0.0000
           y       0.0001      2.3428     -0.0000
           z       0.0000     -0.0000      2.3426
-------------------------------------------------------------------------------
   3 Sr    x       2.3322      0.0000      0.0000
           y       0.0000      2.3322     -0.0000
           z      -0.0000      0.0000      2.3319
-------------------------------------------------------------------------------
   4 Sr    x       2.3322     -0.0000      0.0000
           y      -0.0000      2.3322     -0.0000
           z      -0.0000      0.0000      2.3319
-------------------------------------------------------------------------------
   5 Ti    x       3.6779      0.0002     -0.0000
           y      -0.0002      3.6779      0.0000
           z       0.0002     -0.0000      3.6666
-------------------------------------------------------------------------------
   6 Ti    x       3.6779     -0.0002      0.0000
           y       0.0002      3.6779      0.0000
           z      -0.0002     -0.0000      3.6666
-------------------------------------------------------------------------------
   7 Ti    x       3.6779     -0.0002     -0.0000
           y       0.0002      3.6779     -0.0000
           z       0.0002      0.0000      3.6666
-------------------------------------------------------------------------------
   8 Ti    x       3.6779      0.0002      0.0000
           y      -0.0002      3.6779     -0.0000
           z      -0.0002      0.0000      3.6666
-------------------------------------------------------------------------------
   9 O1    x      -1.6698     -0.0001      0.0000
           y       0.0001     -1.6612      0.0000
           z      -0.0000     -0.0000     -2.6743
[...]
  18 O2    x      -2.0653      0.4387     -0.0000
           y       0.4245     -2.0868      0.0000
           z      -0.0000     -0.0000     -1.6416
-------------------------------------------------------------------------------
  19 O2    x      -2.0653      0.4387      0.0000
           y       0.4245     -2.0868     -0.0000
           z       0.0000      0.0000     -1.6416
-------------------------------------------------------------------------------
  20 O2    x      -2.0653     -0.4387     -0.0000
           y      -0.4245     -2.0868     -0.0000
           z      -0.0000      0.0000     -1.6416
-------------------------------------------------------------------------------




  Elastic Constant Matrix: (Units=GPa)

-------------------------------------------------------------------------------
  Indices      1         2         3         4         5         6    
-------------------------------------------------------------------------------
       1    478.0635  117.0871  156.7347    0.0000    0.0000    0.0000
       2    117.0871  485.0472  152.4820    0.0000    0.0000    0.0000
       3    156.7347  152.4820  448.1604    0.0000    0.0000    0.0000
       4      0.0000    0.0000    0.0000  180.5488    0.0000    0.0000
       5      0.0000    0.0000    0.0000    0.0000  182.6671    0.0000
       6      0.0000    0.0000    0.0000    0.0000    0.0000  144.3085
-------------------------------------------------------------------------------


  Elastic Compliance Matrix: (Units=1/GPa)

-------------------------------------------------------------------------------
  Indices      1         2         3         4         5         6    
-------------------------------------------------------------------------------
       1    0.002416 -0.000356 -0.000724 -0.000000 -0.000000 -0.000000
       2   -0.000356  0.002361 -0.000679 -0.000000 -0.000000 -0.000000
       3   -0.000724 -0.000679  0.002716 -0.000000 -0.000000 -0.000000
       4   -0.000000 -0.000000 -0.000000  0.005539 -0.000000 -0.000000
       5   -0.000000 -0.000000 -0.000000 -0.000000  0.005474 -0.000000
       6   -0.000000 -0.000000 -0.000000 -0.000000 -0.000000  0.006930
-------------------------------------------------------------------------------

  Mechanical properties :

-------------------------------------------------------------------------------
  Convention :                    Reuss         Voigt         Hill
-------------------------------------------------------------------------------
  Bulk  Modulus (GPa)     =     251.53654     251.54206     251.53930
  Shear Modulus (GPa)     =     165.13759     167.16940     166.15350
-------------------------------------------------------------------------------
  Velocity S-wave (km/s)  =       6.39458       6.43380       6.41422
  Velocity P-wave (km/s)  =      10.80765      10.83870      10.82318
-------------------------------------------------------------------------------
  Compressibility (1/GPa) =    0.00397557
-------------------------------------------------------------------------------
  Stress axis :                     x             y             z
-------------------------------------------------------------------------------
  Youngs Moduli (GPa)     =     413.86379     423.56182     368.25030
-------------------------------------------------------------------------------
  Poissons Ratio (x)      =                     0.15064       0.26662
  Poissons Ratio (y)      =       0.14719                     0.25000
  Poissons Ratio (z)      =       0.29965       0.28756
-------------------------------------------------------------------------------


  Piezoelectric Strain Matrix: (Units=C/m**2)

-------------------------------------------------------------------------------
  Indices      1         2         3         4         5         6    
-------------------------------------------------------------------------------
       x     0.00000   0.00000  -0.00000   0.00000  -0.00000  -0.00000
       y    -0.00000  -0.00000   0.00000  -0.00000   0.00000   0.00000
       z     0.00000   0.00000   0.00000   0.00000   0.00000   0.00000
-------------------------------------------------------------------------------


  Piezoelectric Stress Matrix: (Units=10**-11 C/N)

-------------------------------------------------------------------------------
  Indices      1         2         3         4         5         6    
-------------------------------------------------------------------------------
       x     0.00000   0.00000  -0.00000   0.00000  -0.00000  -0.00000
       y    -0.00000  -0.00000   0.00000  -0.00000   0.00000   0.00000
       z     0.00000   0.00000   0.00000   0.00000   0.00000   0.00000
-------------------------------------------------------------------------------


  Static dielectric constant tensor : 

-------------------------------------------------------------------------------
              x         y         z
-------------------------------------------------------------------------------
       x    16.81756   0.00000  -0.00000
       y     0.00000  19.33869  -0.00000
       z    -0.00000  -0.00000  17.68007
--------------------------------------------------------------------------------

  High frequency dielectric constant tensor : 

-------------------------------------------------------------------------------
              x         y         z
-------------------------------------------------------------------------------
       x     2.54567   0.00000  -0.00000
       y     0.00000   2.54691  -0.00000
       z    -0.00000  -0.00000   2.54176
-------------------------------------------------------------------------------

  Static refractive indices : 

-------------------------------------------------------------------------------
    1 =    4.10092      2 =    4.20477      3 =    4.39758
-------------------------------------------------------------------------------

  High frequency refractive indices : 

-------------------------------------------------------------------------------
    1 =    1.59429      2 =    1.59552      3 =    1.59591
-------------------------------------------------------------------------------


  Phonon Calculation : 

  Number of k points for this configuration =        8

--------------------------------------------------------------------------------
 (Core) Atomic information:
--------------------------------------------------------------------------------
Atom  1(Ca):
  Mass     =  0.6656E-25 kg
  bbar     =  0.4760E-04 Ang
  sigma_inc     =  0.4276E-09 Ang^2
  Sigma_coh     =  0.2847E-07 Ang^2
  Cartesian  position =   5.34085050    0.17958270    1.91000000  Ang
  Fractional position =   0.99300000    0.03300000    0.25000000
Atom  2(Ca):
  Mass     =  0.6656E-25 kg
  bbar     =  0.4760E-04 Ang
  sigma_inc     =  0.4276E-09 Ang^2
  Sigma_coh     =  0.2847E-07 Ang^2
  Cartesian  position =   2.65160050    2.90063553    5.73000000  Ang
  Fractional position =   0.49300000    0.53301890    0.75000000
Atom  3(Ca):
  Mass     =  0.6656E-25 kg
  bbar     =  0.4760E-04 Ang
  sigma_inc     =  0.4276E-09 Ang^2
  Sigma_coh     =  0.2847E-07 Ang^2
  Cartesian  position =   2.65147835    2.90053270    1.91000000  Ang
  Fractional position =   0.49297729    0.53300000    0.25000000
Atom  4(Ca):
  Mass     =  0.6656E-25 kg
  bbar     =  0.4760E-04 Ang
  sigma_inc     =  0.4276E-09 Ang^2
  Sigma_coh     =  0.2847E-07 Ang^2
  Cartesian  position =   5.34072835    0.17968553    5.73000000  Ang
  Fractional position =   0.99297729    0.03301890    0.75000000
Atom  5(Ti):
  Mass     =  0.7951E-25 kg
  bbar     = -0.3438E-04 Ang
  sigma_inc     =  0.2865E-07 Ang^2
  Sigma_coh     =  0.1485E-07 Ang^2
  Cartesian  position =   5.34078943    2.90058412    7.64000000  Ang
  Fractional position =   0.99298864    0.53300945    1.00000000
Atom  6(Ti):
  Mass     =  0.7951E-25 kg
  bbar     = -0.3438E-04 Ang
  sigma_inc     =  0.2865E-07 Ang^2
  Sigma_coh     =  0.1485E-07 Ang^2
  Cartesian  position =   2.65153943    0.17963412    0.00000000  Ang
  Fractional position =   0.49298864    0.03300945    0.00000000
Atom  7(Ti):
  Mass     =  0.7951E-25 kg
  bbar     = -0.3438E-04 Ang
  sigma_inc     =  0.2865E-07 Ang^2
  Sigma_coh     =  0.1485E-07 Ang^2
  Cartesian  position =   2.65153943    0.17963412    3.82000000  Ang
  Fractional position =   0.49298864    0.03300945    0.50000000
Atom  8(Ti):
  Mass     =  0.7951E-25 kg
  bbar     = -0.3438E-04 Ang
  sigma_inc     =  0.2865E-07 Ang^2
  Sigma_coh     =  0.1485E-07 Ang^2
  Cartesian  position =   5.34078943    2.90058412    3.82000000  Ang
  Fractional position =   0.99298864    0.53300945    0.50000000
Atom  9(O1):
  Mass     =  0.2657E-25 kg
  bbar     =  0.5803E-04 Ang
  sigma_inc     =  0.2987E-11 Ang^2
  Sigma_coh     =  0.4232E-07 Ang^2
  Cartesian  position =   5.34057170    2.90054581    1.91000000  Ang
  Fractional position =   0.99294816    0.53300241    0.25000000
Atom 10(O1):
  Mass     =  0.2657E-25 kg
  bbar     =  0.5803E-04 Ang
  sigma_inc     =  0.2987E-11 Ang^2
  Sigma_coh     =  0.4232E-07 Ang^2
  Cartesian  position =   2.65132170    0.17967242    5.73000000  Ang
  Fractional position =   0.49294816    0.03301649    0.75000000
Atom 11(O1):
  Mass     =  0.2657E-25 kg
  bbar     =  0.5803E-04 Ang
  sigma_inc     =  0.2987E-11 Ang^2
  Sigma_coh     =  0.4232E-07 Ang^2
  Cartesian  position =   2.65175716    0.17959581    1.91000000  Ang
  Fractional position =   0.49302913    0.03300241    0.25000000
Atom 12(O1):
  Mass     =  0.2657E-25 kg
  bbar     =  0.5803E-04 Ang
  sigma_inc     =  0.2987E-11 Ang^2
  Sigma_coh     =  0.4232E-07 Ang^2
  Cartesian  position =   5.34100716    2.90062242    5.73000000  Ang
  Fractional position =   0.99302913    0.53301649    0.75000000
Atom 13(O2):
  Mass     =  0.2657E-25 kg
  bbar     =  0.5803E-04 Ang
  sigma_inc     =  0.2987E-11 Ang^2
  Sigma_coh     =  0.4232E-07 Ang^2
  Cartesian  position =   3.99629120    1.53998100    7.63980552  Ang
  Fractional position =   0.74301222    0.28298590    0.99997454
Atom 14(O2):
  Mass     =  0.2657E-25 kg
  bbar     =  0.5803E-04 Ang
  sigma_inc     =  0.2987E-11 Ang^2
  Sigma_coh     =  0.4232E-07 Ang^2
  Cartesian  position =   1.30704120    1.54023724    0.00019448  Ang
  Fractional position =   0.24301222    0.28303299    0.00002546
Atom 15(O2):
  Mass     =  0.2657E-25 kg
  bbar     =  0.5803E-04 Ang
  sigma_inc     =  0.2987E-11 Ang^2
  Sigma_coh     =  0.4232E-07 Ang^2
  Cartesian  position =   3.99603765    4.26093100    3.82019448  Ang
  Fractional position =   0.74296507    0.78298590    0.50002546
Atom 16(O2):
  Mass     =  0.2657E-25 kg
  bbar     =  0.5803E-04 Ang
  sigma_inc     =  0.2987E-11 Ang^2
  Sigma_coh     =  0.4232E-07 Ang^2
  Cartesian  position =   1.30678765    4.26118724    3.81980552  Ang
  Fractional position =   0.24296507    0.78303299    0.49997454
Atom 17(O2):
  Mass     =  0.2657E-25 kg
  bbar     =  0.5803E-04 Ang
  sigma_inc     =  0.2987E-11 Ang^2
  Sigma_coh     =  0.4232E-07 Ang^2
  Cartesian  position =   1.30678765    4.26118724    0.00019448  Ang
  Fractional position =   0.24296507    0.78303299    0.00002546
Atom 18(O2):
  Mass     =  0.2657E-25 kg
  bbar     =  0.5803E-04 Ang
  sigma_inc     =  0.2987E-11 Ang^2
  Sigma_coh     =  0.4232E-07 Ang^2
  Cartesian  position =   3.99603765    4.26093100    7.63980552  Ang
  Fractional position =   0.74296507    0.78298590    0.99997454
Atom 19(O2):
  Mass     =  0.2657E-25 kg
  bbar     =  0.5803E-04 Ang
  sigma_inc     =  0.2987E-11 Ang^2
  Sigma_coh     =  0.4232E-07 Ang^2
  Cartesian  position =   1.30704120    1.54023724    3.81980552  Ang
  Fractional position =   0.24301222    0.28303299    0.49997454
Atom 20(O2):
  Mass     =  0.2657E-25 kg
  bbar     =  0.5803E-04 Ang
  sigma_inc     =  0.2987E-11 Ang^2
  Sigma_coh     =  0.4232E-07 Ang^2
  Cartesian  position =   3.99629120    1.53998100    3.82019448  Ang
  Fractional position =   0.74301222    0.28298590    0.50002546
--------------------------------------------------------------------------------
  Start of PDF calculation
--------------------------------------------------------------------------------

  PDF information:

  Maximum radius        =  6.000 Ang
  Number density        =  0.089 Ang(^-3)
  (Sum{c_i bbar_i} )^2  =  0.1403E-08

  Using primitive cell parameters   5.3785   5.4419   7.6400
  Testing primitive vectors with x,y,z=-(n+1) to n, n=    2
[width output suppressed by keyword nowidth]
  PDF statistics:

  Maximum width^2  was  0.2466E-01 Ang^2
  Number of pairs      1480
  Angular frequency range used:
   0.212015E+14 to  0.160263E+15 rad/s 
   0.337432E+01 to  0.255066E+02 THz   

  PDF output being written to example46_CaTio3.pdfs
--------------------------------------------------------------------------------
  End of PDF calculation
--------------------------------------------------------------------------------

--------------------------------------------------------------------------------
  Phonon properties (per mole of unit cells): Temperature =      0.000 K
--------------------------------------------------------------------------------
  Zero point energy            =        1.452452 eV
--------------------------------------------------------------------------------

  Phonon density of states : 

--------------------------------------------------------------------------------
 Frequency (cm-1) Density of States                                             
--------------------------------------------------------------------------------
    0.00000 |                                                              0.000
   13.29387 |                                                              0.000
   26.58775 |                                                              0.000
   39.88162 |                                                              0.000
   53.17550 |                                                              0.000
   66.46937 |                                                              0.000
   79.76324 |                                                              0.000
   93.05712 |                                                              0.000
  106.35099 |************                                                  0.017
  119.64487 |************                                                  0.017
  132.93874 |************************                                      0.033
  146.23261 |************************************************************  0.083
  159.52649 |************************                                      0.033
  172.82036 |************************************************************  0.083
  186.11424 |************                                                  0.017
  199.40811 |************************************                          0.050
  212.70198 |                                                              0.000
  225.99586 |************                                                  0.017
  239.28973 |                                                              0.000
  252.58361 |************************************                          0.050
  265.87748 |                                                              0.000
  279.17135 |************************                                      0.033
  292.46523 |************************                                      0.033
  305.75910 |************                                                  0.017
  319.05297 |************                                                  0.017
  332.34685 |                                                              0.000
  345.64072 |                                                              0.000
  358.93460 |************                                                  0.017
  372.22847 |************                                                  0.017
  385.52234 |************                                                  0.017
  398.81622 |************************************************              0.067
  412.11009 |************                                                  0.017
  425.40397 |                                                              0.000
  438.69784 |************                                                  0.017
  451.99171 |************************                                      0.033
  465.28559 |                                                              0.000
  478.57946 |                                                              0.000
  491.87334 |                                                              0.000
  505.16721 |************                                                  0.017
  518.46108 |************                                                  0.017
  531.75496 |                                                              0.000
  545.04883 |                                                              0.000
  558.34271 |************************                                      0.033
  571.63658 |                                                              0.000
  584.93045 |                                                              0.000
  598.22433 |************************************                          0.050
  611.51820 |************                                                  0.017
  624.81208 |                                                              0.000
  638.10595 |************                                                  0.017
  651.39982 |************************                                      0.033
  664.69370 |                                                              0.000
  677.98757 |                                                              0.000
  691.28145 |                                                              0.000
  704.57532 |************************                                      0.033
  717.86919 |                                                              0.000
  731.16307 |************************                                      0.033
  744.45694 |                                                              0.000
  757.75082 |                                                              0.000
  771.04469 |                                                              0.000
  784.33856 |                                                              0.000
  797.63244 |                                                              0.000
  810.92631 |************                                                  0.017
  824.22018 |************************                                      0.033
  837.51406 |************                                                  0.017
--------------------------------------------------------------------------------



  Time to end of optimisation =       4.5901 seconds


  Peak dynamic memory used =       1.12 MB 


  Timing analysis for GULP :

--------------------------------------------------------------------------------
  Task / Subroutine                                          Time (Seconds)
--------------------------------------------------------------------------------
  Calculation of reciprocal space energy and derivatives          1.2761
  Calculation of real space energy and derivatives                2.7154
  Calculation of phonons                                          0.8806
  Calculation of matrix inversion                                 0.0125
  Symmetry generation of equivalent positions                     0.0009
  Global summation overhead                                       0.0009
--------------------------------------------------------------------------------
  Total CPU time                                                  4.5902
--------------------------------------------------------------------------------


  Job Finished at 16:08.22 23rd September  2016                               

