
     Program PWSCF v.6.1 (svn rev. 13369) starts on 19Apr2018 at 15:56:23 

     This program is part of the open-source Quantum ESPRESSO suite
     for quantum simulation of materials; please cite
         "P. Giannozzi et al., J. Phys.:Condens. Matter 21 395502 (2009);
          URL http://www.quantum-espresso.org", 
     in publications or presentations arising from this work. More details at
     http://www.quantum-espresso.org/quote

     Parallel version (MPI), running on     8 processors
     R & G space division:  proc/nbgrp/npool/nimage =       8
     Waiting for input...
     Reading input from standard input

     Current dimensions of program PWSCF are:
     Max number of different atomic species (ntypx) = 10
     Max number of k-points (npk) =  40000
     Max angular momentum in pseudopotentials (lmaxx) =  3

     Subspace diagonalization in iterative solution of the eigenvalue problem:
     a serial algorithm will be used

 
     Parallelization info
     --------------------
     sticks:   dense  smooth     PW     G-vecs:    dense   smooth      PW
     Min         175     175     52                 4949     4949     792
     Max         176     176     53                 4952     4952     795
     Sum        1405    1405    421                39607    39607    6355
 


     bravais-lattice index     =            8
     lattice parameter (alat)  =       7.9500  a.u.
     unit-cell volume          =     502.4599 (a.u.)^3
     number of atoms/cell      =            2
     number of atomic types    =            2
     number of electrons       =        16.00
     number of Kohn-Sham states=            8
     kinetic-energy cutoff     =      70.0000  Ry
     charge density cutoff     =     280.0000  Ry
     convergence threshold     =      1.0E-08
     mixing beta               =       0.7000
     number of iterations used =            8  plain     mixing
     Exchange-correlation      = PBE ( 1  4  3  4 0 0)

     celldm(1)=   7.950000  celldm(2)=   1.000000  celldm(3)=   1.000000
     celldm(4)=   0.000000  celldm(5)=   0.000000  celldm(6)=   0.000000

     crystal axes: (cart. coord. in units of alat)
               a(1) = (   1.000000   0.000000   0.000000 )  
               a(2) = (   0.000000   1.000000   0.000000 )  
               a(3) = (   0.000000   0.000000   1.000000 )  

     reciprocal axes: (cart. coord. in units 2 pi/alat)
               b(1) = (  1.000000  0.000000  0.000000 )  
               b(2) = (  0.000000  1.000000  0.000000 )  
               b(3) = (  0.000000  0.000000  1.000000 )  


     PseudoPot. # 1 for Mg read from file:
     ../pseudo/Mg.pbe.UPF
     MD5 check sum: 4c04d8c6e0476e83eaecaf72fa8acc4d
     Pseudo is Norm-conserving, Zval = 10.0
     Generated using ONCVPSP code by D. R. Hamann
     Using radial grid of 1510 points,  4 beta functions with: 
                l(1) =   0
                l(2) =   0
                l(3) =   1
                l(4) =   1

     PseudoPot. # 2 for O  read from file:
     ../pseudo/O.pbe.UPF
     MD5 check sum: 3e3f909f7470e8921608ab6b1f57bbae
     Pseudo is Norm-conserving + core correction, Zval =  6.0
     Generated using ONCVPSP code by D. R. Hamann
     Using radial grid of  936 points,  5 beta functions with: 
                l(1) =   0
                l(2) =   0
                l(3) =   1
                l(4) =   1
                l(5) =   2

     atomic species   valence    mass     pseudopotential
        Mg            10.00    24.30500     Mg( 1.00)
        O              6.00    15.99940     O ( 1.00)

     48 Sym. Ops., with inversion, found



   Cartesian axes

     site n.     atom                  positions (alat units)
         1           Mg  tau(   1) = (   0.0000000   0.0000000   0.0000000  )
         2           O   tau(   2) = (   0.5000000   0.5000000   0.5000000  )

     number of k points=    10
                       cart. coord. in units 2pi/alat
        k(    1) = (   0.0000000   0.0000000   0.0000000), wk =   0.0312500
        k(    2) = (   0.0000000   0.0000000   0.2500000), wk =   0.1875000
        k(    3) = (   0.0000000   0.0000000  -0.5000000), wk =   0.0937500
        k(    4) = (   0.0000000   0.2500000   0.2500000), wk =   0.3750000
        k(    5) = (   0.0000000   0.2500000  -0.5000000), wk =   0.3750000
        k(    6) = (   0.0000000  -0.5000000  -0.5000000), wk =   0.0937500
        k(    7) = (   0.2500000   0.2500000   0.2500000), wk =   0.2500000
        k(    8) = (   0.2500000   0.2500000  -0.5000000), wk =   0.3750000
        k(    9) = (   0.2500000  -0.5000000  -0.5000000), wk =   0.1875000
        k(   10) = (  -0.5000000  -0.5000000  -0.5000000), wk =   0.0312500

     Dense  grid:    39607 G-vectors     FFT dimensions: (  45,  45,  45)

     Estimated max dynamical RAM per process >       4.26MB

     Estimated total allocated dynamical RAM >      34.11MB

     Check: negative/imaginary core charge=   -0.000004    0.000000

     Initial potential from superposition of free atoms

     starting charge   15.99920, renormalised to   16.00000
     Starting wfc are    9 randomized atomic wfcs

     total cpu time spent up to now is        0.2 secs

     per-process dynamical memory:    36.2 Mb

     Self-consistent Calculation

     iteration #  1     ecut=    70.00 Ry     beta=0.70
     Davidson diagonalization with overlap
     ethr =  1.00E-02,  avg # of iterations =  2.0

     total cpu time spent up to now is        0.3 secs

     total energy              =    -150.47633438 Ry
     Harris-Foulkes estimate   =    -151.88802770 Ry
     estimated scf accuracy    <       1.78290021 Ry

     iteration #  2     ecut=    70.00 Ry     beta=0.70
     Davidson diagonalization with overlap
     ethr =  1.00E-02,  avg # of iterations =  5.3

     total cpu time spent up to now is        0.4 secs

     total energy              =    -150.12285402 Ry
     Harris-Foulkes estimate   =    -154.43997295 Ry
     estimated scf accuracy    <      15.26693121 Ry

     iteration #  3     ecut=    70.00 Ry     beta=0.70
     Davidson diagonalization with overlap
     ethr =  1.00E-02,  avg # of iterations =  4.0

     total cpu time spent up to now is        0.6 secs

     total energy              =    -151.48377089 Ry
     Harris-Foulkes estimate   =    -151.35530886 Ry
     estimated scf accuracy    <       0.48298916 Ry

     iteration #  4     ecut=    70.00 Ry     beta=0.70
     Davidson diagonalization with overlap
     ethr =  3.02E-03,  avg # of iterations =  1.8

     total cpu time spent up to now is        0.7 secs

     total energy              =    -151.13848493 Ry
     Harris-Foulkes estimate   =    -151.51153595 Ry
     estimated scf accuracy    <       1.23669747 Ry

     iteration #  5     ecut=    70.00 Ry     beta=0.70
     Davidson diagonalization with overlap
     ethr =  3.02E-03,  avg # of iterations =  2.6

     total cpu time spent up to now is        0.8 secs

     total energy              =    -151.25116293 Ry
     Harris-Foulkes estimate   =    -151.26335068 Ry
     estimated scf accuracy    <       0.08317195 Ry

     iteration #  6     ecut=    70.00 Ry     beta=0.70
     Davidson diagonalization with overlap
     ethr =  5.20E-04,  avg # of iterations =  1.0

     total cpu time spent up to now is        0.8 secs

     total energy              =    -151.24480485 Ry
     Harris-Foulkes estimate   =    -151.25217252 Ry
     estimated scf accuracy    <       0.05248033 Ry

     iteration #  7     ecut=    70.00 Ry     beta=0.70
     Davidson diagonalization with overlap
     ethr =  3.28E-04,  avg # of iterations =  1.2

     total cpu time spent up to now is        0.9 secs

     total energy              =    -151.24472330 Ry
     Harris-Foulkes estimate   =    -151.24583095 Ry
     estimated scf accuracy    <       0.02998758 Ry

     iteration #  8     ecut=    70.00 Ry     beta=0.70
     Davidson diagonalization with overlap
     ethr =  1.87E-04,  avg # of iterations =  1.0

     total cpu time spent up to now is        1.0 secs

     total energy              =    -151.24543928 Ry
     Harris-Foulkes estimate   =    -151.24483299 Ry
     estimated scf accuracy    <       0.02692890 Ry

     iteration #  9     ecut=    70.00 Ry     beta=0.70
     Davidson diagonalization with overlap
     ethr =  1.68E-04,  avg # of iterations =  1.0

     total cpu time spent up to now is        1.1 secs

     total energy              =    -151.23922574 Ry
     Harris-Foulkes estimate   =    -151.24545141 Ry
     estimated scf accuracy    <       0.02761086 Ry

     iteration # 10     ecut=    70.00 Ry     beta=0.70
     Davidson diagonalization with overlap
     ethr =  1.68E-04,  avg # of iterations =  1.1

     total cpu time spent up to now is        1.2 secs

     total energy              =    -151.23344773 Ry
     Harris-Foulkes estimate   =    -151.23981604 Ry
     estimated scf accuracy    <       0.01285589 Ry

     iteration # 11     ecut=    70.00 Ry     beta=0.70
     Davidson diagonalization with overlap
     ethr =  8.03E-05,  avg # of iterations =  2.6

     total cpu time spent up to now is        1.3 secs

     total energy              =    -151.25248729 Ry
     Harris-Foulkes estimate   =    -151.25253472 Ry
     estimated scf accuracy    <       0.00022868 Ry

     iteration # 12     ecut=    70.00 Ry     beta=0.70
     Davidson diagonalization with overlap
     ethr =  1.43E-06,  avg # of iterations =  4.5

     total cpu time spent up to now is        1.4 secs

     total energy              =    -151.37830854 Ry
     Harris-Foulkes estimate   =    -151.40169873 Ry
     estimated scf accuracy    <       0.06735733 Ry

     iteration # 13     ecut=    70.00 Ry     beta=0.70
     Davidson diagonalization with overlap
     ethr =  1.43E-06,  avg # of iterations =  3.6

     total cpu time spent up to now is        1.5 secs

     total energy              =    -151.37766463 Ry
     Harris-Foulkes estimate   =    -151.38177510 Ry
     estimated scf accuracy    <       0.01551143 Ry

     iteration # 14     ecut=    70.00 Ry     beta=0.70
     Davidson diagonalization with overlap
     ethr =  1.43E-06,  avg # of iterations =  3.7

     total cpu time spent up to now is        1.7 secs

     total energy              =    -151.46811656 Ry
     Harris-Foulkes estimate   =    -151.46591678 Ry
     estimated scf accuracy    <       0.09587637 Ry

     iteration # 15     ecut=    70.00 Ry     beta=0.70
     Davidson diagonalization with overlap
     ethr =  1.43E-06,  avg # of iterations =  2.2

     total cpu time spent up to now is        1.8 secs

     total energy              =    -151.46184775 Ry
     Harris-Foulkes estimate   =    -151.46813824 Ry
     estimated scf accuracy    <       0.10264702 Ry

     iteration # 16     ecut=    70.00 Ry     beta=0.70
     Davidson diagonalization with overlap
     ethr =  1.43E-06,  avg # of iterations =  3.3

     total cpu time spent up to now is        1.9 secs

     total energy              =    -151.55809974 Ry
     Harris-Foulkes estimate   =    -151.55842743 Ry
     estimated scf accuracy    <       0.28158152 Ry

     iteration # 17     ecut=    70.00 Ry     beta=0.70
     Davidson diagonalization with overlap
     ethr =  1.43E-06,  avg # of iterations =  1.0

     total cpu time spent up to now is        2.0 secs

     total energy              =    -151.53226601 Ry
     Harris-Foulkes estimate   =    -151.55810036 Ry
     estimated scf accuracy    <       0.28087407 Ry

     iteration # 18     ecut=    70.00 Ry     beta=0.70
     Davidson diagonalization with overlap
     ethr =  1.43E-06,  avg # of iterations =  4.5

     total cpu time spent up to now is        2.1 secs

     total energy              =    -151.58497910 Ry
     Harris-Foulkes estimate   =    -151.57367943 Ry
     estimated scf accuracy    <       0.36770059 Ry

     iteration # 19     ecut=    70.00 Ry     beta=0.70
     Davidson diagonalization with overlap
     ethr =  1.43E-06,  avg # of iterations =  2.8

     total cpu time spent up to now is        2.2 secs

     total energy              =    -151.66292917 Ry
     Harris-Foulkes estimate   =    -151.58523093 Ry
     estimated scf accuracy    <       0.41625793 Ry

     iteration # 20     ecut=    70.00 Ry     beta=0.70
     Davidson diagonalization with overlap
     ethr =  1.43E-06,  avg # of iterations =  4.6

     total cpu time spent up to now is        2.3 secs

     total energy              =    -151.75674691 Ry
     Harris-Foulkes estimate   =    -151.75374716 Ry
     estimated scf accuracy    <       1.17730020 Ry

     iteration # 21     ecut=    70.00 Ry     beta=0.70
     Davidson diagonalization with overlap
     ethr =  1.43E-06,  avg # of iterations =  1.0

     total cpu time spent up to now is        2.4 secs

     total energy              =    -151.73449909 Ry
     Harris-Foulkes estimate   =    -151.75674911 Ry
     estimated scf accuracy    <       1.18406305 Ry

     iteration # 22     ecut=    70.00 Ry     beta=0.70
     Davidson diagonalization with overlap
     ethr =  1.43E-06,  avg # of iterations =  3.8

     total cpu time spent up to now is        2.5 secs

     total energy              =    -151.75256618 Ry
     Harris-Foulkes estimate   =    -151.75829986 Ry
     estimated scf accuracy    <       1.22494630 Ry

     iteration # 23     ecut=    70.00 Ry     beta=0.70
     Davidson diagonalization with overlap
     ethr =  1.43E-06,  avg # of iterations =  2.0

     total cpu time spent up to now is        2.6 secs

     total energy              =    -151.75738947 Ry
     Harris-Foulkes estimate   =    -151.75258185 Ry
     estimated scf accuracy    <       1.20400974 Ry

     iteration # 24     ecut=    70.00 Ry     beta=0.70
     Davidson diagonalization with overlap
     ethr =  1.43E-06,  avg # of iterations =  2.0

     total cpu time spent up to now is        2.7 secs

     total energy              =    -152.32938860 Ry
     Harris-Foulkes estimate   =    -151.75740291 Ry
     estimated scf accuracy    <       1.22241376 Ry

     iteration # 25     ecut=    70.00 Ry     beta=0.70
     Davidson diagonalization with overlap
     ethr =  1.43E-06,  avg # of iterations =  4.4

     total cpu time spent up to now is        2.9 secs

     total energy              =    -152.32080239 Ry
     Harris-Foulkes estimate   =    -152.40647234 Ry
     estimated scf accuracy    <       2.91390042 Ry

     iteration # 26     ecut=    70.00 Ry     beta=0.70
     Davidson diagonalization with overlap
     ethr =  1.43E-06,  avg # of iterations =  3.0

     total cpu time spent up to now is        3.0 secs

     total energy              =    -151.73453814 Ry
     Harris-Foulkes estimate   =    -152.32133973 Ry
     estimated scf accuracy    <       2.72818120 Ry

     iteration # 27     ecut=    70.00 Ry     beta=0.70
     Davidson diagonalization with overlap
     ethr =  1.43E-06,  avg # of iterations =  4.5

     total cpu time spent up to now is        3.2 secs

     total energy              =    -152.17765152 Ry
     Harris-Foulkes estimate   =    -151.77700237 Ry
     estimated scf accuracy    <       1.28114779 Ry

     iteration # 28     ecut=    70.00 Ry     beta=0.70
     Davidson diagonalization with overlap
     ethr =  1.43E-06,  avg # of iterations =  4.0

     total cpu time spent up to now is        3.3 secs

     total energy              =    -151.18555772 Ry
     Harris-Foulkes estimate   =    -152.22049495 Ry
     estimated scf accuracy    <       2.51035595 Ry

     iteration # 29     ecut=    70.00 Ry     beta=0.70
     Davidson diagonalization with overlap
     ethr =  1.43E-06,  avg # of iterations =  6.4

     total cpu time spent up to now is        3.5 secs

     total energy              =    -151.52193552 Ry
     Harris-Foulkes estimate   =    -151.54491836 Ry
     estimated scf accuracy    <       0.13597453 Ry

     iteration # 30     ecut=    70.00 Ry     beta=0.70
     Davidson diagonalization with overlap
     ethr =  1.43E-06,  avg # of iterations =  4.7

     total cpu time spent up to now is        3.6 secs

     total energy              =    -151.52659889 Ry
     Harris-Foulkes estimate   =    -151.53007117 Ry
     estimated scf accuracy    <       0.00814462 Ry

     iteration # 31     ecut=    70.00 Ry     beta=0.70
     Davidson diagonalization with overlap
     ethr =  1.43E-06,  avg # of iterations =  4.5

     total cpu time spent up to now is        3.8 secs

     total energy              =    -151.52508958 Ry
     Harris-Foulkes estimate   =    -151.53118951 Ry
     estimated scf accuracy    <       0.01662172 Ry

     iteration # 32     ecut=    70.00 Ry     beta=0.70
     Davidson diagonalization with overlap
     ethr =  1.43E-06,  avg # of iterations =  4.3

     total cpu time spent up to now is        3.9 secs

     total energy              =    -151.53008504 Ry
     Harris-Foulkes estimate   =    -151.53034966 Ry
     estimated scf accuracy    <       0.00987926 Ry

     iteration # 33     ecut=    70.00 Ry     beta=0.70
     Davidson diagonalization with overlap
     ethr =  1.43E-06,  avg # of iterations =  1.9

     total cpu time spent up to now is        4.0 secs

     total energy              =    -151.52910172 Ry
     Harris-Foulkes estimate   =    -151.53009522 Ry
     estimated scf accuracy    <       0.00818073 Ry

     iteration # 34     ecut=    70.00 Ry     beta=0.70
     Davidson diagonalization with overlap
     ethr =  1.43E-06,  avg # of iterations =  3.4

     total cpu time spent up to now is        4.1 secs

     total energy              =    -151.52896766 Ry
     Harris-Foulkes estimate   =    -151.52935526 Ry
     estimated scf accuracy    <       0.00168337 Ry

     iteration # 35     ecut=    70.00 Ry     beta=0.70
     Davidson diagonalization with overlap
     ethr =  1.43E-06,  avg # of iterations =  3.4

     total cpu time spent up to now is        4.2 secs

     total energy              =    -151.52915413 Ry
     Harris-Foulkes estimate   =    -151.52915825 Ry
     estimated scf accuracy    <       0.00000697 Ry

     iteration # 36     ecut=    70.00 Ry     beta=0.70
     Davidson diagonalization with overlap
     ethr =  4.36E-08,  avg # of iterations =  3.6

     total cpu time spent up to now is        4.3 secs

     total energy              =    -151.52915359 Ry
     Harris-Foulkes estimate   =    -151.52916039 Ry
     estimated scf accuracy    <       0.00002829 Ry

     iteration # 37     ecut=    70.00 Ry     beta=0.70
     Davidson diagonalization with overlap
     ethr =  4.36E-08,  avg # of iterations =  3.4

     total cpu time spent up to now is        4.4 secs

     total energy              =    -151.52915696 Ry
     Harris-Foulkes estimate   =    -151.52915711 Ry
     estimated scf accuracy    <       0.00000035 Ry

     iteration # 38     ecut=    70.00 Ry     beta=0.70
     Davidson diagonalization with overlap
     ethr =  2.16E-09,  avg # of iterations =  3.9

     total cpu time spent up to now is        4.5 secs

     total energy              =    -151.52915704 Ry
     Harris-Foulkes estimate   =    -151.52915712 Ry
     estimated scf accuracy    <       0.00000036 Ry

     iteration # 39     ecut=    70.00 Ry     beta=0.70
     Davidson diagonalization with overlap
     ethr =  2.16E-09,  avg # of iterations =  2.6

     total cpu time spent up to now is        4.6 secs

     End of self-consistent calculation

          k = 0.0000 0.0000 0.0000 (  4945 PWs)   bands (ev):

   -78.7742 -45.4712 -45.4712 -45.4712 -15.6086  -2.4891  -0.9875  -0.9875

          k = 0.0000 0.0000 0.2500 (  4993 PWs)   bands (ev):

   -78.7742 -45.4720 -45.4719 -45.4719 -15.5973  -2.5355  -0.9440  -0.9440

          k = 0.0000 0.0000-0.5000 (  4950 PWs)   bands (ev):

   -78.7742 -45.4712 -45.4712 -45.4711 -15.5860  -2.6092  -0.8991  -0.8991

          k = 0.0000 0.2500 0.2500 (  4963 PWs)   bands (ev):

   -78.7742 -45.4716 -45.4716 -45.4710 -15.5869  -2.3469  -1.2853  -0.9073

          k = 0.0000 0.2500-0.5000 (  4982 PWs)   bands (ev):

   -78.7742 -45.4719 -45.4718 -45.4717 -15.5764  -2.2291  -1.2925  -0.8701

          k = 0.0000-0.5000-0.5000 (  4972 PWs)   bands (ev):

   -78.7742 -45.4717 -45.4717 -45.4712 -15.5667  -1.5817  -1.5817  -0.8401

          k = 0.2500 0.2500 0.2500 (  4953 PWs)   bands (ev):

   -78.7742 -45.4715 -45.4712 -45.4712 -15.5771  -2.1054  -1.1900  -1.1900

          k = 0.2500 0.2500-0.5000 (  4982 PWs)   bands (ev):

   -78.7742 -45.4724 -45.4716 -45.4715 -15.5672  -1.9025  -1.2703  -1.0890

          k = 0.2500-0.5000-0.5000 (  4972 PWs)   bands (ev):

   -78.7742 -45.4722 -45.4715 -45.4715 -15.5580  -1.4370  -1.4370  -1.0695

          k =-0.5000-0.5000-0.5000 (  4896 PWs)   bands (ev):

   -78.7742 -45.4704 -45.4704 -45.4704 -15.5492  -1.2749  -1.2749  -1.2749

     highest occupied level (ev):    -0.8401

!    total energy              =    -151.52915707 Ry
     Harris-Foulkes estimate   =    -151.52915707 Ry
     estimated scf accuracy    <          3.2E-09 Ry

     The total energy is the sum of the following terms:

     one-electron contribution =    -129.10939916 Ry
     hartree contribution      =      61.83987730 Ry
     xc contribution           =     -23.61752532 Ry
     ewald contribution        =     -60.64210989 Ry

     convergence has been achieved in  39 iterations

     Forces acting on atoms (cartesian axes, Ry/au):

     atom    1 type  1   force =     0.00000000    0.00000000    0.00000000
     atom    2 type  2   force =     0.00000000    0.00000000    0.00000000

     Total force =     0.000000     Total SCF correction =     0.000000


     Computing stress (Cartesian axis) and pressure

          total   stress  (Ry/bohr**3)                   (kbar)     P= -122.01
  -0.00082938   0.00000000   0.00000000       -122.01      0.00      0.00
   0.00000000  -0.00082938   0.00000000          0.00   -122.01      0.00
   0.00000000   0.00000000  -0.00082938          0.00      0.00   -122.01


     Writing output data file diamond.7.9500.70.4.save
 
     init_run     :      0.09s CPU      0.09s WALL (       1 calls)
     electrons    :      4.33s CPU      4.46s WALL (       1 calls)
     forces       :      0.02s CPU      0.02s WALL (       1 calls)
     stress       :      0.05s CPU      0.06s WALL (       1 calls)

     Called by init_run:
     wfcinit      :      0.04s CPU      0.04s WALL (       1 calls)
     potinit      :      0.01s CPU      0.01s WALL (       1 calls)

     Called by electrons:
     c_bands      :      3.50s CPU      3.62s WALL (      39 calls)
     sum_band     :      0.59s CPU      0.59s WALL (      39 calls)
     v_of_rho     :      0.19s CPU      0.19s WALL (      40 calls)
     mix_rho      :      0.05s CPU      0.05s WALL (      39 calls)

     Called by c_bands:
     init_us_2    :      0.13s CPU      0.12s WALL (     810 calls)
     cegterg      :      3.22s CPU      3.33s WALL (     390 calls)

     Called by sum_band:

     Called by *egterg:
     h_psi        :      2.75s CPU      2.85s WALL (    1606 calls)
     g_psi        :      0.01s CPU      0.01s WALL (    1206 calls)
     cdiaghg      :      0.23s CPU      0.24s WALL (    1596 calls)

     Called by h_psi:
     h_psi:pot    :      2.74s CPU      2.84s WALL (    1606 calls)
     h_psi:calbec :      0.10s CPU      0.09s WALL (    1606 calls)
     vloc_psi     :      2.61s CPU      2.70s WALL (    1606 calls)
     add_vuspsi   :      0.02s CPU      0.04s WALL (    1606 calls)

     General routines
     calbec       :      0.10s CPU      0.09s WALL (    1656 calls)
     fft          :      0.10s CPU      0.10s WALL (     464 calls)
     fftw         :      2.98s CPU      2.96s WALL (   20400 calls)
     davcio       :      0.00s CPU      0.00s WALL (      10 calls)
 
     Parallel routines
     fft_scatter  :      0.52s CPU      0.60s WALL (   20864 calls)
 
     PWSCF        :     4.62s CPU         4.78s WALL

 
   This run was terminated on:  15:56:28  19Apr2018            

=------------------------------------------------------------------------------=
   JOB DONE.
=------------------------------------------------------------------------------=
