
     Program PWSCF v.6.1 (svn rev. 13369) starts on 19Apr2018 at 18:11:48 

     This program is part of the open-source Quantum ESPRESSO suite
     for quantum simulation of materials; please cite
         "P. Giannozzi et al., J. Phys.:Condens. Matter 21 395502 (2009);
          URL http://www.quantum-espresso.org", 
     in publications or presentations arising from this work. More details at
     http://www.quantum-espresso.org/quote

     Parallel version (MPI), running on     8 processors
     R & G space division:  proc/nbgrp/npool/nimage =       8
     Waiting for input...
     Reading input from standard input

     Current dimensions of program PWSCF are:
     Max number of different atomic species (ntypx) = 10
     Max number of k-points (npk) =  40000
     Max angular momentum in pseudopotentials (lmaxx) =  3

     Subspace diagonalization in iterative solution of the eigenvalue problem:
     a serial algorithm will be used

 
     Parallelization info
     --------------------
     sticks:   dense  smooth     PW     G-vecs:    dense   smooth      PW
     Min          76      76     23                 1260     1260     209
     Max          77      77     24                 1261     1261     212
     Sum         613     613    187                10081    10081    1687
 


     bravais-lattice index     =            2
     lattice parameter (alat)  =       7.9880  a.u.
     unit-cell volume          =     127.4249 (a.u.)^3
     number of atoms/cell      =            2
     number of atomic types    =            2
     number of electrons       =        16.00
     number of Kohn-Sham states=            8
     kinetic-energy cutoff     =      70.0000  Ry
     charge density cutoff     =     280.0000  Ry
     convergence threshold     =      1.0E-08
     mixing beta               =       0.7000
     number of iterations used =            8  plain     mixing
     Exchange-correlation      = PBE ( 1  4  3  4 0 0)

     celldm(1)=   7.988000  celldm(2)=   0.000000  celldm(3)=   0.000000
     celldm(4)=   0.000000  celldm(5)=   0.000000  celldm(6)=   0.000000

     crystal axes: (cart. coord. in units of alat)
               a(1) = (  -0.500000   0.000000   0.500000 )  
               a(2) = (   0.000000   0.500000   0.500000 )  
               a(3) = (  -0.500000   0.500000   0.000000 )  

     reciprocal axes: (cart. coord. in units 2 pi/alat)
               b(1) = ( -1.000000 -1.000000  1.000000 )  
               b(2) = (  1.000000  1.000000  1.000000 )  
               b(3) = ( -1.000000  1.000000 -1.000000 )  


     PseudoPot. # 1 for Mg read from file:
     ../pseudo/Mg.pbe.UPF
     MD5 check sum: 4c04d8c6e0476e83eaecaf72fa8acc4d
     Pseudo is Norm-conserving, Zval = 10.0
     Generated using ONCVPSP code by D. R. Hamann
     Using radial grid of 1510 points,  4 beta functions with: 
                l(1) =   0
                l(2) =   0
                l(3) =   1
                l(4) =   1

     PseudoPot. # 2 for O  read from file:
     ../pseudo/O.pbe.UPF
     MD5 check sum: 3e3f909f7470e8921608ab6b1f57bbae
     Pseudo is Norm-conserving + core correction, Zval =  6.0
     Generated using ONCVPSP code by D. R. Hamann
     Using radial grid of  936 points,  5 beta functions with: 
                l(1) =   0
                l(2) =   0
                l(3) =   1
                l(4) =   1
                l(5) =   2

     atomic species   valence    mass     pseudopotential
        Mg            10.00    24.30500     Mg( 1.00)
        O              6.00    15.99940     O ( 1.00)

     48 Sym. Ops., with inversion, found



   Cartesian axes

     site n.     atom                  positions (alat units)
         1           Mg  tau(   1) = (   0.0000000   0.0000000   0.0000000  )
         2           O   tau(   2) = (   0.5000000   0.5000000   0.5000000  )

     number of k points=     8
                       cart. coord. in units 2pi/alat
        k(    1) = (   0.0000000   0.0000000   0.0000000), wk =   0.0312500
        k(    2) = (  -0.2500000   0.2500000  -0.2500000), wk =   0.2500000
        k(    3) = (   0.5000000  -0.5000000   0.5000000), wk =   0.1250000
        k(    4) = (   0.0000000   0.5000000   0.0000000), wk =   0.1875000
        k(    5) = (   0.7500000  -0.2500000   0.7500000), wk =   0.7500000
        k(    6) = (   0.5000000   0.0000000   0.5000000), wk =   0.3750000
        k(    7) = (   0.0000000  -1.0000000   0.0000000), wk =   0.0937500
        k(    8) = (  -0.5000000  -1.0000000   0.0000000), wk =   0.1875000

     Dense  grid:    10081 G-vectors     FFT dimensions: (  32,  32,  32)

     Estimated max dynamical RAM per process >       1.14MB

     Estimated total allocated dynamical RAM >       9.11MB

     Check: negative/imaginary core charge=   -0.000007    0.000000

     Initial potential from superposition of free atoms

     starting charge   15.99920, renormalised to   16.00000
     Starting wfc are    9 randomized atomic wfcs

     total cpu time spent up to now is        0.1 secs

     per-process dynamical memory:    31.8 Mb

     Self-consistent Calculation

     iteration #  1     ecut=    70.00 Ry     beta=0.70
     Davidson diagonalization with overlap
     ethr =  1.00E-02,  avg # of iterations =  2.0

     total cpu time spent up to now is        0.2 secs

     total energy              =    -151.93116454 Ry
     Harris-Foulkes estimate   =    -152.21036399 Ry
     estimated scf accuracy    <       0.38836146 Ry

     iteration #  2     ecut=    70.00 Ry     beta=0.70
     Davidson diagonalization with overlap
     ethr =  2.43E-03,  avg # of iterations =  2.4

     total cpu time spent up to now is        0.2 secs

     total energy              =    -152.02989149 Ry
     Harris-Foulkes estimate   =    -152.19420992 Ry
     estimated scf accuracy    <       0.33733240 Ry

     iteration #  3     ecut=    70.00 Ry     beta=0.70
     Davidson diagonalization with overlap
     ethr =  2.11E-03,  avg # of iterations =  2.0

     total cpu time spent up to now is        0.2 secs

     total energy              =    -152.09649975 Ry
     Harris-Foulkes estimate   =    -152.09662901 Ry
     estimated scf accuracy    <       0.00158088 Ry

     iteration #  4     ecut=    70.00 Ry     beta=0.70
     Davidson diagonalization with overlap
     ethr =  9.88E-06,  avg # of iterations =  2.0

     total cpu time spent up to now is        0.2 secs

     total energy              =    -152.09682735 Ry
     Harris-Foulkes estimate   =    -152.09683675 Ry
     estimated scf accuracy    <       0.00002460 Ry

     iteration #  5     ecut=    70.00 Ry     beta=0.70
     Davidson diagonalization with overlap
     ethr =  1.54E-07,  avg # of iterations =  1.1

     total cpu time spent up to now is        0.2 secs

     total energy              =    -152.09682891 Ry
     Harris-Foulkes estimate   =    -152.09682861 Ry
     estimated scf accuracy    <       0.00000269 Ry

     iteration #  6     ecut=    70.00 Ry     beta=0.70
     Davidson diagonalization with overlap
     ethr =  1.68E-08,  avg # of iterations =  2.0

     total cpu time spent up to now is        0.3 secs

     total energy              =    -152.09682936 Ry
     Harris-Foulkes estimate   =    -152.09682949 Ry
     estimated scf accuracy    <       0.00000030 Ry

     iteration #  7     ecut=    70.00 Ry     beta=0.70
     Davidson diagonalization with overlap
     ethr =  1.87E-09,  avg # of iterations =  2.0

     total cpu time spent up to now is        0.3 secs

     total energy              =    -152.09682937 Ry
     Harris-Foulkes estimate   =    -152.09682939 Ry
     estimated scf accuracy    <       0.00000005 Ry

     iteration #  8     ecut=    70.00 Ry     beta=0.70
     Davidson diagonalization with overlap
     ethr =  2.86E-10,  avg # of iterations =  2.0

     total cpu time spent up to now is        0.3 secs

     End of self-consistent calculation

          k = 0.0000 0.0000 0.0000 (  1243 PWs)   bands (ev):

   -64.5101 -31.2426 -31.2426 -31.2426  -9.1997   7.9409   7.9409   7.9409

          k =-0.2500 0.2500-0.2500 (  1260 PWs)   bands (ev):

   -64.5060 -31.2846 -31.2472 -31.2472  -8.6072   5.3169   7.6135   7.6135

          k = 0.5000-0.5000 0.5000 (  1260 PWs)   bands (ev):

   -64.5020 -31.3235 -31.2527 -31.2527  -7.9087   3.3914   7.3119   7.3119

          k = 0.0000 0.5000 0.0000 (  1283 PWs)   bands (ev):

   -64.5047 -31.2814 -31.2592 -31.2592  -8.4513   5.3490   7.2194   7.2194

          k = 0.7500-0.2500 0.7500 (  1247 PWs)   bands (ev):

   -64.5006 -31.3057 -31.2719 -31.2618  -7.8077   4.1913   6.0688   6.9481

          k = 0.5000 0.0000 0.5000 (  1264 PWs)   bands (ev):

   -64.5020 -31.3004 -31.2751 -31.2525  -7.9898   4.4957   5.9881   7.3111

          k = 0.0000-1.0000 0.0000 (  1266 PWs)   bands (ev):

   -64.4993 -31.3122 -31.2721 -31.2721  -7.6874   3.9412   6.6186   6.6186

          k =-0.5000-1.0000 0.0000 (  1232 PWs)   bands (ev):

   -64.4993 -31.2901 -31.2901 -31.2709  -7.6260   5.0497   5.0497   6.2030

     highest occupied level (ev):     7.9409

!    total energy              =    -152.09682938 Ry
     Harris-Foulkes estimate   =    -152.09682938 Ry
     estimated scf accuracy    <          2.3E-09 Ry

     The total energy is the sum of the following terms:

     one-electron contribution =     -74.86001310 Ry
     hartree contribution      =      41.67877749 Ry
     xc contribution           =     -24.48529979 Ry
     ewald contribution        =     -94.43029397 Ry

     convergence has been achieved in   8 iterations

     Forces acting on atoms (cartesian axes, Ry/au):

     atom    1 type  1   force =    -0.00000000    0.00000000   -0.00000000
     atom    2 type  2   force =    -0.00000000   -0.00000000   -0.00000000

     Total force =     0.000000     Total SCF correction =     0.000000


     Computing stress (Cartesian axis) and pressure

          total   stress  (Ry/bohr**3)                   (kbar)     P=  -39.93
  -0.00027143  -0.00000000  -0.00000000        -39.93     -0.00     -0.00
  -0.00000000  -0.00027143   0.00000000         -0.00    -39.93      0.00
  -0.00000000   0.00000000  -0.00027143         -0.00      0.00    -39.93


     Writing output data file diamond.7.988.70.4.save
 
     init_run     :      0.02s CPU      0.03s WALL (       1 calls)
     electrons    :      0.16s CPU      0.17s WALL (       1 calls)
     forces       :      0.01s CPU      0.01s WALL (       1 calls)
     stress       :      0.01s CPU      0.01s WALL (       1 calls)

     Called by init_run:
     wfcinit      :      0.01s CPU      0.01s WALL (       1 calls)
     potinit      :      0.00s CPU      0.00s WALL (       1 calls)

     Called by electrons:
     c_bands      :      0.13s CPU      0.13s WALL (       8 calls)
     sum_band     :      0.02s CPU      0.02s WALL (       8 calls)
     v_of_rho     :      0.01s CPU      0.01s WALL (       9 calls)
     mix_rho      :      0.00s CPU      0.00s WALL (       8 calls)

     Called by c_bands:
     init_us_2    :      0.00s CPU      0.00s WALL (     152 calls)
     cegterg      :      0.12s CPU      0.12s WALL (      64 calls)

     Called by sum_band:

     Called by *egterg:
     h_psi        :      0.09s CPU      0.09s WALL (     196 calls)
     g_psi        :      0.00s CPU      0.00s WALL (     124 calls)
     cdiaghg      :      0.02s CPU      0.02s WALL (     188 calls)

     Called by h_psi:
     h_psi:pot    :      0.09s CPU      0.09s WALL (     196 calls)
     h_psi:calbec :      0.01s CPU      0.01s WALL (     196 calls)
     vloc_psi     :      0.08s CPU      0.08s WALL (     196 calls)
     add_vuspsi   :      0.00s CPU      0.00s WALL (     196 calls)

     General routines
     calbec       :      0.01s CPU      0.01s WALL (     236 calls)
     fft          :      0.00s CPU      0.01s WALL (     123 calls)
     fftw         :      0.08s CPU      0.09s WALL (    3232 calls)
     davcio       :      0.00s CPU      0.00s WALL (       8 calls)
 
     Parallel routines
     fft_scatter  :      0.05s CPU      0.04s WALL (    3355 calls)
 
     PWSCF        :     0.34s CPU         0.38s WALL

 
   This run was terminated on:  18:11:48  19Apr2018            

=------------------------------------------------------------------------------=
   JOB DONE.
=------------------------------------------------------------------------------=
