
     Program PWSCF v.6.1 (svn rev. 13369) starts on 19Apr2018 at 15: 5: 9 

     This program is part of the open-source Quantum ESPRESSO suite
     for quantum simulation of materials; please cite
         "P. Giannozzi et al., J. Phys.:Condens. Matter 21 395502 (2009);
          URL http://www.quantum-espresso.org", 
     in publications or presentations arising from this work. More details at
     http://www.quantum-espresso.org/quote

     Parallel version (MPI), running on     8 processors
     R & G space division:  proc/nbgrp/npool/nimage =       8
     Waiting for input...
     Reading input from standard input

     Current dimensions of program PWSCF are:
     Max number of different atomic species (ntypx) = 10
     Max number of k-points (npk) =  40000
     Max angular momentum in pseudopotentials (lmaxx) =  3

     Subspace diagonalization in iterative solution of the eigenvalue problem:
     a serial algorithm will be used

 
     Parallelization info
     --------------------
     sticks:   dense  smooth     PW     G-vecs:    dense   smooth      PW
     Min         166     166     48                 4556     4556     716
     Max         167     167     49                 4557     4557     719
     Sum        1329    1329    385                36449    36449    5743
 


     bravais-lattice index     =            8
     lattice parameter (alat)  =       7.7400  a.u.
     unit-cell volume          =     463.6848 (a.u.)^3
     number of atoms/cell      =            2
     number of atomic types    =            2
     number of electrons       =        16.00
     number of Kohn-Sham states=            8
     kinetic-energy cutoff     =      70.0000  Ry
     charge density cutoff     =     280.0000  Ry
     convergence threshold     =      1.0E-08
     mixing beta               =       0.7000
     number of iterations used =            8  plain     mixing
     Exchange-correlation      = PBE ( 1  4  3  4 0 0)

     celldm(1)=   7.740000  celldm(2)=   1.000000  celldm(3)=   1.000000
     celldm(4)=   0.000000  celldm(5)=   0.000000  celldm(6)=   0.000000

     crystal axes: (cart. coord. in units of alat)
               a(1) = (   1.000000   0.000000   0.000000 )  
               a(2) = (   0.000000   1.000000   0.000000 )  
               a(3) = (   0.000000   0.000000   1.000000 )  

     reciprocal axes: (cart. coord. in units 2 pi/alat)
               b(1) = (  1.000000  0.000000  0.000000 )  
               b(2) = (  0.000000  1.000000  0.000000 )  
               b(3) = (  0.000000  0.000000  1.000000 )  


     PseudoPot. # 1 for Mg read from file:
     ../pseudo/Mg.pbe.UPF
     MD5 check sum: 4c04d8c6e0476e83eaecaf72fa8acc4d
     Pseudo is Norm-conserving, Zval = 10.0
     Generated using ONCVPSP code by D. R. Hamann
     Using radial grid of 1510 points,  4 beta functions with: 
                l(1) =   0
                l(2) =   0
                l(3) =   1
                l(4) =   1

     PseudoPot. # 2 for O  read from file:
     ../pseudo/O.pbe.UPF
     MD5 check sum: 3e3f909f7470e8921608ab6b1f57bbae
     Pseudo is Norm-conserving + core correction, Zval =  6.0
     Generated using ONCVPSP code by D. R. Hamann
     Using radial grid of  936 points,  5 beta functions with: 
                l(1) =   0
                l(2) =   0
                l(3) =   1
                l(4) =   1
                l(5) =   2

     atomic species   valence    mass     pseudopotential
        Mg            10.00    24.30500     Mg( 1.00)
        O              6.00    15.99940     O ( 1.00)

     48 Sym. Ops., with inversion, found



   Cartesian axes

     site n.     atom                  positions (alat units)
         1           Mg  tau(   1) = (   0.0000000   0.0000000   0.0000000  )
         2           O   tau(   2) = (   0.5000000   0.5000000   0.5000000  )

     number of k points=    10
                       cart. coord. in units 2pi/alat
        k(    1) = (   0.0000000   0.0000000   0.0000000), wk =   0.0312500
        k(    2) = (   0.0000000   0.0000000   0.2500000), wk =   0.1875000
        k(    3) = (   0.0000000   0.0000000  -0.5000000), wk =   0.0937500
        k(    4) = (   0.0000000   0.2500000   0.2500000), wk =   0.3750000
        k(    5) = (   0.0000000   0.2500000  -0.5000000), wk =   0.3750000
        k(    6) = (   0.0000000  -0.5000000  -0.5000000), wk =   0.0937500
        k(    7) = (   0.2500000   0.2500000   0.2500000), wk =   0.2500000
        k(    8) = (   0.2500000   0.2500000  -0.5000000), wk =   0.3750000
        k(    9) = (   0.2500000  -0.5000000  -0.5000000), wk =   0.1875000
        k(   10) = (  -0.5000000  -0.5000000  -0.5000000), wk =   0.0312500

     Dense  grid:    36449 G-vectors     FFT dimensions: (  45,  45,  45)

     Estimated max dynamical RAM per process >       4.00MB

     Estimated total allocated dynamical RAM >      31.97MB

     Check: negative/imaginary core charge=   -0.000004    0.000000

     Initial potential from superposition of free atoms

     starting charge   15.99920, renormalised to   16.00000
     Starting wfc are    9 randomized atomic wfcs

     total cpu time spent up to now is        0.2 secs

     per-process dynamical memory:    30.1 Mb

     Self-consistent Calculation

     iteration #  1     ecut=    70.00 Ry     beta=0.70
     Davidson diagonalization with overlap
     ethr =  1.00E-02,  avg # of iterations =  1.9

     total cpu time spent up to now is        0.3 secs

     total energy              =    -150.56306569 Ry
     Harris-Foulkes estimate   =    -151.89473342 Ry
     estimated scf accuracy    <       1.68756639 Ry

     iteration #  2     ecut=    70.00 Ry     beta=0.70
     Davidson diagonalization with overlap
     ethr =  1.00E-02,  avg # of iterations =  5.1

     total cpu time spent up to now is        0.4 secs

     total energy              =    -150.17753062 Ry
     Harris-Foulkes estimate   =    -154.13236828 Ry
     estimated scf accuracy    <      13.80754552 Ry

     iteration #  3     ecut=    70.00 Ry     beta=0.70
     Davidson diagonalization with overlap
     ethr =  1.00E-02,  avg # of iterations =  4.1

     total cpu time spent up to now is        0.6 secs

     total energy              =    -151.48477839 Ry
     Harris-Foulkes estimate   =    -151.39209176 Ry
     estimated scf accuracy    <       0.31191380 Ry

     iteration #  4     ecut=    70.00 Ry     beta=0.70
     Davidson diagonalization with overlap
     ethr =  1.95E-03,  avg # of iterations =  2.1

     total cpu time spent up to now is        0.7 secs

     total energy              =    -151.26728604 Ry
     Harris-Foulkes estimate   =    -151.50711481 Ry
     estimated scf accuracy    <       0.87267827 Ry

     iteration #  5     ecut=    70.00 Ry     beta=0.70
     Davidson diagonalization with overlap
     ethr =  1.95E-03,  avg # of iterations =  2.5

     total cpu time spent up to now is        0.8 secs

     total energy              =    -151.32553660 Ry
     Harris-Foulkes estimate   =    -151.34137418 Ry
     estimated scf accuracy    <       0.07842378 Ry

     iteration #  6     ecut=    70.00 Ry     beta=0.70
     Davidson diagonalization with overlap
     ethr =  4.90E-04,  avg # of iterations =  1.3

     total cpu time spent up to now is        0.8 secs

     total energy              =    -151.31965218 Ry
     Harris-Foulkes estimate   =    -151.32788323 Ry
     estimated scf accuracy    <       0.03178698 Ry

     iteration #  7     ecut=    70.00 Ry     beta=0.70
     Davidson diagonalization with overlap
     ethr =  1.99E-04,  avg # of iterations =  2.0

     total cpu time spent up to now is        0.9 secs

     total energy              =    -151.32093494 Ry
     Harris-Foulkes estimate   =    -151.32173077 Ry
     estimated scf accuracy    <       0.00779267 Ry

     iteration #  8     ecut=    70.00 Ry     beta=0.70
     Davidson diagonalization with overlap
     ethr =  4.87E-05,  avg # of iterations =  1.0

     total cpu time spent up to now is        1.0 secs

     total energy              =    -151.32060225 Ry
     Harris-Foulkes estimate   =    -151.32099562 Ry
     estimated scf accuracy    <       0.00593436 Ry

     iteration #  9     ecut=    70.00 Ry     beta=0.70
     Davidson diagonalization with overlap
     ethr =  3.71E-05,  avg # of iterations =  1.0

     total cpu time spent up to now is        1.1 secs

     total energy              =    -151.31907981 Ry
     Harris-Foulkes estimate   =    -151.32063208 Ry
     estimated scf accuracy    <       0.00479999 Ry

     iteration # 10     ecut=    70.00 Ry     beta=0.70
     Davidson diagonalization with overlap
     ethr =  3.00E-05,  avg # of iterations =  2.0

     total cpu time spent up to now is        1.2 secs

     total energy              =    -151.31896915 Ry
     Harris-Foulkes estimate   =    -151.31940088 Ry
     estimated scf accuracy    <       0.00098958 Ry

     iteration # 11     ecut=    70.00 Ry     beta=0.70
     Davidson diagonalization with overlap
     ethr =  6.18E-06,  avg # of iterations =  2.1

     total cpu time spent up to now is        1.3 secs

     total energy              =    -151.31902316 Ry
     Harris-Foulkes estimate   =    -151.31908010 Ry
     estimated scf accuracy    <       0.00012553 Ry

     iteration # 12     ecut=    70.00 Ry     beta=0.70
     Davidson diagonalization with overlap
     ethr =  7.85E-07,  avg # of iterations =  4.8

     total cpu time spent up to now is        1.4 secs

     total energy              =    -151.43382826 Ry
     Harris-Foulkes estimate   =    -151.45410028 Ry
     estimated scf accuracy    <       0.11230424 Ry

     iteration # 13     ecut=    70.00 Ry     beta=0.70
     Davidson diagonalization with overlap
     ethr =  7.85E-07,  avg # of iterations =  4.3

     total cpu time spent up to now is        1.5 secs

     total energy              =    -151.50409594 Ry
     Harris-Foulkes estimate   =    -151.49310436 Ry
     estimated scf accuracy    <       0.12794706 Ry

     iteration # 14     ecut=    70.00 Ry     beta=0.70
     Davidson diagonalization with overlap
     ethr =  7.85E-07,  avg # of iterations =  3.9

     total cpu time spent up to now is        1.6 secs

     total energy              =    -151.60469466 Ry
     Harris-Foulkes estimate   =    -151.61264934 Ry
     estimated scf accuracy    <       0.42131622 Ry

     iteration # 15     ecut=    70.00 Ry     beta=0.70
     Davidson diagonalization with overlap
     ethr =  7.85E-07,  avg # of iterations =  3.3

     total cpu time spent up to now is        1.7 secs

     total energy              =    -151.69008284 Ry
     Harris-Foulkes estimate   =    -151.69714474 Ry
     estimated scf accuracy    <       0.73297452 Ry

     iteration # 16     ecut=    70.00 Ry     beta=0.70
     Davidson diagonalization with overlap
     ethr =  7.85E-07,  avg # of iterations =  2.7

     total cpu time spent up to now is        1.8 secs

     total energy              =    -151.67599129 Ry
     Harris-Foulkes estimate   =    -151.69013460 Ry
     estimated scf accuracy    <       0.70373913 Ry

     iteration # 17     ecut=    70.00 Ry     beta=0.70
     Davidson diagonalization with overlap
     ethr =  7.85E-07,  avg # of iterations =  3.4

     total cpu time spent up to now is        1.9 secs

     total energy              =    -151.68068689 Ry
     Harris-Foulkes estimate   =    -151.67618274 Ry
     estimated scf accuracy    <       0.64625457 Ry

     iteration # 18     ecut=    70.00 Ry     beta=0.70
     Davidson diagonalization with overlap
     ethr =  7.85E-07,  avg # of iterations =  3.1

     total cpu time spent up to now is        2.0 secs

     total energy              =    -151.70918427 Ry
     Harris-Foulkes estimate   =    -151.70647149 Ry
     estimated scf accuracy    <       0.84686717 Ry

     iteration # 19     ecut=    70.00 Ry     beta=0.70
     Davidson diagonalization with overlap
     ethr =  7.85E-07,  avg # of iterations =  1.9

     total cpu time spent up to now is        2.1 secs

     total energy              =    -151.73575195 Ry
     Harris-Foulkes estimate   =    -151.70919092 Ry
     estimated scf accuracy    <       0.85871547 Ry

     iteration # 20     ecut=    70.00 Ry     beta=0.70
     Davidson diagonalization with overlap
     ethr =  7.85E-07,  avg # of iterations =  3.6

     total cpu time spent up to now is        2.2 secs

     total energy              =    -151.72517954 Ry
     Harris-Foulkes estimate   =    -151.73635554 Ry
     estimated scf accuracy    <       0.97613155 Ry

     iteration # 21     ecut=    70.00 Ry     beta=0.70
     Davidson diagonalization with overlap
     ethr =  7.85E-07,  avg # of iterations =  3.1

     total cpu time spent up to now is        2.4 secs

     total energy              =    -151.69237021 Ry
     Harris-Foulkes estimate   =    -151.72528063 Ry
     estimated scf accuracy    <       0.92772013 Ry

     iteration # 22     ecut=    70.00 Ry     beta=0.70
     Davidson diagonalization with overlap
     ethr =  7.85E-07,  avg # of iterations =  3.9

     total cpu time spent up to now is        2.5 secs

     total energy              =    -151.68354569 Ry
     Harris-Foulkes estimate   =    -151.69331862 Ry
     estimated scf accuracy    <       0.78264617 Ry

     iteration # 23     ecut=    70.00 Ry     beta=0.70
     Davidson diagonalization with overlap
     ethr =  7.85E-07,  avg # of iterations =  3.1

     total cpu time spent up to now is        2.6 secs

     total energy              =    -152.00554970 Ry
     Harris-Foulkes estimate   =    -151.68362506 Ry
     estimated scf accuracy    <       0.74153064 Ry

     iteration # 24     ecut=    70.00 Ry     beta=0.70
     Davidson diagonalization with overlap
     ethr =  7.85E-07,  avg # of iterations =  4.6

     total cpu time spent up to now is        2.7 secs

     total energy              =    -151.97788832 Ry
     Harris-Foulkes estimate   =    -152.06767763 Ry
     estimated scf accuracy    <       2.01222722 Ry

     iteration # 25     ecut=    70.00 Ry     beta=0.70
     Davidson diagonalization with overlap
     ethr =  7.85E-07,  avg # of iterations =  3.6

     total cpu time spent up to now is        2.8 secs

     total energy              =    -151.93678676 Ry
     Harris-Foulkes estimate   =    -151.97910936 Ry
     estimated scf accuracy    <       1.77961938 Ry

     iteration # 26     ecut=    70.00 Ry     beta=0.70
     Davidson diagonalization with overlap
     ethr =  7.85E-07,  avg # of iterations =  3.2

     total cpu time spent up to now is        3.0 secs

     total energy              =    -151.22061432 Ry
     Harris-Foulkes estimate   =    -151.93721258 Ry
     estimated scf accuracy    <       1.65463649 Ry

     iteration # 27     ecut=    70.00 Ry     beta=0.70
     Davidson diagonalization with overlap
     ethr =  7.85E-07,  avg # of iterations =  6.8

     total cpu time spent up to now is        3.1 secs

     total energy              =    -151.24307979 Ry
     Harris-Foulkes estimate   =    -151.64931016 Ry
     estimated scf accuracy    <       0.67023160 Ry

     iteration # 28     ecut=    70.00 Ry     beta=0.70
     Davidson diagonalization with overlap
     ethr =  7.85E-07,  avg # of iterations =  5.9

     total cpu time spent up to now is        3.3 secs

     total energy              =    -151.77546946 Ry
     Harris-Foulkes estimate   =    -151.87164732 Ry
     estimated scf accuracy    <       1.33291250 Ry

     iteration # 29     ecut=    70.00 Ry     beta=0.70
     Davidson diagonalization with overlap
     ethr =  7.85E-07,  avg # of iterations =  3.7

     total cpu time spent up to now is        3.4 secs

     total energy              =    -151.64283521 Ry
     Harris-Foulkes estimate   =    -151.77844513 Ry
     estimated scf accuracy    <       1.04426709 Ry

     iteration # 30     ecut=    70.00 Ry     beta=0.70
     Davidson diagonalization with overlap
     ethr =  7.85E-07,  avg # of iterations =  4.3

     total cpu time spent up to now is        3.6 secs

     total energy              =    -151.53434059 Ry
     Harris-Foulkes estimate   =    -151.65339874 Ry
     estimated scf accuracy    <       0.56955996 Ry

     iteration # 31     ecut=    70.00 Ry     beta=0.70
     Davidson diagonalization with overlap
     ethr =  7.85E-07,  avg # of iterations =  4.5

     total cpu time spent up to now is        3.7 secs

     total energy              =    -151.57934149 Ry
     Harris-Foulkes estimate   =    -151.56313848 Ry
     estimated scf accuracy    <       0.06761835 Ry

     iteration # 32     ecut=    70.00 Ry     beta=0.70
     Davidson diagonalization with overlap
     ethr =  7.85E-07,  avg # of iterations =  4.1

     total cpu time spent up to now is        3.8 secs

     total energy              =    -151.55598218 Ry
     Harris-Foulkes estimate   =    -151.58379668 Ry
     estimated scf accuracy    <       0.20341563 Ry

     iteration # 33     ecut=    70.00 Ry     beta=0.70
     Davidson diagonalization with overlap
     ethr =  7.85E-07,  avg # of iterations =  4.3

     total cpu time spent up to now is        4.0 secs

     total energy              =    -151.54770362 Ry
     Harris-Foulkes estimate   =    -151.56131343 Ry
     estimated scf accuracy    <       0.05555357 Ry

     iteration # 34     ecut=    70.00 Ry     beta=0.70
     Davidson diagonalization with overlap
     ethr =  7.85E-07,  avg # of iterations =  4.5

     total cpu time spent up to now is        4.1 secs

     total energy              =    -151.55369368 Ry
     Harris-Foulkes estimate   =    -151.55369811 Ry
     estimated scf accuracy    <       0.00000807 Ry

     iteration # 35     ecut=    70.00 Ry     beta=0.70
     Davidson diagonalization with overlap
     ethr =  5.05E-08,  avg # of iterations =  4.0

     total cpu time spent up to now is        4.2 secs

     total energy              =    -151.55367805 Ry
     Harris-Foulkes estimate   =    -151.55372632 Ry
     estimated scf accuracy    <       0.00023027 Ry

     iteration # 36     ecut=    70.00 Ry     beta=0.70
     Davidson diagonalization with overlap
     ethr =  5.05E-08,  avg # of iterations =  3.5

     total cpu time spent up to now is        4.3 secs

     total energy              =    -151.55369663 Ry
     Harris-Foulkes estimate   =    -151.55369697 Ry
     estimated scf accuracy    <       0.00000465 Ry

     iteration # 37     ecut=    70.00 Ry     beta=0.70
     Davidson diagonalization with overlap
     ethr =  2.91E-08,  avg # of iterations =  1.0

     total cpu time spent up to now is        4.4 secs

     total energy              =    -151.55369732 Ry
     Harris-Foulkes estimate   =    -151.55369668 Ry
     estimated scf accuracy    <       0.00000320 Ry

     iteration # 38     ecut=    70.00 Ry     beta=0.70
     Davidson diagonalization with overlap
     ethr =  2.00E-08,  avg # of iterations =  2.7

     total cpu time spent up to now is        4.5 secs

     total energy              =    -151.55369581 Ry
     Harris-Foulkes estimate   =    -151.55369760 Ry
     estimated scf accuracy    <       0.00000932 Ry

     iteration # 39     ecut=    70.00 Ry     beta=0.70
     Davidson diagonalization with overlap
     ethr =  2.00E-08,  avg # of iterations =  2.7

     total cpu time spent up to now is        4.6 secs

     total energy              =    -151.55369630 Ry
     Harris-Foulkes estimate   =    -151.55369642 Ry
     estimated scf accuracy    <       0.00000052 Ry

     iteration # 40     ecut=    70.00 Ry     beta=0.70
     Davidson diagonalization with overlap
     ethr =  3.26E-09,  avg # of iterations =  2.8

     total cpu time spent up to now is        4.7 secs

     End of self-consistent calculation

          k = 0.0000 0.0000 0.0000 (  4625 PWs)   bands (ev):

   -78.3007 -44.9977 -44.9977 -44.9977 -15.4088  -2.1780  -0.7667  -0.7667

          k = 0.0000 0.0000 0.2500 (  4609 PWs)   bands (ev):

   -78.3007 -44.9980 -44.9973 -44.9973 -15.3938  -2.3052  -0.7179  -0.3310

          k = 0.0000 0.0000-0.5000 (  4524 PWs)   bands (ev):

   -78.3007 -44.9957 -44.9957 -44.9957 -15.3788  -2.4424  -0.6676  -0.6676

          k = 0.0000 0.2500 0.2500 (  4587 PWs)   bands (ev):

   -78.3007 -44.9973 -44.9973 -44.9970 -15.3800  -2.1289  -1.1042  -0.6768

          k = 0.0000 0.2500-0.5000 (  4560 PWs)   bands (ev):

   -78.3007 -44.9969 -44.9967 -44.9964 -15.3661  -2.0548  -1.1107  -0.6345

          k = 0.0000-0.5000-0.5000 (  4540 PWs)   bands (ev):

   -78.3006 -44.9969 -44.9969 -44.9957 -15.3534  -1.4345  -1.4345  -0.6002

          k = 0.2500 0.2500 0.2500 (  4602 PWs)   bands (ev):

   -78.3007 -44.9978 -44.9978 -44.9971 -15.3671  -1.8933  -0.9987  -0.9987

          k = 0.2500 0.2500-0.5000 (  4590 PWs)   bands (ev):

   -78.3006 -44.9980 -44.9973 -44.9972 -15.3541  -1.7263  -1.0859  -0.8858

          k = 0.2500-0.5000-0.5000 (  4588 PWs)   bands (ev):

   -78.3006 -44.9980 -44.9980 -44.9970 -15.3420  -1.2765  -1.2765  -0.8632

          k =-0.5000-0.5000-0.5000 (  4632 PWs)   bands (ev):

   -78.3006 -44.9987 -44.9987 -44.9987 -15.3306  -1.0983  -1.0983  -1.0983

     highest occupied level (ev):    -0.3310

!    total energy              =    -151.55369636 Ry
     Harris-Foulkes estimate   =    -151.55369636 Ry
     estimated scf accuracy    <          1.0E-08 Ry

     The total energy is the sum of the following terms:

     one-electron contribution =    -126.25992757 Ry
     hartree contribution      =      60.62738477 Ry
     xc contribution           =     -23.63371510 Ry
     ewald contribution        =     -62.28743845 Ry

     convergence has been achieved in  40 iterations

     Forces acting on atoms (cartesian axes, Ry/au):

     atom    1 type  1   force =     0.00000000    0.00000000    0.00000000
     atom    2 type  2   force =     0.00000000    0.00000000    0.00000000

     Total force =     0.000000     Total SCF correction =     0.000000


     Computing stress (Cartesian axis) and pressure

          total   stress  (Ry/bohr**3)                   (kbar)     P= -134.49
  -0.00091425   0.00000000   0.00000000       -134.49      0.00      0.00
   0.00000000  -0.00091425   0.00000000          0.00   -134.49      0.00
   0.00000000   0.00000000  -0.00091425          0.00      0.00   -134.49


     Writing output data file diamond.7.74.70.4.save
 
     init_run     :      0.09s CPU      0.09s WALL (       1 calls)
     electrons    :      4.36s CPU      4.47s WALL (       1 calls)
     forces       :      0.02s CPU      0.02s WALL (       1 calls)
     stress       :      0.05s CPU      0.05s WALL (       1 calls)

     Called by init_run:
     wfcinit      :      0.03s CPU      0.04s WALL (       1 calls)
     potinit      :      0.01s CPU      0.01s WALL (       1 calls)

     Called by electrons:
     c_bands      :      3.52s CPU      3.61s WALL (      40 calls)
     sum_band     :      0.58s CPU      0.60s WALL (      40 calls)
     v_of_rho     :      0.21s CPU      0.21s WALL (      41 calls)
     mix_rho      :      0.05s CPU      0.05s WALL (      40 calls)

     Called by c_bands:
     init_us_2    :      0.12s CPU      0.11s WALL (     830 calls)
     cegterg      :      3.24s CPU      3.34s WALL (     400 calls)

     Called by sum_band:

     Called by *egterg:
     h_psi        :      2.70s CPU      2.77s WALL (    1734 calls)
     g_psi        :      0.02s CPU      0.02s WALL (    1324 calls)
     cdiaghg      :      0.22s CPU      0.23s WALL (    1724 calls)

     Called by h_psi:
     h_psi:pot    :      2.69s CPU      2.76s WALL (    1734 calls)
     h_psi:calbec :      0.11s CPU      0.10s WALL (    1734 calls)
     vloc_psi     :      2.52s CPU      2.60s WALL (    1734 calls)
     add_vuspsi   :      0.04s CPU      0.06s WALL (    1734 calls)

     General routines
     calbec       :      0.12s CPU      0.10s WALL (    1784 calls)
     fft          :      0.09s CPU      0.10s WALL (     475 calls)
     fftw         :      2.83s CPU      2.78s WALL (   22058 calls)
     davcio       :      0.00s CPU      0.00s WALL (      10 calls)
 
     Parallel routines
     fft_scatter  :      0.69s CPU      0.73s WALL (   22533 calls)
 
     PWSCF        :     4.70s CPU         4.85s WALL

 
   This run was terminated on:  15: 5:14  19Apr2018            

=------------------------------------------------------------------------------=
   JOB DONE.
=------------------------------------------------------------------------------=
