
     Program PWSCF v.6.1 (svn rev. 13369) starts on 19Apr2018 at 18:47: 4 

     This program is part of the open-source Quantum ESPRESSO suite
     for quantum simulation of materials; please cite
         "P. Giannozzi et al., J. Phys.:Condens. Matter 21 395502 (2009);
          URL http://www.quantum-espresso.org", 
     in publications or presentations arising from this work. More details at
     http://www.quantum-espresso.org/quote

     Parallel version (MPI), running on     8 processors
     R & G space division:  proc/nbgrp/npool/nimage =       8
     Waiting for input...
     Reading input from standard input

     Current dimensions of program PWSCF are:
     Max number of different atomic species (ntypx) = 10
     Max number of k-points (npk) =  40000
     Max angular momentum in pseudopotentials (lmaxx) =  3

     Subspace diagonalization in iterative solution of the eigenvalue problem:
     a serial algorithm will be used

 
     Parallelization info
     --------------------
     sticks:   dense  smooth     PW     G-vecs:    dense   smooth      PW
     Min          81      81     24                 1346     1346     225
     Max          82      82     25                 1348     1348     227
     Sum         649     649    199                10777    10777    1807
 


     bravais-lattice index     =            2
     lattice parameter (alat)  =       8.1270  a.u.
     unit-cell volume          =     134.1933 (a.u.)^3
     number of atoms/cell      =            2
     number of atomic types    =            2
     number of electrons       =        16.00
     number of Kohn-Sham states=            8
     kinetic-energy cutoff     =      70.0000  Ry
     charge density cutoff     =     280.0000  Ry
     convergence threshold     =      1.0E-08
     mixing beta               =       0.7000
     number of iterations used =            8  plain     mixing
     Exchange-correlation      = PBE ( 1  4  3  4 0 0)

     celldm(1)=   8.127000  celldm(2)=   0.000000  celldm(3)=   0.000000
     celldm(4)=   0.000000  celldm(5)=   0.000000  celldm(6)=   0.000000

     crystal axes: (cart. coord. in units of alat)
               a(1) = (  -0.500000   0.000000   0.500000 )  
               a(2) = (   0.000000   0.500000   0.500000 )  
               a(3) = (  -0.500000   0.500000   0.000000 )  

     reciprocal axes: (cart. coord. in units 2 pi/alat)
               b(1) = ( -1.000000 -1.000000  1.000000 )  
               b(2) = (  1.000000  1.000000  1.000000 )  
               b(3) = ( -1.000000  1.000000 -1.000000 )  


     PseudoPot. # 1 for Mg read from file:
     ../pseudo/Mg.pbe.UPF
     MD5 check sum: 4c04d8c6e0476e83eaecaf72fa8acc4d
     Pseudo is Norm-conserving, Zval = 10.0
     Generated using ONCVPSP code by D. R. Hamann
     Using radial grid of 1510 points,  4 beta functions with: 
                l(1) =   0
                l(2) =   0
                l(3) =   1
                l(4) =   1

     PseudoPot. # 2 for O  read from file:
     ../pseudo/O.pbe.UPF
     MD5 check sum: 3e3f909f7470e8921608ab6b1f57bbae
     Pseudo is Norm-conserving + core correction, Zval =  6.0
     Generated using ONCVPSP code by D. R. Hamann
     Using radial grid of  936 points,  5 beta functions with: 
                l(1) =   0
                l(2) =   0
                l(3) =   1
                l(4) =   1
                l(5) =   2

     atomic species   valence    mass     pseudopotential
        Mg            10.00    24.30500     Mg( 1.00)
        O              6.00    15.99940     O ( 1.00)

     48 Sym. Ops., with inversion, found



   Cartesian axes

     site n.     atom                  positions (alat units)
         1           Mg  tau(   1) = (   0.0000000   0.0000000   0.0000000  )
         2           O   tau(   2) = (   0.5000000   0.5000000   0.5000000  )

     number of k points=     8
                       cart. coord. in units 2pi/alat
        k(    1) = (   0.0000000   0.0000000   0.0000000), wk =   0.0312500
        k(    2) = (  -0.2500000   0.2500000  -0.2500000), wk =   0.2500000
        k(    3) = (   0.5000000  -0.5000000   0.5000000), wk =   0.1250000
        k(    4) = (   0.0000000   0.5000000   0.0000000), wk =   0.1875000
        k(    5) = (   0.7500000  -0.2500000   0.7500000), wk =   0.7500000
        k(    6) = (   0.5000000   0.0000000   0.5000000), wk =   0.3750000
        k(    7) = (   0.0000000  -1.0000000   0.0000000), wk =   0.0937500
        k(    8) = (  -0.5000000  -1.0000000   0.0000000), wk =   0.1875000

     Dense  grid:    10777 G-vectors     FFT dimensions: (  32,  32,  32)

     Estimated max dynamical RAM per process >       1.19MB

     Estimated total allocated dynamical RAM >       9.52MB

     Check: negative/imaginary core charge=   -0.000006    0.000000

     Initial potential from superposition of free atoms

     starting charge   15.99920, renormalised to   16.00000
     Starting wfc are    9 randomized atomic wfcs

     total cpu time spent up to now is        0.2 secs

     per-process dynamical memory:    31.7 Mb

     Self-consistent Calculation

     iteration #  1     ecut=    70.00 Ry     beta=0.70
     Davidson diagonalization with overlap
     ethr =  1.00E-02,  avg # of iterations =  2.0

     total cpu time spent up to now is        0.2 secs

     total energy              =    -151.92512865 Ry
     Harris-Foulkes estimate   =    -152.21010628 Ry
     estimated scf accuracy    <       0.39542131 Ry

     iteration #  2     ecut=    70.00 Ry     beta=0.70
     Davidson diagonalization with overlap
     ethr =  2.47E-03,  avg # of iterations =  2.5

     total cpu time spent up to now is        0.2 secs

     total energy              =    -152.02189099 Ry
     Harris-Foulkes estimate   =    -152.20366880 Ry
     estimated scf accuracy    <       0.37942128 Ry

     iteration #  3     ecut=    70.00 Ry     beta=0.70
     Davidson diagonalization with overlap
     ethr =  2.37E-03,  avg # of iterations =  2.0

     total cpu time spent up to now is        0.3 secs

     total energy              =    -152.09619063 Ry
     Harris-Foulkes estimate   =    -152.09635944 Ry
     estimated scf accuracy    <       0.00171564 Ry

     iteration #  4     ecut=    70.00 Ry     beta=0.70
     Davidson diagonalization with overlap
     ethr =  1.07E-05,  avg # of iterations =  2.0

     total cpu time spent up to now is        0.3 secs

     total energy              =    -152.09656794 Ry
     Harris-Foulkes estimate   =    -152.09657939 Ry
     estimated scf accuracy    <       0.00002866 Ry

     iteration #  5     ecut=    70.00 Ry     beta=0.70
     Davidson diagonalization with overlap
     ethr =  1.79E-07,  avg # of iterations =  1.4

     total cpu time spent up to now is        0.3 secs

     total energy              =    -152.09656982 Ry
     Harris-Foulkes estimate   =    -152.09656943 Ry
     estimated scf accuracy    <       0.00000271 Ry

     iteration #  6     ecut=    70.00 Ry     beta=0.70
     Davidson diagonalization with overlap
     ethr =  1.69E-08,  avg # of iterations =  2.0

     total cpu time spent up to now is        0.3 secs

     total energy              =    -152.09657025 Ry
     Harris-Foulkes estimate   =    -152.09657036 Ry
     estimated scf accuracy    <       0.00000026 Ry

     iteration #  7     ecut=    70.00 Ry     beta=0.70
     Davidson diagonalization with overlap
     ethr =  1.66E-09,  avg # of iterations =  2.0

     total cpu time spent up to now is        0.4 secs

     total energy              =    -152.09657025 Ry
     Harris-Foulkes estimate   =    -152.09657027 Ry
     estimated scf accuracy    <       0.00000003 Ry

     iteration #  8     ecut=    70.00 Ry     beta=0.70
     Davidson diagonalization with overlap
     ethr =  2.18E-10,  avg # of iterations =  2.0

     total cpu time spent up to now is        0.4 secs

     End of self-consistent calculation

          k = 0.0000 0.0000 0.0000 (  1363 PWs)   bands (ev):

   -65.3089 -32.0417 -32.0417 -32.0417  -9.5650   7.3271   7.3271   7.3271

          k =-0.2500 0.2500-0.2500 (  1332 PWs)   bands (ev):

   -65.3057 -32.0733 -32.0432 -32.0432  -9.0284   4.7975   7.0287   7.0287

          k = 0.5000-0.5000 0.5000 (  1350 PWs)   bands (ev):

   -65.3026 -32.1056 -32.0480 -32.0480  -8.4041   2.9954   6.7521   6.7521

          k = 0.0000 0.5000 0.0000 (  1331 PWs)   bands (ev):

   -65.3047 -32.0698 -32.0511 -32.0511  -8.8855   4.8330   6.6485   6.6485

          k = 0.7500-0.2500 0.7500 (  1318 PWs)   bands (ev):

   -65.3016 -32.0903 -32.0620 -32.0538  -8.3075   3.7582   5.5625   6.3977

          k = 0.5000 0.0000 0.5000 (  1320 PWs)   bands (ev):

   -65.3026 -32.0843 -32.0640 -32.0469  -8.4723   4.0349   5.4878   6.7503

          k = 0.0000-1.0000 0.0000 (  1338 PWs)   bands (ev):

   -65.3005 -32.0952 -32.0630 -32.0630  -8.1949   3.5296   6.0748   6.0748

          k =-0.5000-1.0000 0.0000 (  1316 PWs)   bands (ev):

   -65.3005 -32.0773 -32.0773 -32.0624  -8.1430   4.5911   4.5911   5.6800

     highest occupied level (ev):     7.3271

!    total energy              =    -152.09657026 Ry
     Harris-Foulkes estimate   =    -152.09657026 Ry
     estimated scf accuracy    <          1.9E-09 Ry

     The total energy is the sum of the following terms:

     one-electron contribution =     -77.36165314 Ry
     hartree contribution      =      42.51276705 Ry
     xc contribution           =     -24.43247706 Ry
     ewald contribution        =     -92.81520712 Ry

     convergence has been achieved in   8 iterations

     Forces acting on atoms (cartesian axes, Ry/au):

     atom    1 type  1   force =    -0.00000000   -0.00000000   -0.00000000
     atom    2 type  2   force =    -0.00000000   -0.00000000   -0.00000000

     Total force =     0.000000     Total SCF correction =     0.000000


     Computing stress (Cartesian axis) and pressure

          total   stress  (Ry/bohr**3)                   (kbar)     P= -109.18
  -0.00074216   0.00000000   0.00000000       -109.18      0.00      0.00
   0.00000000  -0.00074216  -0.00000000          0.00   -109.18     -0.00
   0.00000000  -0.00000000  -0.00074216          0.00     -0.00   -109.18


     Writing output data file diamond.8.127.70.4.save
 
     init_run     :      0.03s CPU      0.03s WALL (       1 calls)
     electrons    :      0.22s CPU      0.23s WALL (       1 calls)
     forces       :      0.01s CPU      0.01s WALL (       1 calls)
     stress       :      0.02s CPU      0.02s WALL (       1 calls)

     Called by init_run:
     wfcinit      :      0.01s CPU      0.01s WALL (       1 calls)
     potinit      :      0.00s CPU      0.01s WALL (       1 calls)

     Called by electrons:
     c_bands      :      0.17s CPU      0.18s WALL (       8 calls)
     sum_band     :      0.03s CPU      0.03s WALL (       8 calls)
     v_of_rho     :      0.01s CPU      0.02s WALL (       9 calls)
     mix_rho      :      0.00s CPU      0.00s WALL (       8 calls)

     Called by c_bands:
     init_us_2    :      0.01s CPU      0.01s WALL (     152 calls)
     cegterg      :      0.16s CPU      0.17s WALL (      64 calls)

     Called by sum_band:

     Called by *egterg:
     h_psi        :      0.12s CPU      0.13s WALL (     199 calls)
     g_psi        :      0.00s CPU      0.00s WALL (     127 calls)
     cdiaghg      :      0.02s CPU      0.02s WALL (     191 calls)

     Called by h_psi:
     h_psi:pot    :      0.12s CPU      0.13s WALL (     199 calls)
     h_psi:calbec :      0.01s CPU      0.01s WALL (     199 calls)
     vloc_psi     :      0.11s CPU      0.12s WALL (     199 calls)
     add_vuspsi   :      0.00s CPU      0.00s WALL (     199 calls)

     General routines
     calbec       :      0.01s CPU      0.01s WALL (     239 calls)
     fft          :      0.00s CPU      0.01s WALL (     123 calls)
     fftw         :      0.12s CPU      0.12s WALL (    3236 calls)
     davcio       :      0.00s CPU      0.00s WALL (       8 calls)
 
     Parallel routines
     fft_scatter  :      0.05s CPU      0.05s WALL (    3359 calls)
 
     PWSCF        :     0.44s CPU         0.49s WALL

 
   This run was terminated on:  18:47: 5  19Apr2018            

=------------------------------------------------------------------------------=
   JOB DONE.
=------------------------------------------------------------------------------=
