
     Program PWSCF v.6.1 (svn rev. 13369) starts on 19Apr2018 at 18:47: 3 

     This program is part of the open-source Quantum ESPRESSO suite
     for quantum simulation of materials; please cite
         "P. Giannozzi et al., J. Phys.:Condens. Matter 21 395502 (2009);
          URL http://www.quantum-espresso.org", 
     in publications or presentations arising from this work. More details at
     http://www.quantum-espresso.org/quote

     Parallel version (MPI), running on     8 processors
     R & G space division:  proc/nbgrp/npool/nimage =       8
     Waiting for input...
     Reading input from standard input

     Current dimensions of program PWSCF are:
     Max number of different atomic species (ntypx) = 10
     Max number of k-points (npk) =  40000
     Max angular momentum in pseudopotentials (lmaxx) =  3

     Subspace diagonalization in iterative solution of the eigenvalue problem:
     a serial algorithm will be used

 
     Parallelization info
     --------------------
     sticks:   dense  smooth     PW     G-vecs:    dense   smooth      PW
     Min          80      80     24                 1332     1332     225
     Max          82      82     25                 1333     1333     227
     Sum         649     649    199                10657    10657    1807
 


     bravais-lattice index     =            2
     lattice parameter (alat)  =       8.1190  a.u.
     unit-cell volume          =     133.7974 (a.u.)^3
     number of atoms/cell      =            2
     number of atomic types    =            2
     number of electrons       =        16.00
     number of Kohn-Sham states=            8
     kinetic-energy cutoff     =      70.0000  Ry
     charge density cutoff     =     280.0000  Ry
     convergence threshold     =      1.0E-08
     mixing beta               =       0.7000
     number of iterations used =            8  plain     mixing
     Exchange-correlation      = PBE ( 1  4  3  4 0 0)

     celldm(1)=   8.119000  celldm(2)=   0.000000  celldm(3)=   0.000000
     celldm(4)=   0.000000  celldm(5)=   0.000000  celldm(6)=   0.000000

     crystal axes: (cart. coord. in units of alat)
               a(1) = (  -0.500000   0.000000   0.500000 )  
               a(2) = (   0.000000   0.500000   0.500000 )  
               a(3) = (  -0.500000   0.500000   0.000000 )  

     reciprocal axes: (cart. coord. in units 2 pi/alat)
               b(1) = ( -1.000000 -1.000000  1.000000 )  
               b(2) = (  1.000000  1.000000  1.000000 )  
               b(3) = ( -1.000000  1.000000 -1.000000 )  


     PseudoPot. # 1 for Mg read from file:
     ../pseudo/Mg.pbe.UPF
     MD5 check sum: 4c04d8c6e0476e83eaecaf72fa8acc4d
     Pseudo is Norm-conserving, Zval = 10.0
     Generated using ONCVPSP code by D. R. Hamann
     Using radial grid of 1510 points,  4 beta functions with: 
                l(1) =   0
                l(2) =   0
                l(3) =   1
                l(4) =   1

     PseudoPot. # 2 for O  read from file:
     ../pseudo/O.pbe.UPF
     MD5 check sum: 3e3f909f7470e8921608ab6b1f57bbae
     Pseudo is Norm-conserving + core correction, Zval =  6.0
     Generated using ONCVPSP code by D. R. Hamann
     Using radial grid of  936 points,  5 beta functions with: 
                l(1) =   0
                l(2) =   0
                l(3) =   1
                l(4) =   1
                l(5) =   2

     atomic species   valence    mass     pseudopotential
        Mg            10.00    24.30500     Mg( 1.00)
        O              6.00    15.99940     O ( 1.00)

     48 Sym. Ops., with inversion, found



   Cartesian axes

     site n.     atom                  positions (alat units)
         1           Mg  tau(   1) = (   0.0000000   0.0000000   0.0000000  )
         2           O   tau(   2) = (   0.5000000   0.5000000   0.5000000  )

     number of k points=     8
                       cart. coord. in units 2pi/alat
        k(    1) = (   0.0000000   0.0000000   0.0000000), wk =   0.0312500
        k(    2) = (  -0.2500000   0.2500000  -0.2500000), wk =   0.2500000
        k(    3) = (   0.5000000  -0.5000000   0.5000000), wk =   0.1250000
        k(    4) = (   0.0000000   0.5000000   0.0000000), wk =   0.1875000
        k(    5) = (   0.7500000  -0.2500000   0.7500000), wk =   0.7500000
        k(    6) = (   0.5000000   0.0000000   0.5000000), wk =   0.3750000
        k(    7) = (   0.0000000  -1.0000000   0.0000000), wk =   0.0937500
        k(    8) = (  -0.5000000  -1.0000000   0.0000000), wk =   0.1875000

     Dense  grid:    10657 G-vectors     FFT dimensions: (  32,  32,  32)

     Estimated max dynamical RAM per process >       1.18MB

     Estimated total allocated dynamical RAM >       9.47MB

     Check: negative/imaginary core charge=   -0.000007    0.000000

     Initial potential from superposition of free atoms

     starting charge   15.99920, renormalised to   16.00000
     Starting wfc are    9 randomized atomic wfcs

     total cpu time spent up to now is        0.2 secs

     per-process dynamical memory:    31.7 Mb

     Self-consistent Calculation

     iteration #  1     ecut=    70.00 Ry     beta=0.70
     Davidson diagonalization with overlap
     ethr =  1.00E-02,  avg # of iterations =  2.0

     total cpu time spent up to now is        0.2 secs

     total energy              =    -151.92558055 Ry
     Harris-Foulkes estimate   =    -152.21028041 Ry
     estimated scf accuracy    <       0.39508359 Ry

     iteration #  2     ecut=    70.00 Ry     beta=0.70
     Davidson diagonalization with overlap
     ethr =  2.47E-03,  avg # of iterations =  2.4

     total cpu time spent up to now is        0.2 secs

     total energy              =    -152.02250368 Ry
     Harris-Foulkes estimate   =    -152.20333777 Ry
     estimated scf accuracy    <       0.37712763 Ry

     iteration #  3     ecut=    70.00 Ry     beta=0.70
     Davidson diagonalization with overlap
     ethr =  2.36E-03,  avg # of iterations =  2.0

     total cpu time spent up to now is        0.3 secs

     total energy              =    -152.09638430 Ry
     Harris-Foulkes estimate   =    -152.09655301 Ry
     estimated scf accuracy    <       0.00170554 Ry

     iteration #  4     ecut=    70.00 Ry     beta=0.70
     Davidson diagonalization with overlap
     ethr =  1.07E-05,  avg # of iterations =  2.0

     total cpu time spent up to now is        0.3 secs

     total energy              =    -152.09676083 Ry
     Harris-Foulkes estimate   =    -152.09677183 Ry
     estimated scf accuracy    <       0.00002818 Ry

     iteration #  5     ecut=    70.00 Ry     beta=0.70
     Davidson diagonalization with overlap
     ethr =  1.76E-07,  avg # of iterations =  1.2

     total cpu time spent up to now is        0.3 secs

     total energy              =    -152.09676269 Ry
     Harris-Foulkes estimate   =    -152.09676226 Ry
     estimated scf accuracy    <       0.00000280 Ry

     iteration #  6     ecut=    70.00 Ry     beta=0.70
     Davidson diagonalization with overlap
     ethr =  1.75E-08,  avg # of iterations =  2.0

     total cpu time spent up to now is        0.3 secs

     total energy              =    -152.09676315 Ry
     Harris-Foulkes estimate   =    -152.09676328 Ry
     estimated scf accuracy    <       0.00000029 Ry

     iteration #  7     ecut=    70.00 Ry     beta=0.70
     Davidson diagonalization with overlap
     ethr =  1.82E-09,  avg # of iterations =  2.0

     total cpu time spent up to now is        0.4 secs

     total energy              =    -152.09676316 Ry
     Harris-Foulkes estimate   =    -152.09676318 Ry
     estimated scf accuracy    <       0.00000004 Ry

     iteration #  8     ecut=    70.00 Ry     beta=0.70
     Davidson diagonalization with overlap
     ethr =  2.30E-10,  avg # of iterations =  2.0

     total cpu time spent up to now is        0.4 secs

     End of self-consistent calculation

          k = 0.0000 0.0000 0.0000 (  1363 PWs)   bands (ev):

   -65.2633 -31.9967 -31.9967 -31.9967  -9.5446   7.3611   7.3611   7.3611

          k =-0.2500 0.2500-0.2500 (  1332 PWs)   bands (ev):

   -65.2601 -32.0288 -31.9984 -31.9984  -9.0049   4.8264   7.0612   7.0612

          k = 0.5000-0.5000 0.5000 (  1350 PWs)   bands (ev):

   -65.2569 -32.0615 -32.0031 -32.0031  -8.3765   3.0173   6.7833   6.7833

          k = 0.0000 0.5000 0.0000 (  1331 PWs)   bands (ev):

   -65.2591 -32.0252 -32.0063 -32.0063  -8.8613   4.8616   6.6802   6.6802

          k = 0.7500-0.2500 0.7500 (  1318 PWs)   bands (ev):

   -65.2559 -32.0461 -32.0174 -32.0091  -8.2797   3.7821   5.5906   6.4283

          k = 0.5000 0.0000 0.5000 (  1320 PWs)   bands (ev):

   -65.2569 -32.0400 -32.0194 -32.0020  -8.4454   4.0605   5.5156   6.7815

          k = 0.0000-1.0000 0.0000 (  1298 PWs)   bands (ev):

   -65.2549 -32.0485 -32.0154 -32.0154  -8.1665   3.5523   6.1076   6.1076

          k =-0.5000-1.0000 0.0000 (  1316 PWs)   bands (ev):

   -65.2548 -32.0329 -32.0329 -32.0178  -8.1142   4.6165   4.6165   5.7090

     highest occupied level (ev):     7.3611

!    total energy              =    -152.09676317 Ry
     Harris-Foulkes estimate   =    -152.09676317 Ry
     estimated scf accuracy    <          2.1E-09 Ry

     The total energy is the sum of the following terms:

     one-electron contribution =     -77.22011097 Ry
     hartree contribution      =      42.46546484 Ry
     xc contribution           =     -24.43545510 Ry
     ewald contribution        =     -92.90666194 Ry

     convergence has been achieved in   8 iterations

     Forces acting on atoms (cartesian axes, Ry/au):

     atom    1 type  1   force =    -0.00000000   -0.00000000   -0.00000000
     atom    2 type  2   force =     0.00000000    0.00000000    0.00000000

     Total force =     0.000000     Total SCF correction =     0.000000


     Computing stress (Cartesian axis) and pressure

          total   stress  (Ry/bohr**3)                   (kbar)     P= -104.57
  -0.00071087   0.00000000   0.00000000       -104.57      0.00      0.00
   0.00000000  -0.00071087  -0.00000000          0.00   -104.57     -0.00
   0.00000000  -0.00000000  -0.00071087          0.00     -0.00   -104.57


     Writing output data file diamond.8.119.70.4.save
 
     init_run     :      0.03s CPU      0.03s WALL (       1 calls)
     electrons    :      0.21s CPU      0.23s WALL (       1 calls)
     forces       :      0.01s CPU      0.01s WALL (       1 calls)
     stress       :      0.02s CPU      0.02s WALL (       1 calls)

     Called by init_run:
     wfcinit      :      0.01s CPU      0.01s WALL (       1 calls)
     potinit      :      0.00s CPU      0.01s WALL (       1 calls)

     Called by electrons:
     c_bands      :      0.17s CPU      0.18s WALL (       8 calls)
     sum_band     :      0.03s CPU      0.03s WALL (       8 calls)
     v_of_rho     :      0.01s CPU      0.02s WALL (       9 calls)
     mix_rho      :      0.00s CPU      0.00s WALL (       8 calls)

     Called by c_bands:
     init_us_2    :      0.00s CPU      0.01s WALL (     152 calls)
     cegterg      :      0.15s CPU      0.17s WALL (      64 calls)

     Called by sum_band:

     Called by *egterg:
     h_psi        :      0.12s CPU      0.13s WALL (     197 calls)
     g_psi        :      0.00s CPU      0.00s WALL (     125 calls)
     cdiaghg      :      0.02s CPU      0.02s WALL (     189 calls)

     Called by h_psi:
     h_psi:pot    :      0.12s CPU      0.13s WALL (     197 calls)
     h_psi:calbec :      0.01s CPU      0.01s WALL (     197 calls)
     vloc_psi     :      0.10s CPU      0.12s WALL (     197 calls)
     add_vuspsi   :      0.00s CPU      0.00s WALL (     197 calls)

     General routines
     calbec       :      0.01s CPU      0.01s WALL (     237 calls)
     fft          :      0.01s CPU      0.01s WALL (     123 calls)
     fftw         :      0.11s CPU      0.12s WALL (    3230 calls)
     davcio       :      0.00s CPU      0.00s WALL (       8 calls)
 
     Parallel routines
     fft_scatter  :      0.05s CPU      0.05s WALL (    3353 calls)
 
     PWSCF        :     0.44s CPU         0.49s WALL

 
   This run was terminated on:  18:47: 3  19Apr2018            

=------------------------------------------------------------------------------=
   JOB DONE.
=------------------------------------------------------------------------------=
