
     Program PWSCF v.6.1 (svn rev. 13369) starts on 19Apr2018 at 15:55:34 

     This program is part of the open-source Quantum ESPRESSO suite
     for quantum simulation of materials; please cite
         "P. Giannozzi et al., J. Phys.:Condens. Matter 21 395502 (2009);
          URL http://www.quantum-espresso.org", 
     in publications or presentations arising from this work. More details at
     http://www.quantum-espresso.org/quote

     Parallel version (MPI), running on     8 processors
     R & G space division:  proc/nbgrp/npool/nimage =       8
     Waiting for input...
     Reading input from standard input

     Current dimensions of program PWSCF are:
     Max number of different atomic species (ntypx) = 10
     Max number of k-points (npk) =  40000
     Max angular momentum in pseudopotentials (lmaxx) =  3

     Subspace diagonalization in iterative solution of the eigenvalue problem:
     a serial algorithm will be used

 
     Parallelization info
     --------------------
     sticks:   dense  smooth     PW     G-vecs:    dense   smooth      PW
     Min         173     173     52                 4889     4889     779
     Max         174     174     53                 4892     4892     780
     Sum        1389    1389    421                39127    39127    6235
 


     bravais-lattice index     =            8
     lattice parameter (alat)  =       7.9200  a.u.
     unit-cell volume          =     496.7931 (a.u.)^3
     number of atoms/cell      =            2
     number of atomic types    =            2
     number of electrons       =        16.00
     number of Kohn-Sham states=            8
     kinetic-energy cutoff     =      70.0000  Ry
     charge density cutoff     =     280.0000  Ry
     convergence threshold     =      1.0E-08
     mixing beta               =       0.7000
     number of iterations used =            8  plain     mixing
     Exchange-correlation      = PBE ( 1  4  3  4 0 0)

     celldm(1)=   7.920000  celldm(2)=   1.000000  celldm(3)=   1.000000
     celldm(4)=   0.000000  celldm(5)=   0.000000  celldm(6)=   0.000000

     crystal axes: (cart. coord. in units of alat)
               a(1) = (   1.000000   0.000000   0.000000 )  
               a(2) = (   0.000000   1.000000   0.000000 )  
               a(3) = (   0.000000   0.000000   1.000000 )  

     reciprocal axes: (cart. coord. in units 2 pi/alat)
               b(1) = (  1.000000  0.000000  0.000000 )  
               b(2) = (  0.000000  1.000000  0.000000 )  
               b(3) = (  0.000000  0.000000  1.000000 )  


     PseudoPot. # 1 for Mg read from file:
     ../pseudo/Mg.pbe.UPF
     MD5 check sum: 4c04d8c6e0476e83eaecaf72fa8acc4d
     Pseudo is Norm-conserving, Zval = 10.0
     Generated using ONCVPSP code by D. R. Hamann
     Using radial grid of 1510 points,  4 beta functions with: 
                l(1) =   0
                l(2) =   0
                l(3) =   1
                l(4) =   1

     PseudoPot. # 2 for O  read from file:
     ../pseudo/O.pbe.UPF
     MD5 check sum: 3e3f909f7470e8921608ab6b1f57bbae
     Pseudo is Norm-conserving + core correction, Zval =  6.0
     Generated using ONCVPSP code by D. R. Hamann
     Using radial grid of  936 points,  5 beta functions with: 
                l(1) =   0
                l(2) =   0
                l(3) =   1
                l(4) =   1
                l(5) =   2

     atomic species   valence    mass     pseudopotential
        Mg            10.00    24.30500     Mg( 1.00)
        O              6.00    15.99940     O ( 1.00)

     48 Sym. Ops., with inversion, found



   Cartesian axes

     site n.     atom                  positions (alat units)
         1           Mg  tau(   1) = (   0.0000000   0.0000000   0.0000000  )
         2           O   tau(   2) = (   0.5000000   0.5000000   0.5000000  )

     number of k points=    10
                       cart. coord. in units 2pi/alat
        k(    1) = (   0.0000000   0.0000000   0.0000000), wk =   0.0312500
        k(    2) = (   0.0000000   0.0000000   0.2500000), wk =   0.1875000
        k(    3) = (   0.0000000   0.0000000  -0.5000000), wk =   0.0937500
        k(    4) = (   0.0000000   0.2500000   0.2500000), wk =   0.3750000
        k(    5) = (   0.0000000   0.2500000  -0.5000000), wk =   0.3750000
        k(    6) = (   0.0000000  -0.5000000  -0.5000000), wk =   0.0937500
        k(    7) = (   0.2500000   0.2500000   0.2500000), wk =   0.2500000
        k(    8) = (   0.2500000   0.2500000  -0.5000000), wk =   0.3750000
        k(    9) = (   0.2500000  -0.5000000  -0.5000000), wk =   0.1875000
        k(   10) = (  -0.5000000  -0.5000000  -0.5000000), wk =   0.0312500

     Dense  grid:    39127 G-vectors     FFT dimensions: (  45,  45,  45)

     Estimated max dynamical RAM per process >       4.22MB

     Estimated total allocated dynamical RAM >      33.79MB

     Check: negative/imaginary core charge=   -0.000004    0.000000

     Initial potential from superposition of free atoms

     starting charge   15.99920, renormalised to   16.00000
     Starting wfc are    9 randomized atomic wfcs

     total cpu time spent up to now is        1.5 secs

     per-process dynamical memory:    30.8 Mb

     Self-consistent Calculation

     iteration #  1     ecut=    70.00 Ry     beta=0.70
     Davidson diagonalization with overlap
     ethr =  1.00E-02,  avg # of iterations =  2.0

     total cpu time spent up to now is        1.6 secs

     total energy              =    -150.48934659 Ry
     Harris-Foulkes estimate   =    -151.88897897 Ry
     estimated scf accuracy    <       1.76850899 Ry

     iteration #  2     ecut=    70.00 Ry     beta=0.70
     Davidson diagonalization with overlap
     ethr =  1.00E-02,  avg # of iterations =  5.1

     total cpu time spent up to now is        1.7 secs

     total energy              =    -150.12299246 Ry
     Harris-Foulkes estimate   =    -154.40541240 Ry
     estimated scf accuracy    <      15.15479662 Ry

     iteration #  3     ecut=    70.00 Ry     beta=0.70
     Davidson diagonalization with overlap
     ethr =  1.00E-02,  avg # of iterations =  4.0

     total cpu time spent up to now is        1.9 secs

     total energy              =    -151.48650097 Ry
     Harris-Foulkes estimate   =    -151.35494647 Ry
     estimated scf accuracy    <       0.48050988 Ry

     iteration #  4     ecut=    70.00 Ry     beta=0.70
     Davidson diagonalization with overlap
     ethr =  3.00E-03,  avg # of iterations =  2.0

     total cpu time spent up to now is        2.0 secs

     total energy              =    -151.14221058 Ry
     Harris-Foulkes estimate   =    -151.51593763 Ry
     estimated scf accuracy    <       1.26999953 Ry

     iteration #  5     ecut=    70.00 Ry     beta=0.70
     Davidson diagonalization with overlap
     ethr =  3.00E-03,  avg # of iterations =  2.6

     total cpu time spent up to now is        2.1 secs

     total energy              =    -151.25090678 Ry
     Harris-Foulkes estimate   =    -151.26580288 Ry
     estimated scf accuracy    <       0.09251258 Ry

     iteration #  6     ecut=    70.00 Ry     beta=0.70
     Davidson diagonalization with overlap
     ethr =  5.78E-04,  avg # of iterations =  1.1

     total cpu time spent up to now is        2.1 secs

     total energy              =    -151.24458922 Ry
     Harris-Foulkes estimate   =    -151.25234128 Ry
     estimated scf accuracy    <       0.05309541 Ry

     iteration #  7     ecut=    70.00 Ry     beta=0.70
     Davidson diagonalization with overlap
     ethr =  3.32E-04,  avg # of iterations =  1.0

     total cpu time spent up to now is        2.2 secs

     total energy              =    -151.24466380 Ry
     Harris-Foulkes estimate   =    -151.24555615 Ry
     estimated scf accuracy    <       0.03136194 Ry

     iteration #  8     ecut=    70.00 Ry     beta=0.70
     Davidson diagonalization with overlap
     ethr =  1.96E-04,  avg # of iterations =  1.0

     total cpu time spent up to now is        2.3 secs

     total energy              =    -151.24532057 Ry
     Harris-Foulkes estimate   =    -151.24481707 Ry
     estimated scf accuracy    <       0.02848577 Ry

     iteration #  9     ecut=    70.00 Ry     beta=0.70
     Davidson diagonalization with overlap
     ethr =  1.78E-04,  avg # of iterations =  1.0

     total cpu time spent up to now is        2.4 secs

     total energy              =    -151.24037300 Ry
     Harris-Foulkes estimate   =    -151.24534442 Ry
     estimated scf accuracy    <       0.02867729 Ry

     iteration # 10     ecut=    70.00 Ry     beta=0.70
     Davidson diagonalization with overlap
     ethr =  1.78E-04,  avg # of iterations =  1.1

     total cpu time spent up to now is        2.5 secs

     total energy              =    -151.23216035 Ry
     Harris-Foulkes estimate   =    -151.24080169 Ry
     estimated scf accuracy    <       0.01599078 Ry

     iteration # 11     ecut=    70.00 Ry     beta=0.70
     Davidson diagonalization with overlap
     ethr =  9.99E-05,  avg # of iterations =  2.0

     total cpu time spent up to now is        2.6 secs

     total energy              =    -151.23456153 Ry
     Harris-Foulkes estimate   =    -151.23477988 Ry
     estimated scf accuracy    <       0.00047001 Ry

     iteration # 12     ecut=    70.00 Ry     beta=0.70
     Davidson diagonalization with overlap
     ethr =  2.94E-06,  avg # of iterations =  4.1

     total cpu time spent up to now is        2.7 secs

     total energy              =    -151.35533472 Ry
     Harris-Foulkes estimate   =    -151.36763699 Ry
     estimated scf accuracy    <       0.05321745 Ry

     iteration # 13     ecut=    70.00 Ry     beta=0.70
     Davidson diagonalization with overlap
     ethr =  2.94E-06,  avg # of iterations =  4.1

     total cpu time spent up to now is        2.8 secs

     total energy              =    -151.52201021 Ry
     Harris-Foulkes estimate   =    -151.52251818 Ry
     estimated scf accuracy    <       0.22342114 Ry

     iteration # 14     ecut=    70.00 Ry     beta=0.70
     Davidson diagonalization with overlap
     ethr =  2.94E-06,  avg # of iterations =  1.0

     total cpu time spent up to now is        2.9 secs

     total energy              =    -151.52911612 Ry
     Harris-Foulkes estimate   =    -151.52201096 Ry
     estimated scf accuracy    <       0.22227161 Ry

     iteration # 15     ecut=    70.00 Ry     beta=0.70
     Davidson diagonalization with overlap
     ethr =  2.94E-06,  avg # of iterations =  2.2

     total cpu time spent up to now is        3.0 secs

     total energy              =    -151.54257206 Ry
     Harris-Foulkes estimate   =    -151.52918803 Ry
     estimated scf accuracy    <       0.24099485 Ry

     iteration # 16     ecut=    70.00 Ry     beta=0.70
     Davidson diagonalization with overlap
     ethr =  2.94E-06,  avg # of iterations =  3.2

     total cpu time spent up to now is        3.1 secs

     total energy              =    -151.57656594 Ry
     Harris-Foulkes estimate   =    -151.57230510 Ry
     estimated scf accuracy    <       0.34324718 Ry

     iteration # 17     ecut=    70.00 Ry     beta=0.70
     Davidson diagonalization with overlap
     ethr =  2.94E-06,  avg # of iterations =  1.5

     total cpu time spent up to now is        3.2 secs

     total energy              =    -151.61704951 Ry
     Harris-Foulkes estimate   =    -151.57658380 Ry
     estimated scf accuracy    <       0.35424697 Ry

     iteration # 18     ecut=    70.00 Ry     beta=0.70
     Davidson diagonalization with overlap
     ethr =  2.94E-06,  avg # of iterations =  4.8

     total cpu time spent up to now is        3.4 secs

     total energy              =    -151.85439011 Ry
     Harris-Foulkes estimate   =    -151.83247453 Ry
     estimated scf accuracy    <       1.26218366 Ry

     iteration # 19     ecut=    70.00 Ry     beta=0.70
     Davidson diagonalization with overlap
     ethr =  2.94E-06,  avg # of iterations =  3.0

     total cpu time spent up to now is        3.5 secs

     total energy              =    -151.54043211 Ry
     Harris-Foulkes estimate   =    -152.00353179 Ry
     estimated scf accuracy    <       1.99116622 Ry

     iteration # 20     ecut=    70.00 Ry     beta=0.70
     Davidson diagonalization with overlap
     ethr =  2.94E-06,  avg # of iterations =  4.7

     total cpu time spent up to now is        3.6 secs

     total energy              =    -151.86011898 Ry
     Harris-Foulkes estimate   =    -151.60610079 Ry
     estimated scf accuracy    <       0.50193671 Ry

     iteration # 21     ecut=    70.00 Ry     beta=0.70
     Davidson diagonalization with overlap
     ethr =  2.94E-06,  avg # of iterations =  4.3

     total cpu time spent up to now is        3.8 secs

     total energy              =    -151.63913213 Ry
     Harris-Foulkes estimate   =    -151.93733297 Ry
     estimated scf accuracy    <       1.78921896 Ry

     iteration # 22     ecut=    70.00 Ry     beta=0.70
     Davidson diagonalization with overlap
     ethr =  2.94E-06,  avg # of iterations =  4.4

     total cpu time spent up to now is        3.9 secs

     total energy              =    -151.65423320 Ry
     Harris-Foulkes estimate   =    -151.66620689 Ry
     estimated scf accuracy    <       0.82641930 Ry

     iteration # 23     ecut=    70.00 Ry     beta=0.70
     Davidson diagonalization with overlap
     ethr =  2.94E-06,  avg # of iterations =  3.0

     total cpu time spent up to now is        4.0 secs

     total energy              =    -151.71556192 Ry
     Harris-Foulkes estimate   =    -151.65435245 Ry
     estimated scf accuracy    <       0.78583429 Ry

     iteration # 24     ecut=    70.00 Ry     beta=0.70
     Davidson diagonalization with overlap
     ethr =  2.94E-06,  avg # of iterations =  3.6

     total cpu time spent up to now is        4.2 secs

     total energy              =    -151.67428218 Ry
     Harris-Foulkes estimate   =    -151.71883462 Ry
     estimated scf accuracy    <       1.06141474 Ry

     iteration # 25     ecut=    70.00 Ry     beta=0.70
     Davidson diagonalization with overlap
     ethr =  2.94E-06,  avg # of iterations =  3.6

     total cpu time spent up to now is        4.3 secs

     total energy              =    -151.40229178 Ry
     Harris-Foulkes estimate   =    -151.67535786 Ry
     estimated scf accuracy    <       0.91001700 Ry

     iteration # 26     ecut=    70.00 Ry     beta=0.70
     Davidson diagonalization with overlap
     ethr =  2.94E-06,  avg # of iterations =  5.0

     total cpu time spent up to now is        4.4 secs

     total energy              =    -151.51761858 Ry
     Harris-Foulkes estimate   =    -151.53984702 Ry
     estimated scf accuracy    <       0.05026834 Ry

     iteration # 27     ecut=    70.00 Ry     beta=0.70
     Davidson diagonalization with overlap
     ethr =  2.94E-06,  avg # of iterations =  4.7

     total cpu time spent up to now is        4.6 secs

     total energy              =    -151.52870018 Ry
     Harris-Foulkes estimate   =    -151.54154384 Ry
     estimated scf accuracy    <       0.06736210 Ry

     iteration # 28     ecut=    70.00 Ry     beta=0.70
     Davidson diagonalization with overlap
     ethr =  2.94E-06,  avg # of iterations =  4.1

     total cpu time spent up to now is        4.7 secs

     total energy              =    -151.53282490 Ry
     Harris-Foulkes estimate   =    -151.53343179 Ry
     estimated scf accuracy    <       0.00185922 Ry

     iteration # 29     ecut=    70.00 Ry     beta=0.70
     Davidson diagonalization with overlap
     ethr =  2.94E-06,  avg # of iterations =  3.5

     total cpu time spent up to now is        4.8 secs

     total energy              =    -151.53317476 Ry
     Harris-Foulkes estimate   =    -151.53328409 Ry
     estimated scf accuracy    <       0.00058566 Ry

     iteration # 30     ecut=    70.00 Ry     beta=0.70
     Davidson diagonalization with overlap
     ethr =  2.94E-06,  avg # of iterations =  2.4

     total cpu time spent up to now is        4.9 secs

     total energy              =    -151.53321235 Ry
     Harris-Foulkes estimate   =    -151.53321436 Ry
     estimated scf accuracy    <       0.00002325 Ry

     iteration # 31     ecut=    70.00 Ry     beta=0.70
     Davidson diagonalization with overlap
     ethr =  1.45E-07,  avg # of iterations =  1.9

     total cpu time spent up to now is        5.0 secs

     total energy              =    -151.53321196 Ry
     Harris-Foulkes estimate   =    -151.53321378 Ry
     estimated scf accuracy    <       0.00001337 Ry

     iteration # 32     ecut=    70.00 Ry     beta=0.70
     Davidson diagonalization with overlap
     ethr =  8.36E-08,  avg # of iterations =  2.6

     total cpu time spent up to now is        5.1 secs

     total energy              =    -151.53321351 Ry
     Harris-Foulkes estimate   =    -151.53321334 Ry
     estimated scf accuracy    <       0.00000016 Ry

     iteration # 33     ecut=    70.00 Ry     beta=0.70
     Davidson diagonalization with overlap
     ethr =  9.80E-10,  avg # of iterations =  4.4

     total cpu time spent up to now is        5.2 secs

     total energy              =    -151.53321329 Ry
     Harris-Foulkes estimate   =    -151.53321375 Ry
     estimated scf accuracy    <       0.00000311 Ry

     iteration # 34     ecut=    70.00 Ry     beta=0.70
     Davidson diagonalization with overlap
     ethr =  9.80E-10,  avg # of iterations =  3.4

     total cpu time spent up to now is        5.3 secs

     total energy              =    -151.53321342 Ry
     Harris-Foulkes estimate   =    -151.53321341 Ry
     estimated scf accuracy    <       0.00000046 Ry

     iteration # 35     ecut=    70.00 Ry     beta=0.70
     Davidson diagonalization with overlap
     ethr =  9.80E-10,  avg # of iterations =  1.0

     total cpu time spent up to now is        5.4 secs

     total energy              =    -151.53321341 Ry
     Harris-Foulkes estimate   =    -151.53321342 Ry
     estimated scf accuracy    <       0.00000048 Ry

     iteration # 36     ecut=    70.00 Ry     beta=0.70
     Davidson diagonalization with overlap
     ethr =  9.80E-10,  avg # of iterations =  1.0

     total cpu time spent up to now is        5.5 secs

     total energy              =    -151.53321339 Ry
     Harris-Foulkes estimate   =    -151.53321341 Ry
     estimated scf accuracy    <       0.00000046 Ry

     iteration # 37     ecut=    70.00 Ry     beta=0.70
     Davidson diagonalization with overlap
     ethr =  9.80E-10,  avg # of iterations =  1.0

     total cpu time spent up to now is        5.6 secs

     total energy              =    -151.53321339 Ry
     Harris-Foulkes estimate   =    -151.53321339 Ry
     estimated scf accuracy    <       0.00000037 Ry

     iteration # 38     ecut=    70.00 Ry     beta=0.70
     Davidson diagonalization with overlap
     ethr =  9.80E-10,  avg # of iterations =  1.0

     total cpu time spent up to now is        5.7 secs

     total energy              =    -151.53321337 Ry
     Harris-Foulkes estimate   =    -151.53321339 Ry
     estimated scf accuracy    <       0.00000035 Ry

     iteration # 39     ecut=    70.00 Ry     beta=0.70
     Davidson diagonalization with overlap
     ethr =  9.80E-10,  avg # of iterations =  1.0

     total cpu time spent up to now is        5.8 secs

     total energy              =    -151.53321338 Ry
     Harris-Foulkes estimate   =    -151.53321337 Ry
     estimated scf accuracy    <       0.00000027 Ry

     iteration # 40     ecut=    70.00 Ry     beta=0.70
     Davidson diagonalization with overlap
     ethr =  9.80E-10,  avg # of iterations =  1.0

     total cpu time spent up to now is        5.9 secs

     total energy              =    -151.53321339 Ry
     Harris-Foulkes estimate   =    -151.53321338 Ry
     estimated scf accuracy    <       0.00000028 Ry

     iteration # 41     ecut=    70.00 Ry     beta=0.70
     Davidson diagonalization with overlap
     ethr =  9.80E-10,  avg # of iterations =  1.0

     total cpu time spent up to now is        5.9 secs

     total energy              =    -151.53321338 Ry
     Harris-Foulkes estimate   =    -151.53321339 Ry
     estimated scf accuracy    <       0.00000031 Ry

     iteration # 42     ecut=    70.00 Ry     beta=0.70
     Davidson diagonalization with overlap
     ethr =  9.80E-10,  avg # of iterations =  1.0

     total cpu time spent up to now is        6.0 secs

     total energy              =    -151.53321325 Ry
     Harris-Foulkes estimate   =    -151.53321338 Ry
     estimated scf accuracy    <       0.00000027 Ry

     iteration # 43     ecut=    70.00 Ry     beta=0.70
     Davidson diagonalization with overlap
     ethr =  9.80E-10,  avg # of iterations =  3.5

     total cpu time spent up to now is        6.2 secs

     total energy              =    -151.53321333 Ry
     Harris-Foulkes estimate   =    -151.53321344 Ry
     estimated scf accuracy    <       0.00000070 Ry

     iteration # 44     ecut=    70.00 Ry     beta=0.70
     Davidson diagonalization with overlap
     ethr =  9.80E-10,  avg # of iterations =  2.9

     total cpu time spent up to now is        6.3 secs

     total energy              =    -151.53321334 Ry
     Harris-Foulkes estimate   =    -151.53321336 Ry
     estimated scf accuracy    <       0.00000008 Ry

     iteration # 45     ecut=    70.00 Ry     beta=0.70
     Davidson diagonalization with overlap
     ethr =  5.17E-10,  avg # of iterations =  2.9

     total cpu time spent up to now is        6.4 secs

     total energy              =    -151.53321335 Ry
     Harris-Foulkes estimate   =    -151.53321336 Ry
     estimated scf accuracy    <       0.00000002 Ry

     iteration # 46     ecut=    70.00 Ry     beta=0.70
     Davidson diagonalization with overlap
     ethr =  1.26E-10,  avg # of iterations =  2.6

     total cpu time spent up to now is        6.5 secs

     End of self-consistent calculation

          k = 0.0000 0.0000 0.0000 (  4945 PWs)   bands (ev):

   -78.7214 -45.4191 -45.4191 -45.4191 -15.5689  -2.4485  -0.9470  -0.9470

          k = 0.0000 0.0000 0.2500 (  4925 PWs)   bands (ev):

   -78.7214 -45.4185 -45.4185 -45.4185 -15.5572  -2.5025  -0.9022  -0.9022

          k = 0.0000 0.0000-0.5000 (  4918 PWs)   bands (ev):

   -78.7214 -45.4185 -45.4185 -45.4185 -15.5454  -2.5830  -0.8566  -0.8566

          k = 0.0000 0.2500 0.2500 (  4943 PWs)   bands (ev):

   -78.7214 -45.4191 -45.4190 -45.4186 -15.5463  -2.3146  -1.2511  -0.8651

          k = 0.0000 0.2500-0.5000 (  4888 PWs)   bands (ev):

   -78.7214 -45.4179 -45.4179 -45.4176 -15.5354  -2.2004  -1.2580  -0.8265

          k = 0.0000-0.5000-0.5000 (  4844 PWs)   bands (ev):

   -78.7214 -45.4172 -45.4168 -45.4168 -15.5253  -1.5524  -1.5524  -0.7958

          k = 0.2500 0.2500 0.2500 (  4932 PWs)   bands (ev):

   -78.7214 -45.4190 -45.4187 -45.4187 -15.5361  -2.0727  -1.1539  -1.1539

          k = 0.2500 0.2500-0.5000 (  4896 PWs)   bands (ev):

   -78.7214 -45.4183 -45.4182 -45.4178 -15.5258  -1.8720  -1.2353  -1.0505

          k = 0.2500-0.5000-0.5000 (  4904 PWs)   bands (ev):

   -78.7214 -45.4186 -45.4182 -45.4182 -15.5162  -1.4056  -1.4056  -1.0305

          k =-0.5000-0.5000-0.5000 (  4896 PWs)   bands (ev):

   -78.7214 -45.4184 -45.4184 -45.4184 -15.5071  -1.2407  -1.2407  -1.2407

     highest occupied level (ev):    -0.7958

!    total energy              =    -151.53321335 Ry
     Harris-Foulkes estimate   =    -151.53321335 Ry
     estimated scf accuracy    <          6.6E-10 Ry

     The total energy is the sum of the following terms:

     one-electron contribution =    -128.70959701 Ry
     hartree contribution      =      61.66833627 Ry
     xc contribution           =     -23.62013776 Ry
     ewald contribution        =     -60.87181485 Ry

     convergence has been achieved in  46 iterations

     Forces acting on atoms (cartesian axes, Ry/au):

     atom    1 type  1   force =     0.00000000    0.00000000    0.00000000
     atom    2 type  2   force =     0.00000000    0.00000000    0.00000000

     Total force =     0.000000     Total SCF correction =     0.000000


     Computing stress (Cartesian axis) and pressure

          total   stress  (Ry/bohr**3)                   (kbar)     P= -124.36
  -0.00084540   0.00000000   0.00000000       -124.36      0.00      0.00
   0.00000000  -0.00084540   0.00000000          0.00   -124.36      0.00
   0.00000000   0.00000000  -0.00084540          0.00      0.00   -124.36


     Writing output data file diamond.7.9200.70.4.save
 
     init_run     :      0.08s CPU      0.96s WALL (       1 calls)
     electrons    :      4.83s CPU      5.01s WALL (       1 calls)
     forces       :      0.02s CPU      0.02s WALL (       1 calls)
     stress       :      0.06s CPU      0.06s WALL (       1 calls)

     Called by init_run:
     wfcinit      :      0.04s CPU      0.46s WALL (       1 calls)
     potinit      :      0.01s CPU      0.01s WALL (       1 calls)

     Called by electrons:
     c_bands      :      3.86s CPU      4.02s WALL (      46 calls)
     sum_band     :      0.69s CPU      0.70s WALL (      46 calls)
     v_of_rho     :      0.22s CPU      0.22s WALL (      47 calls)
     mix_rho      :      0.06s CPU      0.06s WALL (      46 calls)

     Called by c_bands:
     init_us_2    :      0.15s CPU      0.14s WALL (     950 calls)
     cegterg      :      3.53s CPU      3.68s WALL (     460 calls)

     Called by sum_band:

     Called by *egterg:
     h_psi        :      3.05s CPU      3.19s WALL (    1693 calls)
     g_psi        :      0.01s CPU      0.01s WALL (    1223 calls)
     cdiaghg      :      0.24s CPU      0.66s WALL (    1683 calls)

     Called by h_psi:
     h_psi:pot    :      3.04s CPU      3.17s WALL (    1693 calls)
     h_psi:calbec :      0.10s CPU      0.13s WALL (    1693 calls)
     vloc_psi     :      2.90s CPU      2.99s WALL (    1693 calls)
     add_vuspsi   :      0.03s CPU      0.04s WALL (    1693 calls)

     General routines
     calbec       :      0.10s CPU      0.13s WALL (    1743 calls)
     fft          :      0.11s CPU      0.56s WALL (     541 calls)
     fftw         :      3.33s CPU      3.31s WALL (   22934 calls)
     davcio       :      0.00s CPU      0.00s WALL (      10 calls)
 
     Parallel routines
     fft_scatter  :      0.59s CPU      0.67s WALL (   23475 calls)
 
     PWSCF        :     5.13s CPU         6.60s WALL

 
   This run was terminated on:  15:55:41  19Apr2018            

=------------------------------------------------------------------------------=
   JOB DONE.
=------------------------------------------------------------------------------=
