
     Program PWSCF v.6.1 (svn rev. 13369) starts on 19Apr2018 at 15:28:41 

     This program is part of the open-source Quantum ESPRESSO suite
     for quantum simulation of materials; please cite
         "P. Giannozzi et al., J. Phys.:Condens. Matter 21 395502 (2009);
          URL http://www.quantum-espresso.org", 
     in publications or presentations arising from this work. More details at
     http://www.quantum-espresso.org/quote

     Parallel version (MPI), running on     8 processors
     R & G space division:  proc/nbgrp/npool/nimage =       8
     Waiting for input...
     Reading input from standard input

     Current dimensions of program PWSCF are:
     Max number of different atomic species (ntypx) = 10
     Max number of k-points (npk) =  40000
     Max angular momentum in pseudopotentials (lmaxx) =  3

     Subspace diagonalization in iterative solution of the eigenvalue problem:
     a serial algorithm will be used

 
     Parallelization info
     --------------------
     sticks:   dense  smooth     PW     G-vecs:    dense   smooth      PW
     Min         179     179     52                 5059     5059     798
     Max         180     180     53                 5062     5062     801
     Sum        1433    1433    421                40483    40483    6403
 


     bravais-lattice index     =            8
     lattice parameter (alat)  =       7.9960  a.u.
     unit-cell volume          =     511.2324 (a.u.)^3
     number of atoms/cell      =            2
     number of atomic types    =            2
     number of electrons       =        16.00
     number of Kohn-Sham states=            8
     kinetic-energy cutoff     =      70.0000  Ry
     charge density cutoff     =     280.0000  Ry
     convergence threshold     =      1.0E-08
     mixing beta               =       0.7000
     number of iterations used =            8  plain     mixing
     Exchange-correlation      = PBE ( 1  4  3  4 0 0)

     celldm(1)=   7.996000  celldm(2)=   1.000000  celldm(3)=   1.000000
     celldm(4)=   0.000000  celldm(5)=   0.000000  celldm(6)=   0.000000

     crystal axes: (cart. coord. in units of alat)
               a(1) = (   1.000000   0.000000   0.000000 )  
               a(2) = (   0.000000   1.000000   0.000000 )  
               a(3) = (   0.000000   0.000000   1.000000 )  

     reciprocal axes: (cart. coord. in units 2 pi/alat)
               b(1) = (  1.000000  0.000000  0.000000 )  
               b(2) = (  0.000000  1.000000  0.000000 )  
               b(3) = (  0.000000  0.000000  1.000000 )  


     PseudoPot. # 1 for Mg read from file:
     ../pseudo/Mg.pbe.UPF
     MD5 check sum: 4c04d8c6e0476e83eaecaf72fa8acc4d
     Pseudo is Norm-conserving, Zval = 10.0
     Generated using ONCVPSP code by D. R. Hamann
     Using radial grid of 1510 points,  4 beta functions with: 
                l(1) =   0
                l(2) =   0
                l(3) =   1
                l(4) =   1

     PseudoPot. # 2 for O  read from file:
     ../pseudo/O.pbe.UPF
     MD5 check sum: 3e3f909f7470e8921608ab6b1f57bbae
     Pseudo is Norm-conserving + core correction, Zval =  6.0
     Generated using ONCVPSP code by D. R. Hamann
     Using radial grid of  936 points,  5 beta functions with: 
                l(1) =   0
                l(2) =   0
                l(3) =   1
                l(4) =   1
                l(5) =   2

     atomic species   valence    mass     pseudopotential
        Mg            10.00    24.30500     Mg( 1.00)
        O              6.00    15.99940     O ( 1.00)

     48 Sym. Ops., with inversion, found



   Cartesian axes

     site n.     atom                  positions (alat units)
         1           Mg  tau(   1) = (   0.0000000   0.0000000   0.0000000  )
         2           O   tau(   2) = (   0.5000000   0.5000000   0.5000000  )

     number of k points=    10
                       cart. coord. in units 2pi/alat
        k(    1) = (   0.0000000   0.0000000   0.0000000), wk =   0.0312500
        k(    2) = (   0.0000000   0.0000000   0.2500000), wk =   0.1875000
        k(    3) = (   0.0000000   0.0000000  -0.5000000), wk =   0.0937500
        k(    4) = (   0.0000000   0.2500000   0.2500000), wk =   0.3750000
        k(    5) = (   0.0000000   0.2500000  -0.5000000), wk =   0.3750000
        k(    6) = (   0.0000000  -0.5000000  -0.5000000), wk =   0.0937500
        k(    7) = (   0.2500000   0.2500000   0.2500000), wk =   0.2500000
        k(    8) = (   0.2500000   0.2500000  -0.5000000), wk =   0.3750000
        k(    9) = (   0.2500000  -0.5000000  -0.5000000), wk =   0.1875000
        k(   10) = (  -0.5000000  -0.5000000  -0.5000000), wk =   0.0312500

     Dense  grid:    40483 G-vectors     FFT dimensions: (  45,  45,  45)

     Estimated max dynamical RAM per process >       4.33MB

     Estimated total allocated dynamical RAM >      34.66MB

     Check: negative/imaginary core charge=   -0.000003    0.000000

     Initial potential from superposition of free atoms

     starting charge   15.99920, renormalised to   16.00000
     Starting wfc are    9 randomized atomic wfcs

     total cpu time spent up to now is        0.2 secs

     per-process dynamical memory:    41.3 Mb

     Self-consistent Calculation

     iteration #  1     ecut=    70.00 Ry     beta=0.70
     Davidson diagonalization with overlap
     ethr =  1.00E-02,  avg # of iterations =  2.0

     total cpu time spent up to now is        0.3 secs

     total energy              =    -150.45779415 Ry
     Harris-Foulkes estimate   =    -151.88673036 Ry
     estimated scf accuracy    <       1.80338581 Ry

     iteration #  2     ecut=    70.00 Ry     beta=0.70
     Davidson diagonalization with overlap
     ethr =  1.00E-02,  avg # of iterations =  5.4

     total cpu time spent up to now is        0.5 secs

     total energy              =    -150.12329603 Ry
     Harris-Foulkes estimate   =    -154.49024742 Ry
     estimated scf accuracy    <      15.42908237 Ry

     iteration #  3     ecut=    70.00 Ry     beta=0.70
     Davidson diagonalization with overlap
     ethr =  1.00E-02,  avg # of iterations =  4.0

     total cpu time spent up to now is        0.6 secs

     total energy              =    -151.50203132 Ry
     Harris-Foulkes estimate   =    -151.34484031 Ry
     estimated scf accuracy    <       0.58649803 Ry

     iteration #  4     ecut=    70.00 Ry     beta=0.70
     Davidson diagonalization with overlap
     ethr =  3.67E-03,  avg # of iterations =  1.9

     total cpu time spent up to now is        0.7 secs

     total energy              =    -151.06544308 Ry
     Harris-Foulkes estimate   =    -151.53430269 Ry
     estimated scf accuracy    <       1.43871502 Ry

     iteration #  5     ecut=    70.00 Ry     beta=0.70
     Davidson diagonalization with overlap
     ethr =  3.67E-03,  avg # of iterations =  2.6

     total cpu time spent up to now is        0.8 secs

     total energy              =    -151.24791838 Ry
     Harris-Foulkes estimate   =    -151.25204306 Ry
     estimated scf accuracy    <       0.04663574 Ry

     iteration #  6     ecut=    70.00 Ry     beta=0.70
     Davidson diagonalization with overlap
     ethr =  2.91E-04,  avg # of iterations =  1.0

     total cpu time spent up to now is        0.9 secs

     total energy              =    -151.24434187 Ry
     Harris-Foulkes estimate   =    -151.24826987 Ry
     estimated scf accuracy    <       0.03749991 Ry

     iteration #  7     ecut=    70.00 Ry     beta=0.70
     Davidson diagonalization with overlap
     ethr =  2.34E-04,  avg # of iterations =  1.0

     total cpu time spent up to now is        0.9 secs

     total energy              =    -151.24277543 Ry
     Harris-Foulkes estimate   =    -151.24468054 Ry
     estimated scf accuracy    <       0.02595050 Ry

     iteration #  8     ecut=    70.00 Ry     beta=0.70
     Davidson diagonalization with overlap
     ethr =  1.62E-04,  avg # of iterations =  1.0

     total cpu time spent up to now is        1.0 secs

     total energy              =    -151.23951267 Ry
     Harris-Foulkes estimate   =    -151.24289658 Ry
     estimated scf accuracy    <       0.02119584 Ry

     iteration #  9     ecut=    70.00 Ry     beta=0.70
     Davidson diagonalization with overlap
     ethr =  1.32E-04,  avg # of iterations =  1.1

     total cpu time spent up to now is        1.1 secs

     total energy              =    -151.24066693 Ry
     Harris-Foulkes estimate   =    -151.23984360 Ry
     estimated scf accuracy    <       0.01219620 Ry

     iteration # 10     ecut=    70.00 Ry     beta=0.70
     Davidson diagonalization with overlap
     ethr =  7.62E-05,  avg # of iterations =  1.0

     total cpu time spent up to now is        1.2 secs

     total energy              =    -151.23400605 Ry
     Harris-Foulkes estimate   =    -151.24069410 Ry
     estimated scf accuracy    <       0.01381358 Ry

     iteration # 11     ecut=    70.00 Ry     beta=0.70
     Davidson diagonalization with overlap
     ethr =  7.62E-05,  avg # of iterations =  2.1

     total cpu time spent up to now is        1.3 secs

     total energy              =    -151.23505008 Ry
     Harris-Foulkes estimate   =    -151.23541076 Ry
     estimated scf accuracy    <       0.00104026 Ry

     iteration # 12     ecut=    70.00 Ry     beta=0.70
     Davidson diagonalization with overlap
     ethr =  6.50E-06,  avg # of iterations =  3.0

     total cpu time spent up to now is        1.4 secs

     total energy              =    -151.28445017 Ry
     Harris-Foulkes estimate   =    -151.28502682 Ry
     estimated scf accuracy    <       0.00259979 Ry

     iteration # 13     ecut=    70.00 Ry     beta=0.70
     Davidson diagonalization with overlap
     ethr =  6.50E-06,  avg # of iterations =  1.8

     total cpu time spent up to now is        1.5 secs

     total energy              =    -151.28398850 Ry
     Harris-Foulkes estimate   =    -151.28449050 Ry
     estimated scf accuracy    <       0.00132626 Ry

     iteration # 14     ecut=    70.00 Ry     beta=0.70
     Davidson diagonalization with overlap
     ethr =  6.50E-06,  avg # of iterations =  2.1

     total cpu time spent up to now is        1.6 secs

     total energy              =    -151.28394529 Ry
     Harris-Foulkes estimate   =    -151.28407809 Ry
     estimated scf accuracy    <       0.00025479 Ry

     iteration # 15     ecut=    70.00 Ry     beta=0.70
     Davidson diagonalization with overlap
     ethr =  1.59E-06,  avg # of iterations =  2.8

     total cpu time spent up to now is        1.7 secs

     total energy              =    -151.34657030 Ry
     Harris-Foulkes estimate   =    -151.34699489 Ry
     estimated scf accuracy    <       0.01470991 Ry

     iteration # 16     ecut=    70.00 Ry     beta=0.70
     Davidson diagonalization with overlap
     ethr =  1.59E-06,  avg # of iterations =  1.2

     total cpu time spent up to now is        1.8 secs

     total energy              =    -151.34631094 Ry
     Harris-Foulkes estimate   =    -151.34657522 Ry
     estimated scf accuracy    <       0.01361875 Ry

     iteration # 17     ecut=    70.00 Ry     beta=0.70
     Davidson diagonalization with overlap
     ethr =  1.59E-06,  avg # of iterations =  1.0

     total cpu time spent up to now is        1.9 secs

     total energy              =    -151.34618094 Ry
     Harris-Foulkes estimate   =    -151.34631412 Ry
     estimated scf accuracy    <       0.01289777 Ry

     iteration # 18     ecut=    70.00 Ry     beta=0.70
     Davidson diagonalization with overlap
     ethr =  1.59E-06,  avg # of iterations =  1.0

     total cpu time spent up to now is        1.9 secs

     total energy              =    -151.34809115 Ry
     Harris-Foulkes estimate   =    -151.34618241 Ry
     estimated scf accuracy    <       0.01256074 Ry

     iteration # 19     ecut=    70.00 Ry     beta=0.70
     Davidson diagonalization with overlap
     ethr =  1.59E-06,  avg # of iterations =  3.6

     total cpu time spent up to now is        2.1 secs

     total energy              =    -151.54085148 Ry
     Harris-Foulkes estimate   =    -151.52936502 Ry
     estimated scf accuracy    <       0.27004412 Ry

     iteration # 20     ecut=    70.00 Ry     beta=0.70
     Davidson diagonalization with overlap
     ethr =  1.59E-06,  avg # of iterations =  3.3

     total cpu time spent up to now is        2.2 secs

     total energy              =    -151.61383679 Ry
     Harris-Foulkes estimate   =    -151.63662525 Ry
     estimated scf accuracy    <       0.63047695 Ry

     iteration # 21     ecut=    70.00 Ry     beta=0.70
     Davidson diagonalization with overlap
     ethr =  1.59E-06,  avg # of iterations =  4.0

     total cpu time spent up to now is        2.3 secs

     total energy              =    -151.77127716 Ry
     Harris-Foulkes estimate   =    -151.77389435 Ry
     estimated scf accuracy    <       1.26198003 Ry

     iteration # 22     ecut=    70.00 Ry     beta=0.70
     Davidson diagonalization with overlap
     ethr =  1.59E-06,  avg # of iterations =  1.0

     total cpu time spent up to now is        2.4 secs

     total energy              =    -151.76810655 Ry
     Harris-Foulkes estimate   =    -151.77127917 Ry
     estimated scf accuracy    <       1.25474975 Ry

     iteration # 23     ecut=    70.00 Ry     beta=0.70
     Davidson diagonalization with overlap
     ethr =  1.59E-06,  avg # of iterations =  1.5

     total cpu time spent up to now is        2.5 secs

     total energy              =    -151.75568466 Ry
     Harris-Foulkes estimate   =    -151.76811242 Ry
     estimated scf accuracy    <       1.24303444 Ry

     iteration # 24     ecut=    70.00 Ry     beta=0.70
     Davidson diagonalization with overlap
     ethr =  1.59E-06,  avg # of iterations =  3.2

     total cpu time spent up to now is        2.6 secs

     total energy              =    -151.82395819 Ry
     Harris-Foulkes estimate   =    -151.78478140 Ry
     estimated scf accuracy    <       1.35502884 Ry

     iteration # 25     ecut=    70.00 Ry     beta=0.70
     Davidson diagonalization with overlap
     ethr =  1.59E-06,  avg # of iterations =  3.0

     total cpu time spent up to now is        2.7 secs

     total energy              =    -151.78502176 Ry
     Harris-Foulkes estimate   =    -151.82448506 Ry
     estimated scf accuracy    <       1.48516364 Ry

     iteration # 26     ecut=    70.00 Ry     beta=0.70
     Davidson diagonalization with overlap
     ethr =  1.59E-06,  avg # of iterations =  3.0

     total cpu time spent up to now is        2.8 secs

     total energy              =    -151.80462723 Ry
     Harris-Foulkes estimate   =    -151.78551466 Ry
     estimated scf accuracy    <       1.35723273 Ry

     iteration # 27     ecut=    70.00 Ry     beta=0.70
     Davidson diagonalization with overlap
     ethr =  1.59E-06,  avg # of iterations =  2.6

     total cpu time spent up to now is        2.9 secs

     total energy              =    -151.84820733 Ry
     Harris-Foulkes estimate   =    -151.80474243 Ry
     estimated scf accuracy    <       1.41827341 Ry

     iteration # 28     ecut=    70.00 Ry     beta=0.70
     Davidson diagonalization with overlap
     ethr =  1.59E-06,  avg # of iterations =  3.6

     total cpu time spent up to now is        3.0 secs

     total energy              =    -151.87368885 Ry
     Harris-Foulkes estimate   =    -151.84888635 Ry
     estimated scf accuracy    <       1.56539152 Ry

     iteration # 29     ecut=    70.00 Ry     beta=0.70
     Davidson diagonalization with overlap
     ethr =  1.59E-06,  avg # of iterations =  2.6

     total cpu time spent up to now is        3.1 secs

     total energy              =    -151.35477396 Ry
     Harris-Foulkes estimate   =    -151.87383794 Ry
     estimated scf accuracy    <       1.63894017 Ry

     iteration # 30     ecut=    70.00 Ry     beta=0.70
     Davidson diagonalization with overlap
     ethr =  1.59E-06,  avg # of iterations =  5.5

     total cpu time spent up to now is        3.3 secs

     total energy              =    -151.52277522 Ry
     Harris-Foulkes estimate   =    -151.52257744 Ry
     estimated scf accuracy    <       0.00261499 Ry

     iteration # 31     ecut=    70.00 Ry     beta=0.70
     Davidson diagonalization with overlap
     ethr =  1.59E-06,  avg # of iterations =  2.0

     total cpu time spent up to now is        3.4 secs

     total energy              =    -151.52401597 Ry
     Harris-Foulkes estimate   =    -151.52279285 Ry
     estimated scf accuracy    <       0.00171317 Ry

     iteration # 32     ecut=    70.00 Ry     beta=0.70
     Davidson diagonalization with overlap
     ethr =  1.59E-06,  avg # of iterations =  4.8

     total cpu time spent up to now is        3.5 secs

     total energy              =    -151.58451296 Ry
     Harris-Foulkes estimate   =    -151.54634213 Ry
     estimated scf accuracy    <       0.18747339 Ry

     iteration # 33     ecut=    70.00 Ry     beta=0.70
     Davidson diagonalization with overlap
     ethr =  1.59E-06,  avg # of iterations =  4.7

     total cpu time spent up to now is        3.7 secs

     total energy              =    -151.60007782 Ry
     Harris-Foulkes estimate   =    -151.59520622 Ry
     estimated scf accuracy    <       0.53861825 Ry

     iteration # 34     ecut=    70.00 Ry     beta=0.70
     Davidson diagonalization with overlap
     ethr =  1.59E-06,  avg # of iterations =  2.7

     total cpu time spent up to now is        3.8 secs

     total energy              =    -151.58816516 Ry
     Harris-Foulkes estimate   =    -151.60014109 Ry
     estimated scf accuracy    <       0.57153314 Ry

     iteration # 35     ecut=    70.00 Ry     beta=0.70
     Davidson diagonalization with overlap
     ethr =  1.59E-06,  avg # of iterations =  3.4

     total cpu time spent up to now is        3.9 secs

     total energy              =    -151.62523575 Ry
     Harris-Foulkes estimate   =    -151.58846716 Ry
     estimated scf accuracy    <       0.49841983 Ry

     iteration # 36     ecut=    70.00 Ry     beta=0.70
     Davidson diagonalization with overlap
     ethr =  1.59E-06,  avg # of iterations =  3.7

     total cpu time spent up to now is        4.0 secs

     total energy              =    -151.32462024 Ry
     Harris-Foulkes estimate   =    -151.62816422 Ry
     estimated scf accuracy    <       0.72986521 Ry

     iteration # 37     ecut=    70.00 Ry     beta=0.70
     Davidson diagonalization with overlap
     ethr =  1.59E-06,  avg # of iterations =  6.1

     total cpu time spent up to now is        4.2 secs

     total energy              =    -151.53342829 Ry
     Harris-Foulkes estimate   =    -151.62620104 Ry
     estimated scf accuracy    <       0.78296548 Ry

     iteration # 38     ecut=    70.00 Ry     beta=0.70
     Davidson diagonalization with overlap
     ethr =  1.59E-06,  avg # of iterations =  5.0

     total cpu time spent up to now is        4.4 secs

     total energy              =    -151.53501501 Ry
     Harris-Foulkes estimate   =    -151.55087255 Ry
     estimated scf accuracy    <       0.23279645 Ry

     iteration # 39     ecut=    70.00 Ry     beta=0.70
     Davidson diagonalization with overlap
     ethr =  1.59E-06,  avg # of iterations =  4.3

     total cpu time spent up to now is        4.5 secs

     total energy              =    -151.53050867 Ry
     Harris-Foulkes estimate   =    -151.53662705 Ry
     estimated scf accuracy    <       0.12915986 Ry

     iteration # 40     ecut=    70.00 Ry     beta=0.70
     Davidson diagonalization with overlap
     ethr =  1.59E-06,  avg # of iterations =  3.9

     total cpu time spent up to now is        4.6 secs

     total energy              =    -151.53983044 Ry
     Harris-Foulkes estimate   =    -151.53091840 Ry
     estimated scf accuracy    <       0.08857310 Ry

     iteration # 41     ecut=    70.00 Ry     beta=0.70
     Davidson diagonalization with overlap
     ethr =  1.59E-06,  avg # of iterations =  4.2

     total cpu time spent up to now is        4.7 secs

     total energy              =    -151.50181012 Ry
     Harris-Foulkes estimate   =    -151.54090914 Ry
     estimated scf accuracy    <       0.15759529 Ry

     iteration # 42     ecut=    70.00 Ry     beta=0.70
     Davidson diagonalization with overlap
     ethr =  1.59E-06,  avg # of iterations =  4.9

     total cpu time spent up to now is        4.9 secs

     total energy              =    -151.51878719 Ry
     Harris-Foulkes estimate   =    -151.51889881 Ry
     estimated scf accuracy    <       0.00020177 Ry

     iteration # 43     ecut=    70.00 Ry     beta=0.70
     Davidson diagonalization with overlap
     ethr =  1.26E-06,  avg # of iterations =  3.3

     total cpu time spent up to now is        5.0 secs

     total energy              =    -151.51870341 Ry
     Harris-Foulkes estimate   =    -151.51885355 Ry
     estimated scf accuracy    <       0.00022710 Ry

     iteration # 44     ecut=    70.00 Ry     beta=0.70
     Davidson diagonalization with overlap
     ethr =  1.26E-06,  avg # of iterations =  3.8

     total cpu time spent up to now is        5.1 secs

     total energy              =    -151.51819427 Ry
     Harris-Foulkes estimate   =    -151.51960985 Ry
     estimated scf accuracy    <       0.00618675 Ry

     iteration # 45     ecut=    70.00 Ry     beta=0.70
     Davidson diagonalization with overlap
     ethr =  1.26E-06,  avg # of iterations =  3.5

     total cpu time spent up to now is        5.2 secs

     total energy              =    -151.51882384 Ry
     Harris-Foulkes estimate   =    -151.51882409 Ry
     estimated scf accuracy    <       0.00000091 Ry

     iteration # 46     ecut=    70.00 Ry     beta=0.70
     Davidson diagonalization with overlap
     ethr =  5.70E-09,  avg # of iterations =  2.3

     total cpu time spent up to now is        5.3 secs

     total energy              =    -151.51882399 Ry
     Harris-Foulkes estimate   =    -151.51882406 Ry
     estimated scf accuracy    <       0.00000028 Ry

     iteration # 47     ecut=    70.00 Ry     beta=0.70
     Davidson diagonalization with overlap
     ethr =  1.73E-09,  avg # of iterations =  2.2

     total cpu time spent up to now is        5.4 secs

     total energy              =    -151.51882401 Ry
     Harris-Foulkes estimate   =    -151.51882401 Ry
     estimated scf accuracy    <       0.00000001 Ry

     iteration # 48     ecut=    70.00 Ry     beta=0.70
     Davidson diagonalization with overlap
     ethr =  8.23E-11,  avg # of iterations =  3.5

     total cpu time spent up to now is        5.5 secs

     total energy              =    -151.51882402 Ry
     Harris-Foulkes estimate   =    -151.51882402 Ry
     estimated scf accuracy    <       0.00000006 Ry

     iteration # 49     ecut=    70.00 Ry     beta=0.70
     Davidson diagonalization with overlap
     ethr =  8.23E-11,  avg # of iterations =  2.9

     total cpu time spent up to now is        5.6 secs

     End of self-consistent calculation

          k = 0.0000 0.0000 0.0000 (  5041 PWs)   bands (ev):

   -78.7922 -45.4905 -45.4905 -45.4905 -15.7387  -2.5409  -1.1112  -1.1112

          k = 0.0000 0.0000 0.2500 (  5069 PWs)   bands (ev):

   -78.7922 -45.4913 -45.4909 -45.4909 -15.7283  -2.5910  -1.0700  -0.7621

          k = 0.0000 0.0000-0.5000 (  5078 PWs)   bands (ev):

   -78.7922 -45.4916 -45.4916 -45.4909 -15.7178  -2.6663  -1.0279  -1.0279

          k = 0.0000 0.2500 0.2500 (  5047 PWs)   bands (ev):

   -78.7922 -45.4908 -45.4907 -45.4905 -15.7186  -2.4075  -1.3939  -1.0351

          k = 0.0000 0.2500-0.5000 (  5066 PWs)   bands (ev):

   -78.7921 -45.4912 -45.4910 -45.4910 -15.7089  -2.2963  -1.3993  -0.9999

          k = 0.0000-0.5000-0.5000 (  5056 PWs)   bands (ev):

   -78.7921 -45.4911 -45.4906 -45.4906 -15.6999  -1.6763  -1.6763  -0.9716

          k = 0.2500 0.2500 0.2500 (  5070 PWs)   bands (ev):

   -78.7921 -45.4914 -45.4910 -45.4910 -15.7095  -2.1729  -1.3042  -1.3042

          k = 0.2500 0.2500-0.5000 (  5042 PWs)   bands (ev):

   -78.7921 -45.4910 -45.4904 -45.4903 -15.7003  -1.9807  -1.3779  -1.2087

          k = 0.2500-0.5000-0.5000 (  5048 PWs)   bands (ev):

   -78.7921 -45.4908 -45.4907 -45.4907 -15.6917  -1.5393  -1.5393  -1.1899

          k =-0.5000-0.5000-0.5000 (  5040 PWs)   bands (ev):

   -78.7921 -45.4905 -45.4905 -45.4905 -15.6835  -1.3870  -1.3870  -1.3870

     highest occupied level (ev):    -0.7621

!    total energy              =    -151.51882401 Ry
     Harris-Foulkes estimate   =    -151.51882402 Ry
     estimated scf accuracy    <          8.3E-09 Ry

     The total energy is the sum of the following terms:

     one-electron contribution =    -129.71921558 Ry
     hartree contribution      =      62.10469443 Ry
     xc contribution           =     -23.61105953 Ry
     ewald contribution        =     -60.29324332 Ry

     convergence has been achieved in  49 iterations

     Forces acting on atoms (cartesian axes, Ry/au):

     atom    1 type  1   force =     0.00000000    0.00000000    0.00000000
     atom    2 type  2   force =     0.00000000    0.00000000    0.00000000

     Total force =     0.000000     Total SCF correction =     0.000000


     Computing stress (Cartesian axis) and pressure

          total   stress  (Ry/bohr**3)                   (kbar)     P= -115.97
  -0.00078835   0.00000000   0.00000000       -115.97      0.00      0.00
   0.00000000  -0.00078835   0.00000000          0.00   -115.97      0.00
   0.00000000   0.00000000  -0.00078835          0.00      0.00   -115.97


     Writing output data file diamond.7.996.70.4.save
 
     init_run     :      0.09s CPU      0.10s WALL (       1 calls)
     electrons    :      5.28s CPU      5.42s WALL (       1 calls)
     forces       :      0.02s CPU      0.02s WALL (       1 calls)
     stress       :      0.05s CPU      0.06s WALL (       1 calls)

     Called by init_run:
     wfcinit      :      0.03s CPU      0.04s WALL (       1 calls)
     potinit      :      0.01s CPU      0.01s WALL (       1 calls)

     Called by electrons:
     c_bands      :      4.22s CPU      4.33s WALL (      49 calls)
     sum_band     :      0.73s CPU      0.75s WALL (      49 calls)
     v_of_rho     :      0.26s CPU      0.26s WALL (      50 calls)
     mix_rho      :      0.07s CPU      0.07s WALL (      49 calls)

     Called by c_bands:
     init_us_2    :      0.15s CPU      0.15s WALL (    1010 calls)
     cegterg      :      3.87s CPU      3.97s WALL (     490 calls)

     Called by sum_band:

     Called by *egterg:
     h_psi        :      3.25s CPU      3.33s WALL (    1941 calls)
     g_psi        :      0.02s CPU      0.03s WALL (    1441 calls)
     cdiaghg      :      0.24s CPU      0.25s WALL (    1931 calls)

     Called by h_psi:
     h_psi:pot    :      3.23s CPU      3.31s WALL (    1941 calls)
     h_psi:calbec :      0.16s CPU      0.15s WALL (    1941 calls)
     vloc_psi     :      3.01s CPU      3.09s WALL (    1941 calls)
     add_vuspsi   :      0.05s CPU      0.07s WALL (    1941 calls)

     General routines
     calbec       :      0.17s CPU      0.15s WALL (    1991 calls)
     fft          :      0.12s CPU      0.12s WALL (     574 calls)
     fftw         :      3.39s CPU      3.34s WALL (   25258 calls)
     davcio       :      0.00s CPU      0.00s WALL (      10 calls)
 
     Parallel routines
     fft_scatter  :      0.93s CPU      0.98s WALL (   25832 calls)
 
     PWSCF        :     5.63s CPU         5.83s WALL

 
   This run was terminated on:  15:28:47  19Apr2018            

=------------------------------------------------------------------------------=
   JOB DONE.
=------------------------------------------------------------------------------=
