
     Program PWSCF v.6.1 (svn rev. 13369) starts on 19Apr2018 at 15:55:56 

     This program is part of the open-source Quantum ESPRESSO suite
     for quantum simulation of materials; please cite
         "P. Giannozzi et al., J. Phys.:Condens. Matter 21 395502 (2009);
          URL http://www.quantum-espresso.org", 
     in publications or presentations arising from this work. More details at
     http://www.quantum-espresso.org/quote

     Parallel version (MPI), running on     8 processors
     R & G space division:  proc/nbgrp/npool/nimage =       8
     Waiting for input...
     Reading input from standard input

     Current dimensions of program PWSCF are:
     Max number of different atomic species (ntypx) = 10
     Max number of k-points (npk) =  40000
     Max angular momentum in pseudopotentials (lmaxx) =  3

     Subspace diagonalization in iterative solution of the eigenvalue problem:
     a serial algorithm will be used

 
     Parallelization info
     --------------------
     sticks:   dense  smooth     PW     G-vecs:    dense   smooth      PW
     Min         175     175     52                 4949     4949     779
     Max         176     176     53                 4952     4952     780
     Sum        1405    1405    421                39607    39607    6235
 


     bravais-lattice index     =            8
     lattice parameter (alat)  =       7.9329  a.u.
     unit-cell volume          =     499.2246 (a.u.)^3
     number of atoms/cell      =            2
     number of atomic types    =            2
     number of electrons       =        16.00
     number of Kohn-Sham states=            8
     kinetic-energy cutoff     =      70.0000  Ry
     charge density cutoff     =     280.0000  Ry
     convergence threshold     =      1.0E-08
     mixing beta               =       0.7000
     number of iterations used =            8  plain     mixing
     Exchange-correlation      = PBE ( 1  4  3  4 0 0)

     celldm(1)=   7.932900  celldm(2)=   1.000000  celldm(3)=   1.000000
     celldm(4)=   0.000000  celldm(5)=   0.000000  celldm(6)=   0.000000

     crystal axes: (cart. coord. in units of alat)
               a(1) = (   1.000000   0.000000   0.000000 )  
               a(2) = (   0.000000   1.000000   0.000000 )  
               a(3) = (   0.000000   0.000000   1.000000 )  

     reciprocal axes: (cart. coord. in units 2 pi/alat)
               b(1) = (  1.000000  0.000000  0.000000 )  
               b(2) = (  0.000000  1.000000  0.000000 )  
               b(3) = (  0.000000  0.000000  1.000000 )  


     PseudoPot. # 1 for Mg read from file:
     ../pseudo/Mg.pbe.UPF
     MD5 check sum: 4c04d8c6e0476e83eaecaf72fa8acc4d
     Pseudo is Norm-conserving, Zval = 10.0
     Generated using ONCVPSP code by D. R. Hamann
     Using radial grid of 1510 points,  4 beta functions with: 
                l(1) =   0
                l(2) =   0
                l(3) =   1
                l(4) =   1

     PseudoPot. # 2 for O  read from file:
     ../pseudo/O.pbe.UPF
     MD5 check sum: 3e3f909f7470e8921608ab6b1f57bbae
     Pseudo is Norm-conserving + core correction, Zval =  6.0
     Generated using ONCVPSP code by D. R. Hamann
     Using radial grid of  936 points,  5 beta functions with: 
                l(1) =   0
                l(2) =   0
                l(3) =   1
                l(4) =   1
                l(5) =   2

     atomic species   valence    mass     pseudopotential
        Mg            10.00    24.30500     Mg( 1.00)
        O              6.00    15.99940     O ( 1.00)

     48 Sym. Ops., with inversion, found



   Cartesian axes

     site n.     atom                  positions (alat units)
         1           Mg  tau(   1) = (   0.0000000   0.0000000   0.0000000  )
         2           O   tau(   2) = (   0.5000000   0.5000000   0.5000000  )

     number of k points=    10
                       cart. coord. in units 2pi/alat
        k(    1) = (   0.0000000   0.0000000   0.0000000), wk =   0.0312500
        k(    2) = (   0.0000000   0.0000000   0.2500000), wk =   0.1875000
        k(    3) = (   0.0000000   0.0000000  -0.5000000), wk =   0.0937500
        k(    4) = (   0.0000000   0.2500000   0.2500000), wk =   0.3750000
        k(    5) = (   0.0000000   0.2500000  -0.5000000), wk =   0.3750000
        k(    6) = (   0.0000000  -0.5000000  -0.5000000), wk =   0.0937500
        k(    7) = (   0.2500000   0.2500000   0.2500000), wk =   0.2500000
        k(    8) = (   0.2500000   0.2500000  -0.5000000), wk =   0.3750000
        k(    9) = (   0.2500000  -0.5000000  -0.5000000), wk =   0.1875000
        k(   10) = (  -0.5000000  -0.5000000  -0.5000000), wk =   0.0312500

     Dense  grid:    39607 G-vectors     FFT dimensions: (  45,  45,  45)

     Estimated max dynamical RAM per process >       4.25MB

     Estimated total allocated dynamical RAM >      34.04MB

     Check: negative/imaginary core charge=   -0.000003    0.000000

     Initial potential from superposition of free atoms

     starting charge   15.99920, renormalised to   16.00000
     Starting wfc are    9 randomized atomic wfcs

     total cpu time spent up to now is        0.2 secs

     per-process dynamical memory:    30.8 Mb

     Self-consistent Calculation

     iteration #  1     ecut=    70.00 Ry     beta=0.70
     Davidson diagonalization with overlap
     ethr =  1.00E-02,  avg # of iterations =  2.0

     total cpu time spent up to now is        0.3 secs

     total energy              =    -150.48183052 Ry
     Harris-Foulkes estimate   =    -151.88857162 Ry
     estimated scf accuracy    <       1.77698012 Ry

     iteration #  2     ecut=    70.00 Ry     beta=0.70
     Davidson diagonalization with overlap
     ethr =  1.00E-02,  avg # of iterations =  5.5

     total cpu time spent up to now is        0.4 secs

     total energy              =    -150.12381850 Ry
     Harris-Foulkes estimate   =    -154.42475364 Ry
     estimated scf accuracy    <      15.21124311 Ry

     iteration #  3     ecut=    70.00 Ry     beta=0.70
     Davidson diagonalization with overlap
     ethr =  1.00E-02,  avg # of iterations =  4.0

     total cpu time spent up to now is        0.6 secs

     total energy              =    -151.48368954 Ry
     Harris-Foulkes estimate   =    -151.35551292 Ry
     estimated scf accuracy    <       0.48319127 Ry

     iteration #  4     ecut=    70.00 Ry     beta=0.70
     Davidson diagonalization with overlap
     ethr =  3.02E-03,  avg # of iterations =  1.8

     total cpu time spent up to now is        0.7 secs

     total energy              =    -151.14175548 Ry
     Harris-Foulkes estimate   =    -151.51128764 Ry
     estimated scf accuracy    <       1.23440841 Ry

     iteration #  5     ecut=    70.00 Ry     beta=0.70
     Davidson diagonalization with overlap
     ethr =  3.02E-03,  avg # of iterations =  2.6

     total cpu time spent up to now is        0.8 secs

     total energy              =    -151.25110801 Ry
     Harris-Foulkes estimate   =    -151.26425650 Ry
     estimated scf accuracy    <       0.08657053 Ry

     iteration #  6     ecut=    70.00 Ry     beta=0.70
     Davidson diagonalization with overlap
     ethr =  5.41E-04,  avg # of iterations =  1.1

     total cpu time spent up to now is        0.8 secs

     total energy              =    -151.24485426 Ry
     Harris-Foulkes estimate   =    -151.25229552 Ry
     estimated scf accuracy    <       0.05206466 Ry

     iteration #  7     ecut=    70.00 Ry     beta=0.70
     Davidson diagonalization with overlap
     ethr =  3.25E-04,  avg # of iterations =  1.0

     total cpu time spent up to now is        0.9 secs

     total energy              =    -151.24454982 Ry
     Harris-Foulkes estimate   =    -151.24574202 Ry
     estimated scf accuracy    <       0.03112328 Ry

     iteration #  8     ecut=    70.00 Ry     beta=0.70
     Davidson diagonalization with overlap
     ethr =  1.95E-04,  avg # of iterations =  1.0

     total cpu time spent up to now is        1.0 secs

     total energy              =    -151.24496504 Ry
     Harris-Foulkes estimate   =    -151.24470521 Ry
     estimated scf accuracy    <       0.02762171 Ry

     iteration #  9     ecut=    70.00 Ry     beta=0.70
     Davidson diagonalization with overlap
     ethr =  1.73E-04,  avg # of iterations =  1.0

     total cpu time spent up to now is        1.1 secs

     total energy              =    -151.24330033 Ry
     Harris-Foulkes estimate   =    -151.24499364 Ry
     estimated scf accuracy    <       0.02729954 Ry

     iteration # 10     ecut=    70.00 Ry     beta=0.70
     Davidson diagonalization with overlap
     ethr =  1.71E-04,  avg # of iterations =  1.0

     total cpu time spent up to now is        1.2 secs

     total energy              =    -151.22905203 Ry
     Harris-Foulkes estimate   =    -151.24337757 Ry
     estimated scf accuracy    <       0.02250687 Ry

     iteration # 11     ecut=    70.00 Ry     beta=0.70
     Davidson diagonalization with overlap
     ethr =  1.41E-04,  avg # of iterations =  2.6

     total cpu time spent up to now is        1.3 secs

     total energy              =    -151.25580350 Ry
     Harris-Foulkes estimate   =    -151.25356657 Ry
     estimated scf accuracy    <       0.00357993 Ry

     iteration # 12     ecut=    70.00 Ry     beta=0.70
     Davidson diagonalization with overlap
     ethr =  2.24E-05,  avg # of iterations =  2.2

     total cpu time spent up to now is        1.4 secs

     total energy              =    -151.26150203 Ry
     Harris-Foulkes estimate   =    -151.25646623 Ry
     estimated scf accuracy    <       0.01046568 Ry

     iteration # 13     ecut=    70.00 Ry     beta=0.70
     Davidson diagonalization with overlap
     ethr =  2.24E-05,  avg # of iterations =  2.1

     total cpu time spent up to now is        1.5 secs

     total energy              =    -151.27170644 Ry
     Harris-Foulkes estimate   =    -151.26217079 Ry
     estimated scf accuracy    <       0.02490306 Ry

     iteration # 14     ecut=    70.00 Ry     beta=0.70
     Davidson diagonalization with overlap
     ethr =  2.24E-05,  avg # of iterations =  3.5

     total cpu time spent up to now is        1.6 secs

     total energy              =    -151.50377155 Ry
     Harris-Foulkes estimate   =    -151.56637338 Ry
     estimated scf accuracy    <       0.45768783 Ry

     iteration # 15     ecut=    70.00 Ry     beta=0.70
     Davidson diagonalization with overlap
     ethr =  2.24E-05,  avg # of iterations =  3.3

     total cpu time spent up to now is        1.7 secs

     total energy              =    -151.47623444 Ry
     Harris-Foulkes estimate   =    -151.52582949 Ry
     estimated scf accuracy    <       0.33465326 Ry

     iteration # 16     ecut=    70.00 Ry     beta=0.70
     Davidson diagonalization with overlap
     ethr =  2.24E-05,  avg # of iterations =  3.0

     total cpu time spent up to now is        1.8 secs

     total energy              =    -151.47934384 Ry
     Harris-Foulkes estimate   =    -151.47925946 Ry
     estimated scf accuracy    <       0.20652188 Ry

     iteration # 17     ecut=    70.00 Ry     beta=0.70
     Davidson diagonalization with overlap
     ethr =  2.24E-05,  avg # of iterations =  1.0

     total cpu time spent up to now is        1.9 secs

     total energy              =    -151.43684806 Ry
     Harris-Foulkes estimate   =    -151.47935126 Ry
     estimated scf accuracy    <       0.20614571 Ry

     iteration # 18     ecut=    70.00 Ry     beta=0.70
     Davidson diagonalization with overlap
     ethr =  2.24E-05,  avg # of iterations =  3.8

     total cpu time spent up to now is        2.1 secs

     total energy              =    -151.49368775 Ry
     Harris-Foulkes estimate   =    -151.50054135 Ry
     estimated scf accuracy    <       0.18606919 Ry

     iteration # 19     ecut=    70.00 Ry     beta=0.70
     Davidson diagonalization with overlap
     ethr =  2.24E-05,  avg # of iterations =  1.5

     total cpu time spent up to now is        2.1 secs

     total energy              =    -151.50156934 Ry
     Harris-Foulkes estimate   =    -151.49381904 Ry
     estimated scf accuracy    <       0.16437620 Ry

     iteration # 20     ecut=    70.00 Ry     beta=0.70
     Davidson diagonalization with overlap
     ethr =  2.24E-05,  avg # of iterations =  1.6

     total cpu time spent up to now is        2.2 secs

     total energy              =    -151.49302664 Ry
     Harris-Foulkes estimate   =    -151.50173559 Ry
     estimated scf accuracy    <       0.18839372 Ry

     iteration # 21     ecut=    70.00 Ry     beta=0.70
     Davidson diagonalization with overlap
     ethr =  2.24E-05,  avg # of iterations =  1.7

     total cpu time spent up to now is        2.3 secs

     total energy              =    -151.49844965 Ry
     Harris-Foulkes estimate   =    -151.49321050 Ry
     estimated scf accuracy    <       0.16290198 Ry

     iteration # 22     ecut=    70.00 Ry     beta=0.70
     Davidson diagonalization with overlap
     ethr =  2.24E-05,  avg # of iterations =  1.2

     total cpu time spent up to now is        2.4 secs

     total energy              =    -151.44356575 Ry
     Harris-Foulkes estimate   =    -151.49851220 Ry
     estimated scf accuracy    <       0.17707175 Ry

     iteration # 23     ecut=    70.00 Ry     beta=0.70
     Davidson diagonalization with overlap
     ethr =  2.24E-05,  avg # of iterations =  3.3

     total cpu time spent up to now is        2.5 secs

     total energy              =    -151.45490796 Ry
     Harris-Foulkes estimate   =    -151.45599590 Ry
     estimated scf accuracy    <       0.01905010 Ry

     iteration # 24     ecut=    70.00 Ry     beta=0.70
     Davidson diagonalization with overlap
     ethr =  2.24E-05,  avg # of iterations =  1.1

     total cpu time spent up to now is        2.6 secs

     total energy              =    -151.46193268 Ry
     Harris-Foulkes estimate   =    -151.45495232 Ry
     estimated scf accuracy    <       0.01533692 Ry

     iteration # 25     ecut=    70.00 Ry     beta=0.70
     Davidson diagonalization with overlap
     ethr =  2.24E-05,  avg # of iterations =  2.9

     total cpu time spent up to now is        2.7 secs

     total energy              =    -151.42927580 Ry
     Harris-Foulkes estimate   =    -151.46349165 Ry
     estimated scf accuracy    <       0.04913011 Ry

     iteration # 26     ecut=    70.00 Ry     beta=0.70
     Davidson diagonalization with overlap
     ethr =  2.24E-05,  avg # of iterations =  3.9

     total cpu time spent up to now is        2.9 secs

     total energy              =    -151.49513171 Ry
     Harris-Foulkes estimate   =    -151.46940640 Ry
     estimated scf accuracy    <       0.11632783 Ry

     iteration # 27     ecut=    70.00 Ry     beta=0.70
     Davidson diagonalization with overlap
     ethr =  2.24E-05,  avg # of iterations =  3.4

     total cpu time spent up to now is        3.0 secs

     total energy              =    -151.45972717 Ry
     Harris-Foulkes estimate   =    -151.50201362 Ry
     estimated scf accuracy    <       0.32972862 Ry

     iteration # 28     ecut=    70.00 Ry     beta=0.70
     Davidson diagonalization with overlap
     ethr =  2.24E-05,  avg # of iterations =  3.6

     total cpu time spent up to now is        3.1 secs

     total energy              =    -151.44407495 Ry
     Harris-Foulkes estimate   =    -151.46791672 Ry
     estimated scf accuracy    <       0.10329223 Ry

     iteration # 29     ecut=    70.00 Ry     beta=0.70
     Davidson diagonalization with overlap
     ethr =  2.24E-05,  avg # of iterations =  3.3

     total cpu time spent up to now is        3.2 secs

     total energy              =    -151.45293318 Ry
     Harris-Foulkes estimate   =    -151.45270099 Ry
     estimated scf accuracy    <       0.00474810 Ry

     iteration # 30     ecut=    70.00 Ry     beta=0.70
     Davidson diagonalization with overlap
     ethr =  2.24E-05,  avg # of iterations =  1.0

     total cpu time spent up to now is        3.3 secs

     total energy              =    -151.45156886 Ry
     Harris-Foulkes estimate   =    -151.45296989 Ry
     estimated scf accuracy    <       0.00515001 Ry

     iteration # 31     ecut=    70.00 Ry     beta=0.70
     Davidson diagonalization with overlap
     ethr =  2.24E-05,  avg # of iterations =  2.4

     total cpu time spent up to now is        3.4 secs

     total energy              =    -151.45187102 Ry
     Harris-Foulkes estimate   =    -151.45196104 Ry
     estimated scf accuracy    <       0.00029950 Ry

     iteration # 32     ecut=    70.00 Ry     beta=0.70
     Davidson diagonalization with overlap
     ethr =  1.87E-06,  avg # of iterations =  4.0

     total cpu time spent up to now is        3.5 secs

     total energy              =    -151.51815213 Ry
     Harris-Foulkes estimate   =    -151.51748093 Ry
     estimated scf accuracy    <       0.06105451 Ry

     iteration # 33     ecut=    70.00 Ry     beta=0.70
     Davidson diagonalization with overlap
     ethr =  1.87E-06,  avg # of iterations =  1.7

     total cpu time spent up to now is        3.6 secs

     total energy              =    -151.51796015 Ry
     Harris-Foulkes estimate   =    -151.51816038 Ry
     estimated scf accuracy    <       0.06492956 Ry

     iteration # 34     ecut=    70.00 Ry     beta=0.70
     Davidson diagonalization with overlap
     ethr =  1.87E-06,  avg # of iterations =  1.0

     total cpu time spent up to now is        3.7 secs

     total energy              =    -151.51820376 Ry
     Harris-Foulkes estimate   =    -151.51796087 Ry
     estimated scf accuracy    <       0.06442846 Ry

     iteration # 35     ecut=    70.00 Ry     beta=0.70
     Davidson diagonalization with overlap
     ethr =  1.87E-06,  avg # of iterations =  1.0

     total cpu time spent up to now is        3.8 secs

     total energy              =    -151.51799731 Ry
     Harris-Foulkes estimate   =    -151.51820416 Ry
     estimated scf accuracy    <       0.06496502 Ry

     iteration # 36     ecut=    70.00 Ry     beta=0.70
     Davidson diagonalization with overlap
     ethr =  1.87E-06,  avg # of iterations =  1.0

     total cpu time spent up to now is        3.9 secs

     total energy              =    -151.51873397 Ry
     Harris-Foulkes estimate   =    -151.51799767 Ry
     estimated scf accuracy    <       0.06447031 Ry

     iteration # 37     ecut=    70.00 Ry     beta=0.70
     Davidson diagonalization with overlap
     ethr =  1.87E-06,  avg # of iterations =  1.0

     total cpu time spent up to now is        3.9 secs

     total energy              =    -151.51778575 Ry
     Harris-Foulkes estimate   =    -151.51873799 Ry
     estimated scf accuracy    <       0.06696309 Ry

     iteration # 38     ecut=    70.00 Ry     beta=0.70
     Davidson diagonalization with overlap
     ethr =  1.87E-06,  avg # of iterations =  1.3

     total cpu time spent up to now is        4.0 secs

     total energy              =    -151.51759807 Ry
     Harris-Foulkes estimate   =    -151.51779165 Ry
     estimated scf accuracy    <       0.06423945 Ry

     iteration # 39     ecut=    70.00 Ry     beta=0.70
     Davidson diagonalization with overlap
     ethr =  1.87E-06,  avg # of iterations =  1.0

     total cpu time spent up to now is        4.1 secs

     total energy              =    -151.51792970 Ry
     Harris-Foulkes estimate   =    -151.51760202 Ry
     estimated scf accuracy    <       0.06292311 Ry

     iteration # 40     ecut=    70.00 Ry     beta=0.70
     Davidson diagonalization with overlap
     ethr =  1.87E-06,  avg # of iterations =  1.0

     total cpu time spent up to now is        4.2 secs

     total energy              =    -151.48951901 Ry
     Harris-Foulkes estimate   =    -151.51793105 Ry
     estimated scf accuracy    <       0.06358233 Ry

     iteration # 41     ecut=    70.00 Ry     beta=0.70
     Davidson diagonalization with overlap
     ethr =  1.87E-06,  avg # of iterations =  4.5

     total cpu time spent up to now is        4.3 secs

     total energy              =    -151.51010093 Ry
     Harris-Foulkes estimate   =    -151.51386624 Ry
     estimated scf accuracy    <       0.04639029 Ry

     iteration # 42     ecut=    70.00 Ry     beta=0.70
     Davidson diagonalization with overlap
     ethr =  1.87E-06,  avg # of iterations =  3.5

     total cpu time spent up to now is        4.5 secs

     total energy              =    -151.50618888 Ry
     Harris-Foulkes estimate   =    -151.51059226 Ry
     estimated scf accuracy    <       0.02233395 Ry

     iteration # 43     ecut=    70.00 Ry     beta=0.70
     Davidson diagonalization with overlap
     ethr =  1.87E-06,  avg # of iterations =  3.6

     total cpu time spent up to now is        4.6 secs

     total energy              =    -151.50738920 Ry
     Harris-Foulkes estimate   =    -151.50772500 Ry
     estimated scf accuracy    <       0.00112198 Ry

     iteration # 44     ecut=    70.00 Ry     beta=0.70
     Davidson diagonalization with overlap
     ethr =  1.87E-06,  avg # of iterations =  3.3

     total cpu time spent up to now is        4.7 secs

     total energy              =    -151.50760092 Ry
     Harris-Foulkes estimate   =    -151.50758889 Ry
     estimated scf accuracy    <       0.00007476 Ry

     iteration # 45     ecut=    70.00 Ry     beta=0.70
     Davidson diagonalization with overlap
     ethr =  4.67E-07,  avg # of iterations =  2.4

     total cpu time spent up to now is        4.8 secs

     total energy              =    -151.52936789 Ry
     Harris-Foulkes estimate   =    -151.52993116 Ry
     estimated scf accuracy    <       0.01211312 Ry

     iteration # 46     ecut=    70.00 Ry     beta=0.70
     Davidson diagonalization with overlap
     ethr =  4.67E-07,  avg # of iterations =  3.3

     total cpu time spent up to now is        4.9 secs

     total energy              =    -151.53003720 Ry
     Harris-Foulkes estimate   =    -151.52941382 Ry
     estimated scf accuracy    <       0.00801284 Ry

     iteration # 47     ecut=    70.00 Ry     beta=0.70
     Davidson diagonalization with overlap
     ethr =  4.67E-07,  avg # of iterations =  3.4

     total cpu time spent up to now is        5.0 secs

     total energy              =    -151.53006798 Ry
     Harris-Foulkes estimate   =    -151.53011619 Ry
     estimated scf accuracy    <       0.01367732 Ry

     iteration # 48     ecut=    70.00 Ry     beta=0.70
     Davidson diagonalization with overlap
     ethr =  4.67E-07,  avg # of iterations =  1.0

     total cpu time spent up to now is        5.1 secs

     total energy              =    -151.52970853 Ry
     Harris-Foulkes estimate   =    -151.53006819 Ry
     estimated scf accuracy    <       0.01356796 Ry

     iteration # 49     ecut=    70.00 Ry     beta=0.70
     Davidson diagonalization with overlap
     ethr =  4.67E-07,  avg # of iterations =  2.8

     total cpu time spent up to now is        5.2 secs

     total energy              =    -151.52974625 Ry
     Harris-Foulkes estimate   =    -151.52972566 Ry
     estimated scf accuracy    <       0.01076604 Ry

     iteration # 50     ecut=    70.00 Ry     beta=0.70
     Davidson diagonalization with overlap
     ethr =  4.67E-07,  avg # of iterations =  1.0

     total cpu time spent up to now is        5.3 secs

     total energy              =    -151.52977107 Ry
     Harris-Foulkes estimate   =    -151.52974637 Ry
     estimated scf accuracy    <       0.01082100 Ry

     iteration # 51     ecut=    70.00 Ry     beta=0.70
     Davidson diagonalization with overlap
     ethr =  4.67E-07,  avg # of iterations =  1.0

     total cpu time spent up to now is        5.4 secs

     total energy              =    -151.52978308 Ry
     Harris-Foulkes estimate   =    -151.52977117 Ry
     estimated scf accuracy    <       0.01092771 Ry

     iteration # 52     ecut=    70.00 Ry     beta=0.70
     Davidson diagonalization with overlap
     ethr =  4.67E-07,  avg # of iterations =  1.0

     total cpu time spent up to now is        5.5 secs

     total energy              =    -151.52974701 Ry
     Harris-Foulkes estimate   =    -151.52978317 Ry
     estimated scf accuracy    <       0.01099410 Ry

     iteration # 53     ecut=    70.00 Ry     beta=0.70
     Davidson diagonalization with overlap
     ethr =  4.67E-07,  avg # of iterations =  1.0

     total cpu time spent up to now is        5.6 secs

     total energy              =    -151.52717621 Ry
     Harris-Foulkes estimate   =    -151.52974707 Ry
     estimated scf accuracy    <       0.01090981 Ry

     iteration # 54     ecut=    70.00 Ry     beta=0.70
     Davidson diagonalization with overlap
     ethr =  4.67E-07,  avg # of iterations =  4.4

     total cpu time spent up to now is        5.7 secs

     total energy              =    -151.52831508 Ry
     Harris-Foulkes estimate   =    -151.52831567 Ry
     estimated scf accuracy    <       0.00000375 Ry

     iteration # 55     ecut=    70.00 Ry     beta=0.70
     Davidson diagonalization with overlap
     ethr =  2.34E-08,  avg # of iterations =  3.7

     total cpu time spent up to now is        5.8 secs

     total energy              =    -151.53218895 Ry
     Harris-Foulkes estimate   =    -151.53213180 Ry
     estimated scf accuracy    <       0.00483504 Ry

     iteration # 56     ecut=    70.00 Ry     beta=0.70
     Davidson diagonalization with overlap
     ethr =  2.34E-08,  avg # of iterations =  3.2

     total cpu time spent up to now is        5.9 secs

     total energy              =    -151.53195600 Ry
     Harris-Foulkes estimate   =    -151.53219018 Ry
     estimated scf accuracy    <       0.00532643 Ry

     iteration # 57     ecut=    70.00 Ry     beta=0.70
     Davidson diagonalization with overlap
     ethr =  2.34E-08,  avg # of iterations =  3.7

     total cpu time spent up to now is        6.0 secs

     total energy              =    -151.53190124 Ry
     Harris-Foulkes estimate   =    -151.53197472 Ry
     estimated scf accuracy    <       0.00353682 Ry

     iteration # 58     ecut=    70.00 Ry     beta=0.70
     Davidson diagonalization with overlap
     ethr =  2.34E-08,  avg # of iterations =  3.6

     total cpu time spent up to now is        6.2 secs

     total energy              =    -151.53271581 Ry
     Harris-Foulkes estimate   =    -151.53190450 Ry
     estimated scf accuracy    <       0.00292044 Ry

     iteration # 59     ecut=    70.00 Ry     beta=0.70
     Davidson diagonalization with overlap
     ethr =  2.34E-08,  avg # of iterations =  4.6

     total cpu time spent up to now is        6.3 secs

     total energy              =    -151.53255869 Ry
     Harris-Foulkes estimate   =    -151.53304577 Ry
     estimated scf accuracy    <       0.01230891 Ry

     iteration # 60     ecut=    70.00 Ry     beta=0.70
     Davidson diagonalization with overlap
     ethr =  2.34E-08,  avg # of iterations =  4.2

     total cpu time spent up to now is        6.4 secs

     total energy              =    -151.53282957 Ry
     Harris-Foulkes estimate   =    -151.53259831 Ry
     estimated scf accuracy    <       0.00841126 Ry

     iteration # 61     ecut=    70.00 Ry     beta=0.70
     Davidson diagonalization with overlap
     ethr =  2.34E-08,  avg # of iterations =  4.0

     total cpu time spent up to now is        6.6 secs

     total energy              =    -151.53371498 Ry
     Harris-Foulkes estimate   =    -151.53284243 Ry
     estimated scf accuracy    <       0.01053549 Ry

     iteration # 62     ecut=    70.00 Ry     beta=0.70
     Davidson diagonalization with overlap
     ethr =  2.34E-08,  avg # of iterations =  4.4

     total cpu time spent up to now is        6.7 secs

     total energy              =    -151.53083188 Ry
     Harris-Foulkes estimate   =    -151.53382278 Ry
     estimated scf accuracy    <       0.01822013 Ry

     iteration # 63     ecut=    70.00 Ry     beta=0.70
     Davidson diagonalization with overlap
     ethr =  2.34E-08,  avg # of iterations =  5.0

     total cpu time spent up to now is        6.9 secs

     total energy              =    -151.53137231 Ry
     Harris-Foulkes estimate   =    -151.53174199 Ry
     estimated scf accuracy    <       0.00163110 Ry

     iteration # 64     ecut=    70.00 Ry     beta=0.70
     Davidson diagonalization with overlap
     ethr =  2.34E-08,  avg # of iterations =  4.5

     total cpu time spent up to now is        7.0 secs

     total energy              =    -151.53153851 Ry
     Harris-Foulkes estimate   =    -151.53153852 Ry
     estimated scf accuracy    <       0.00000002 Ry

     iteration # 65     ecut=    70.00 Ry     beta=0.70
     Davidson diagonalization with overlap
     ethr =  9.63E-11,  avg # of iterations =  3.0

     total cpu time spent up to now is        7.1 secs

     End of self-consistent calculation

          k = 0.0000 0.0000 0.0000 (  4945 PWs)   bands (ev):

   -78.7428 -45.4403 -45.4403 -45.4403 -15.5859  -2.4658  -0.9643  -0.9643

          k = 0.0000 0.0000 0.2500 (  4957 PWs)   bands (ev):

   -78.7428 -45.4404 -45.4404 -45.4403 -15.5743  -2.5165  -0.9202  -0.9202

          k = 0.0000 0.0000-0.5000 (  4950 PWs)   bands (ev):

   -78.7428 -45.4404 -45.4404 -45.4403 -15.5628  -2.5942  -0.8749  -0.8749

          k = 0.0000 0.2500 0.2500 (  4943 PWs)   bands (ev):

   -78.7428 -45.4404 -45.4403 -45.4399 -15.5636  -2.3283  -1.2656  -0.8831

          k = 0.0000 0.2500-0.5000 (  4956 PWs)   bands (ev):

   -78.7428 -45.4406 -45.4403 -45.4403 -15.5529  -2.2127  -1.2730  -0.8453

          k = 0.0000-0.5000-0.5000 (  4972 PWs)   bands (ev):

   -78.7428 -45.4408 -45.4408 -45.4403 -15.5430  -1.5654  -1.5654  -0.8152

          k = 0.2500 0.2500 0.2500 (  4932 PWs)   bands (ev):

   -78.7428 -45.4402 -45.4400 -45.4400 -15.5536  -2.0866  -1.1693  -1.1693

          k = 0.2500 0.2500-0.5000 (  4930 PWs)   bands (ev):

   -78.7428 -45.4404 -45.4399 -45.4397 -15.5435  -1.8850  -1.2502  -1.0670

          k = 0.2500-0.5000-0.5000 (  4936 PWs)   bands (ev):

   -78.7428 -45.4408 -45.4399 -45.4399 -15.5341  -1.4190  -1.4190  -1.0473

          k =-0.5000-0.5000-0.5000 (  4896 PWs)   bands (ev):

   -78.7428 -45.4396 -45.4396 -45.4396 -15.5251  -1.2553  -1.2553  -1.2553

     highest occupied level (ev):    -0.8152

!    total energy              =    -151.53153851 Ry
     Harris-Foulkes estimate   =    -151.53153852 Ry
     estimated scf accuracy    <          9.7E-09 Ry

     The total energy is the sum of the following terms:

     one-electron contribution =    -128.88200569 Ry
     hartree contribution      =      61.74231435 Ry
     xc contribution           =     -23.61901837 Ry
     ewald contribution        =     -60.77282880 Ry

     convergence has been achieved in  65 iterations

     Forces acting on atoms (cartesian axes, Ry/au):

     atom    1 type  1   force =     0.00000000    0.00000000    0.00000000
     atom    2 type  2   force =     0.00000000    0.00000000    0.00000000

     Total force =     0.000000     Total SCF correction =     0.000000


     Computing stress (Cartesian axis) and pressure

          total   stress  (Ry/bohr**3)                   (kbar)     P= -123.13
  -0.00083705   0.00000000   0.00000000       -123.13      0.00      0.00
   0.00000000  -0.00083705   0.00000000          0.00   -123.13      0.00
   0.00000000   0.00000000  -0.00083705          0.00      0.00   -123.13


     Writing output data file diamond.7.9329.70.4.save
 
     init_run     :      0.08s CPU      0.09s WALL (       1 calls)
     electrons    :      6.77s CPU      6.95s WALL (       1 calls)
     forces       :      0.02s CPU      0.02s WALL (       1 calls)
     stress       :      0.05s CPU      0.05s WALL (       1 calls)

     Called by init_run:
     wfcinit      :      0.03s CPU      0.04s WALL (       1 calls)
     potinit      :      0.01s CPU      0.01s WALL (       1 calls)

     Called by electrons:
     c_bands      :      5.40s CPU      5.54s WALL (      65 calls)
     sum_band     :      0.97s CPU      0.99s WALL (      65 calls)
     v_of_rho     :      0.31s CPU      0.31s WALL (      66 calls)
     mix_rho      :      0.09s CPU      0.09s WALL (      65 calls)

     Called by c_bands:
     init_us_2    :      0.20s CPU      0.20s WALL (    1330 calls)
     cegterg      :      4.92s CPU      5.07s WALL (     650 calls)

     Called by sum_band:

     Called by *egterg:
     h_psi        :      4.26s CPU      4.39s WALL (    2325 calls)
     g_psi        :      0.01s CPU      0.02s WALL (    1665 calls)
     cdiaghg      :      0.31s CPU      0.32s WALL (    2315 calls)

     Called by h_psi:
     h_psi:pot    :      4.25s CPU      4.36s WALL (    2325 calls)
     h_psi:calbec :      0.14s CPU      0.13s WALL (    2325 calls)
     vloc_psi     :      4.05s CPU      4.16s WALL (    2325 calls)
     add_vuspsi   :      0.04s CPU      0.06s WALL (    2325 calls)

     General routines
     calbec       :      0.14s CPU      0.13s WALL (    2375 calls)
     fft          :      0.16s CPU      0.17s WALL (     750 calls)
     fftw         :      4.66s CPU      4.62s WALL (   31898 calls)
     davcio       :      0.00s CPU      0.00s WALL (      10 calls)
 
     Parallel routines
     fft_scatter  :      0.83s CPU      0.93s WALL (   32648 calls)
 
     PWSCF        :     7.06s CPU         7.27s WALL

 
   This run was terminated on:  15:56: 3  19Apr2018            

=------------------------------------------------------------------------------=
   JOB DONE.
=------------------------------------------------------------------------------=
