
     Program PWSCF v.6.1 (svn rev. 13369) starts on 19Apr2018 at 16:53: 9 

     This program is part of the open-source Quantum ESPRESSO suite
     for quantum simulation of materials; please cite
         "P. Giannozzi et al., J. Phys.:Condens. Matter 21 395502 (2009);
          URL http://www.quantum-espresso.org", 
     in publications or presentations arising from this work. More details at
     http://www.quantum-espresso.org/quote

     Parallel version (MPI), running on     8 processors
     R & G space division:  proc/nbgrp/npool/nimage =       8
     Waiting for input...
     Reading input from standard input

     Current dimensions of program PWSCF are:
     Max number of different atomic species (ntypx) = 10
     Max number of k-points (npk) =  40000
     Max angular momentum in pseudopotentials (lmaxx) =  3

     Subspace diagonalization in iterative solution of the eigenvalue problem:
     a serial algorithm will be used

 
     Parallelization info
     --------------------
     sticks:   dense  smooth     PW     G-vecs:    dense   smooth      PW
     Min         136     136     40                 3398     3398     546
     Max         137     137     41                 3401     3401     549
     Sum        1093    1093    325                27201    27201    4385
 


     bravais-lattice index     =            8
     lattice parameter (alat)  =       7.0000  a.u.
     unit-cell volume          =     343.0000 (a.u.)^3
     number of atoms/cell      =            2
     number of atomic types    =            2
     number of electrons       =        16.00
     number of Kohn-Sham states=            8
     kinetic-energy cutoff     =      70.0000  Ry
     charge density cutoff     =     280.0000  Ry
     convergence threshold     =      1.0E-08
     mixing beta               =       0.7000
     number of iterations used =            8  plain     mixing
     Exchange-correlation      = PBE ( 1  4  3  4 0 0)

     celldm(1)=   7.000000  celldm(2)=   1.000000  celldm(3)=   1.000000
     celldm(4)=   0.000000  celldm(5)=   0.000000  celldm(6)=   0.000000

     crystal axes: (cart. coord. in units of alat)
               a(1) = (   1.000000   0.000000   0.000000 )  
               a(2) = (   0.000000   1.000000   0.000000 )  
               a(3) = (   0.000000   0.000000   1.000000 )  

     reciprocal axes: (cart. coord. in units 2 pi/alat)
               b(1) = (  1.000000  0.000000  0.000000 )  
               b(2) = (  0.000000  1.000000  0.000000 )  
               b(3) = (  0.000000  0.000000  1.000000 )  


     PseudoPot. # 1 for Mg read from file:
     ../pseudo/Mg.pbe.UPF
     MD5 check sum: 4c04d8c6e0476e83eaecaf72fa8acc4d
     Pseudo is Norm-conserving, Zval = 10.0
     Generated using ONCVPSP code by D. R. Hamann
     Using radial grid of 1510 points,  4 beta functions with: 
                l(1) =   0
                l(2) =   0
                l(3) =   1
                l(4) =   1

     PseudoPot. # 2 for O  read from file:
     ../pseudo/O.pbe.UPF
     MD5 check sum: 3e3f909f7470e8921608ab6b1f57bbae
     Pseudo is Norm-conserving + core correction, Zval =  6.0
     Generated using ONCVPSP code by D. R. Hamann
     Using radial grid of  936 points,  5 beta functions with: 
                l(1) =   0
                l(2) =   0
                l(3) =   1
                l(4) =   1
                l(5) =   2

     atomic species   valence    mass     pseudopotential
        Mg            10.00    24.30500     Mg( 1.00)
        O              6.00    15.99940     O ( 1.00)

     48 Sym. Ops., with inversion, found



   Cartesian axes

     site n.     atom                  positions (alat units)
         1           Mg  tau(   1) = (   0.0000000   0.0000000   0.0000000  )
         2           O   tau(   2) = (   0.5000000   0.5000000   0.5000000  )

     number of k points=    10
                       cart. coord. in units 2pi/alat
        k(    1) = (   0.0000000   0.0000000   0.0000000), wk =   0.0312500
        k(    2) = (   0.0000000   0.0000000   0.2500000), wk =   0.1875000
        k(    3) = (   0.0000000   0.0000000  -0.5000000), wk =   0.0937500
        k(    4) = (   0.0000000   0.2500000   0.2500000), wk =   0.3750000
        k(    5) = (   0.0000000   0.2500000  -0.5000000), wk =   0.3750000
        k(    6) = (   0.0000000  -0.5000000  -0.5000000), wk =   0.0937500
        k(    7) = (   0.2500000   0.2500000   0.2500000), wk =   0.2500000
        k(    8) = (   0.2500000   0.2500000  -0.5000000), wk =   0.3750000
        k(    9) = (   0.2500000  -0.5000000  -0.5000000), wk =   0.1875000
        k(   10) = (  -0.5000000  -0.5000000  -0.5000000), wk =   0.0312500

     Dense  grid:    27201 G-vectors     FFT dimensions: (  40,  40,  40)

     Estimated max dynamical RAM per process >       2.91MB

     Estimated total allocated dynamical RAM >      23.27MB

     Check: negative/imaginary core charge=   -0.000004    0.000000

     Initial potential from superposition of free atoms

     starting charge   15.99920, renormalised to   16.00000
     Starting wfc are    9 randomized atomic wfcs

     total cpu time spent up to now is        0.2 secs

     per-process dynamical memory:    28.6 Mb

     Self-consistent Calculation

     iteration #  1     ecut=    70.00 Ry     beta=0.70
     Davidson diagonalization with overlap
     ethr =  1.00E-02,  avg # of iterations =  2.0

     total cpu time spent up to now is        0.3 secs

     total energy              =    -150.93438403 Ry
     Harris-Foulkes estimate   =    -151.93343699 Ry
     estimated scf accuracy    <       1.28414050 Ry

     iteration #  2     ecut=    70.00 Ry     beta=0.70
     Davidson diagonalization with overlap
     ethr =  8.03E-03,  avg # of iterations =  4.1

     total cpu time spent up to now is        0.3 secs

     total energy              =    -150.55946350 Ry
     Harris-Foulkes estimate   =    -153.15486777 Ry
     estimated scf accuracy    <       8.56024731 Ry

     iteration #  3     ecut=    70.00 Ry     beta=0.70
     Davidson diagonalization with overlap
     ethr =  8.03E-03,  avg # of iterations =  3.8

     total cpu time spent up to now is        0.4 secs

     total energy              =    -151.46181011 Ry
     Harris-Foulkes estimate   =    -151.50770197 Ry
     estimated scf accuracy    <       0.09082067 Ry

     iteration #  4     ecut=    70.00 Ry     beta=0.70
     Davidson diagonalization with overlap
     ethr =  5.68E-04,  avg # of iterations =  2.5

     total cpu time spent up to now is        0.5 secs

     total energy              =    -151.48459202 Ry
     Harris-Foulkes estimate   =    -151.49470905 Ry
     estimated scf accuracy    <       0.02124409 Ry

     iteration #  5     ecut=    70.00 Ry     beta=0.70
     Davidson diagonalization with overlap
     ethr =  1.33E-04,  avg # of iterations =  2.5

     total cpu time spent up to now is        0.5 secs

     total energy              =    -151.48983672 Ry
     Harris-Foulkes estimate   =    -151.49008296 Ry
     estimated scf accuracy    <       0.00181043 Ry

     iteration #  6     ecut=    70.00 Ry     beta=0.70
     Davidson diagonalization with overlap
     ethr =  1.13E-05,  avg # of iterations =  1.1

     total cpu time spent up to now is        0.6 secs

     total energy              =    -151.48939411 Ry
     Harris-Foulkes estimate   =    -151.48987437 Ry
     estimated scf accuracy    <       0.00111114 Ry

     iteration #  7     ecut=    70.00 Ry     beta=0.70
     Davidson diagonalization with overlap
     ethr =  6.94E-06,  avg # of iterations =  2.2

     total cpu time spent up to now is        0.7 secs

     total energy              =    -151.48966753 Ry
     Harris-Foulkes estimate   =    -151.48969715 Ry
     estimated scf accuracy    <       0.00006302 Ry

     iteration #  8     ecut=    70.00 Ry     beta=0.70
     Davidson diagonalization with overlap
     ethr =  3.94E-07,  avg # of iterations =  2.5

     total cpu time spent up to now is        0.7 secs

     total energy              =    -151.48968339 Ry
     Harris-Foulkes estimate   =    -151.48968496 Ry
     estimated scf accuracy    <       0.00000392 Ry

     iteration #  9     ecut=    70.00 Ry     beta=0.70
     Davidson diagonalization with overlap
     ethr =  2.45E-08,  avg # of iterations =  4.4

     total cpu time spent up to now is        0.8 secs

     total energy              =    -151.70555708 Ry
     Harris-Foulkes estimate   =    -151.70532096 Ry
     estimated scf accuracy    <       0.17587245 Ry

     iteration # 10     ecut=    70.00 Ry     beta=0.70
     Davidson diagonalization with overlap
     ethr =  2.45E-08,  avg # of iterations =  1.9

     total cpu time spent up to now is        0.9 secs

     total energy              =    -151.70623254 Ry
     Harris-Foulkes estimate   =    -151.70555731 Ry
     estimated scf accuracy    <       0.17691790 Ry

     iteration # 11     ecut=    70.00 Ry     beta=0.70
     Davidson diagonalization with overlap
     ethr =  2.45E-08,  avg # of iterations =  2.7

     total cpu time spent up to now is        0.9 secs

     total energy              =    -151.70379820 Ry
     Harris-Foulkes estimate   =    -151.70623466 Ry
     estimated scf accuracy    <       0.18014618 Ry

     iteration # 12     ecut=    70.00 Ry     beta=0.70
     Davidson diagonalization with overlap
     ethr =  2.45E-08,  avg # of iterations =  3.5

     total cpu time spent up to now is        1.0 secs

     total energy              =    -151.69227419 Ry
     Harris-Foulkes estimate   =    -151.70382382 Ry
     estimated scf accuracy    <       0.16892053 Ry

     iteration # 13     ecut=    70.00 Ry     beta=0.70
     Davidson diagonalization with overlap
     ethr =  2.45E-08,  avg # of iterations =  4.5

     total cpu time spent up to now is        1.1 secs

     total energy              =    -151.69223707 Ry
     Harris-Foulkes estimate   =    -151.69293648 Ry
     estimated scf accuracy    <       0.11697510 Ry

     iteration # 14     ecut=    70.00 Ry     beta=0.70
     Davidson diagonalization with overlap
     ethr =  2.45E-08,  avg # of iterations =  3.1

     total cpu time spent up to now is        1.2 secs

     total energy              =    -151.69138078 Ry
     Harris-Foulkes estimate   =    -151.69224053 Ry
     estimated scf accuracy    <       0.11358555 Ry

     iteration # 15     ecut=    70.00 Ry     beta=0.70
     Davidson diagonalization with overlap
     ethr =  2.45E-08,  avg # of iterations =  3.8

     total cpu time spent up to now is        1.2 secs

     total energy              =    -151.70283502 Ry
     Harris-Foulkes estimate   =    -151.70964641 Ry
     estimated scf accuracy    <       0.16137122 Ry

     iteration # 16     ecut=    70.00 Ry     beta=0.70
     Davidson diagonalization with overlap
     ethr =  2.45E-08,  avg # of iterations =  4.3

     total cpu time spent up to now is        1.3 secs

     total energy              =    -151.69063849 Ry
     Harris-Foulkes estimate   =    -151.70310642 Ry
     estimated scf accuracy    <       0.12693525 Ry

     iteration # 17     ecut=    70.00 Ry     beta=0.70
     Davidson diagonalization with overlap
     ethr =  2.45E-08,  avg # of iterations =  4.6

     total cpu time spent up to now is        1.4 secs

     total energy              =    -151.67303548 Ry
     Harris-Foulkes estimate   =    -151.69190612 Ry
     estimated scf accuracy    <       0.06608706 Ry

     iteration # 18     ecut=    70.00 Ry     beta=0.70
     Davidson diagonalization with overlap
     ethr =  2.45E-08,  avg # of iterations =  5.1

     total cpu time spent up to now is        1.5 secs

     total energy              =    -151.68036865 Ry
     Harris-Foulkes estimate   =    -151.68034720 Ry
     estimated scf accuracy    <       0.00021904 Ry

     iteration # 19     ecut=    70.00 Ry     beta=0.70
     Davidson diagonalization with overlap
     ethr =  2.45E-08,  avg # of iterations =  3.2

     total cpu time spent up to now is        1.6 secs

     total energy              =    -151.68041458 Ry
     Harris-Foulkes estimate   =    -151.68037133 Ry
     estimated scf accuracy    <       0.00037408 Ry

     iteration # 20     ecut=    70.00 Ry     beta=0.70
     Davidson diagonalization with overlap
     ethr =  2.45E-08,  avg # of iterations =  3.5

     total cpu time spent up to now is        1.7 secs

     total energy              =    -151.68052769 Ry
     Harris-Foulkes estimate   =    -151.68042046 Ry
     estimated scf accuracy    <       0.00068287 Ry

     iteration # 21     ecut=    70.00 Ry     beta=0.70
     Davidson diagonalization with overlap
     ethr =  2.45E-08,  avg # of iterations =  3.7

     total cpu time spent up to now is        1.8 secs

     total energy              =    -151.68096365 Ry
     Harris-Foulkes estimate   =    -151.68054571 Ry
     estimated scf accuracy    <       0.00145303 Ry

     iteration # 22     ecut=    70.00 Ry     beta=0.70
     Davidson diagonalization with overlap
     ethr =  2.45E-08,  avg # of iterations =  4.1

     total cpu time spent up to now is        1.9 secs

     total energy              =    -151.68130294 Ry
     Harris-Foulkes estimate   =    -151.68107535 Ry
     estimated scf accuracy    <       0.00462929 Ry

     iteration # 23     ecut=    70.00 Ry     beta=0.70
     Davidson diagonalization with overlap
     ethr =  2.45E-08,  avg # of iterations =  3.6

     total cpu time spent up to now is        1.9 secs

     total energy              =    -151.67915672 Ry
     Harris-Foulkes estimate   =    -151.68131556 Ry
     estimated scf accuracy    <       0.00609733 Ry

     iteration # 24     ecut=    70.00 Ry     beta=0.70
     Davidson diagonalization with overlap
     ethr =  2.45E-08,  avg # of iterations =  4.8

     total cpu time spent up to now is        2.0 secs

     total energy              =    -151.68025242 Ry
     Harris-Foulkes estimate   =    -151.68043895 Ry
     estimated scf accuracy    <       0.00060200 Ry

     iteration # 25     ecut=    70.00 Ry     beta=0.70
     Davidson diagonalization with overlap
     ethr =  2.45E-08,  avg # of iterations =  4.2

     total cpu time spent up to now is        2.1 secs

     total energy              =    -151.68032400 Ry
     Harris-Foulkes estimate   =    -151.68032468 Ry
     estimated scf accuracy    <       0.00000639 Ry

     iteration # 26     ecut=    70.00 Ry     beta=0.70
     Davidson diagonalization with overlap
     ethr =  2.45E-08,  avg # of iterations =  2.6

     total cpu time spent up to now is        2.2 secs

     total energy              =    -151.68032275 Ry
     Harris-Foulkes estimate   =    -151.68032443 Ry
     estimated scf accuracy    <       0.00000668 Ry

     iteration # 27     ecut=    70.00 Ry     beta=0.70
     Davidson diagonalization with overlap
     ethr =  2.45E-08,  avg # of iterations =  1.0

     total cpu time spent up to now is        2.2 secs

     total energy              =    -151.68032117 Ry
     Harris-Foulkes estimate   =    -151.68032284 Ry
     estimated scf accuracy    <       0.00000310 Ry

     iteration # 28     ecut=    70.00 Ry     beta=0.70
     Davidson diagonalization with overlap
     ethr =  1.94E-08,  avg # of iterations =  2.7

     total cpu time spent up to now is        2.3 secs

     total energy              =    -151.68032184 Ry
     Harris-Foulkes estimate   =    -151.68032206 Ry
     estimated scf accuracy    <       0.00000137 Ry

     iteration # 29     ecut=    70.00 Ry     beta=0.70
     Davidson diagonalization with overlap
     ethr =  8.58E-09,  avg # of iterations =  1.5

     total cpu time spent up to now is        2.3 secs

     total energy              =    -151.68032178 Ry
     Harris-Foulkes estimate   =    -151.68032188 Ry
     estimated scf accuracy    <       0.00000045 Ry

     iteration # 30     ecut=    70.00 Ry     beta=0.70
     Davidson diagonalization with overlap
     ethr =  2.80E-09,  avg # of iterations =  2.9

     total cpu time spent up to now is        2.4 secs

     End of self-consistent calculation

          k = 0.0000 0.0000 0.0000 (  3407 PWs)   bands (ev):

   -76.4320 -43.1245 -43.1245 -43.1245 -14.1466  -0.7037   0.6019   0.6019

          k = 0.0000 0.0000 0.2500 (  3415 PWs)   bands (ev):

   -76.4320 -43.1262 -43.1243 -43.1243 -14.1034  -1.2154   0.6787   0.6787

          k = 0.0000 0.0000-0.5000 (  3394 PWs)   bands (ev):

   -76.4320 -43.1267 -43.1240 -43.1240 -14.0594  -1.6039   0.7582   0.7582

          k = 0.0000 0.2500 0.2500 (  3393 PWs)   bands (ev):

   -76.4320 -43.1252 -43.1249 -43.1240 -14.0645  -1.0696   0.0351   0.7462

          k = 0.0000 0.2500-0.5000 (  3398 PWs)   bands (ev):

   -76.4319 -43.1268 -43.1252 -43.1242 -14.0249  -1.1511   0.0283   0.8156

          k = 0.0000-0.5000-0.5000 (  3388 PWs)   bands (ev):

   -76.4319 -43.1259 -43.1259 -43.1243 -13.9900  -0.4806  -0.4806   0.8746

          k = 0.2500 0.2500 0.2500 (  3389 PWs)   bands (ev):

   -76.4319 -43.1255 -43.1248 -43.1248 -14.0288  -0.8313   0.2015   0.2015

          k = 0.2500 0.2500-0.5000 (  3400 PWs)   bands (ev):

   -76.4319 -43.1267 -43.1255 -43.1251 -13.9926  -0.7633   0.0671   0.3842

          k = 0.2500-0.5000-0.5000 (  3396 PWs)   bands (ev):

   -76.4319 -43.1263 -43.1263 -43.1252 -13.9597  -0.2447  -0.2447   0.4225

          k =-0.5000-0.5000-0.5000 (  3448 PWs)   bands (ev):

   -76.4318 -43.1277 -43.1277 -43.1277 -13.9291   0.0314   0.0314   0.0314

     highest occupied level (ev):     0.8746

!    total energy              =    -151.68032184 Ry
     Harris-Foulkes estimate   =    -151.68032184 Ry
     estimated scf accuracy    <          1.1E-09 Ry

     The total energy is the sum of the following terms:

     one-electron contribution =    -115.08940975 Ry
     hartree contribution      =      56.01804281 Ry
     xc contribution           =     -23.73684439 Ry
     ewald contribution        =     -68.87211052 Ry

     convergence has been achieved in  30 iterations

     Forces acting on atoms (cartesian axes, Ry/au):

     atom    1 type  1   force =     0.00000000    0.00000000    0.00000000
     atom    2 type  2   force =     0.00000000    0.00000000   -0.00000000

     Total force =     0.000000     Total SCF correction =     0.000000


     Computing stress (Cartesian axis) and pressure

          total   stress  (Ry/bohr**3)                   (kbar)     P= -202.84
  -0.00137885   0.00000000   0.00000000       -202.84      0.00      0.00
   0.00000000  -0.00137885   0.00000000          0.00   -202.84      0.00
   0.00000000   0.00000000  -0.00137885          0.00      0.00   -202.84


     Writing output data file diamond.7.0.70.4.save
 
     init_run     :      0.06s CPU      0.06s WALL (       1 calls)
     electrons    :      2.14s CPU      2.22s WALL (       1 calls)
     forces       :      0.02s CPU      0.02s WALL (       1 calls)
     stress       :      0.04s CPU      0.04s WALL (       1 calls)

     Called by init_run:
     wfcinit      :      0.02s CPU      0.02s WALL (       1 calls)
     potinit      :      0.01s CPU      0.01s WALL (       1 calls)

     Called by electrons:
     c_bands      :      1.74s CPU      1.80s WALL (      30 calls)
     sum_band     :      0.26s CPU      0.27s WALL (      30 calls)
     v_of_rho     :      0.10s CPU      0.10s WALL (      31 calls)
     mix_rho      :      0.03s CPU      0.03s WALL (      30 calls)

     Called by c_bands:
     init_us_2    :      0.07s CPU      0.06s WALL (     630 calls)
     cegterg      :      1.59s CPU      1.65s WALL (     300 calls)

     Called by sum_band:

     Called by *egterg:
     h_psi        :      1.23s CPU      1.28s WALL (    1274 calls)
     g_psi        :      0.01s CPU      0.01s WALL (     964 calls)
     cdiaghg      :      0.16s CPU      0.16s WALL (    1264 calls)

     Called by h_psi:
     h_psi:pot    :      1.22s CPU      1.27s WALL (    1274 calls)
     h_psi:calbec :      0.08s CPU      0.07s WALL (    1274 calls)
     vloc_psi     :      1.11s CPU      1.16s WALL (    1274 calls)
     add_vuspsi   :      0.03s CPU      0.03s WALL (    1274 calls)

     General routines
     calbec       :      0.08s CPU      0.07s WALL (    1324 calls)
     fft          :      0.04s CPU      0.05s WALL (     365 calls)
     fftw         :      1.21s CPU      1.23s WALL (   16688 calls)
     davcio       :      0.00s CPU      0.00s WALL (      10 calls)
 
     Parallel routines
     fft_scatter  :      0.38s CPU      0.42s WALL (   17053 calls)
 
     PWSCF        :     2.44s CPU         2.54s WALL

 
   This run was terminated on:  16:53:11  19Apr2018            

=------------------------------------------------------------------------------=
   JOB DONE.
=------------------------------------------------------------------------------=
