
     Program PWSCF v.6.1 (svn rev. 13369) starts on 19Apr2018 at 16:52:48 

     This program is part of the open-source Quantum ESPRESSO suite
     for quantum simulation of materials; please cite
         "P. Giannozzi et al., J. Phys.:Condens. Matter 21 395502 (2009);
          URL http://www.quantum-espresso.org", 
     in publications or presentations arising from this work. More details at
     http://www.quantum-espresso.org/quote

     Parallel version (MPI), running on     8 processors
     R & G space division:  proc/nbgrp/npool/nimage =       8
     Waiting for input...
     Reading input from standard input

     Current dimensions of program PWSCF are:
     Max number of different atomic species (ntypx) = 10
     Max number of k-points (npk) =  40000
     Max angular momentum in pseudopotentials (lmaxx) =  3

     Subspace diagonalization in iterative solution of the eigenvalue problem:
     a serial algorithm will be used

 
     Parallelization info
     --------------------
     sticks:   dense  smooth     PW     G-vecs:    dense   smooth      PW
     Min          84      84     26                 1650     1650     290
     Max          85      85     27                 1653     1653     291
     Sum         673     673    213                13205    13205    2325
 


     bravais-lattice index     =            8
     lattice parameter (alat)  =       5.5000  a.u.
     unit-cell volume          =     166.3750 (a.u.)^3
     number of atoms/cell      =            2
     number of atomic types    =            2
     number of electrons       =        16.00
     number of Kohn-Sham states=            8
     kinetic-energy cutoff     =      70.0000  Ry
     charge density cutoff     =     280.0000  Ry
     convergence threshold     =      1.0E-08
     mixing beta               =       0.7000
     number of iterations used =            8  plain     mixing
     Exchange-correlation      = PBE ( 1  4  3  4 0 0)

     celldm(1)=   5.500000  celldm(2)=   1.000000  celldm(3)=   1.000000
     celldm(4)=   0.000000  celldm(5)=   0.000000  celldm(6)=   0.000000

     crystal axes: (cart. coord. in units of alat)
               a(1) = (   1.000000   0.000000   0.000000 )  
               a(2) = (   0.000000   1.000000   0.000000 )  
               a(3) = (   0.000000   0.000000   1.000000 )  

     reciprocal axes: (cart. coord. in units 2 pi/alat)
               b(1) = (  1.000000  0.000000  0.000000 )  
               b(2) = (  0.000000  1.000000  0.000000 )  
               b(3) = (  0.000000  0.000000  1.000000 )  


     PseudoPot. # 1 for Mg read from file:
     ../pseudo/Mg.pbe.UPF
     MD5 check sum: 4c04d8c6e0476e83eaecaf72fa8acc4d
     Pseudo is Norm-conserving, Zval = 10.0
     Generated using ONCVPSP code by D. R. Hamann
     Using radial grid of 1510 points,  4 beta functions with: 
                l(1) =   0
                l(2) =   0
                l(3) =   1
                l(4) =   1

     PseudoPot. # 2 for O  read from file:
     ../pseudo/O.pbe.UPF
     MD5 check sum: 3e3f909f7470e8921608ab6b1f57bbae
     Pseudo is Norm-conserving + core correction, Zval =  6.0
     Generated using ONCVPSP code by D. R. Hamann
     Using radial grid of  936 points,  5 beta functions with: 
                l(1) =   0
                l(2) =   0
                l(3) =   1
                l(4) =   1
                l(5) =   2

     atomic species   valence    mass     pseudopotential
        Mg            10.00    24.30500     Mg( 1.00)
        O              6.00    15.99940     O ( 1.00)

     48 Sym. Ops., with inversion, found



   Cartesian axes

     site n.     atom                  positions (alat units)
         1           Mg  tau(   1) = (   0.0000000   0.0000000   0.0000000  )
         2           O   tau(   2) = (   0.5000000   0.5000000   0.5000000  )

     number of k points=    10
                       cart. coord. in units 2pi/alat
        k(    1) = (   0.0000000   0.0000000   0.0000000), wk =   0.0312500
        k(    2) = (   0.0000000   0.0000000   0.2500000), wk =   0.1875000
        k(    3) = (   0.0000000   0.0000000  -0.5000000), wk =   0.0937500
        k(    4) = (   0.0000000   0.2500000   0.2500000), wk =   0.3750000
        k(    5) = (   0.0000000   0.2500000  -0.5000000), wk =   0.3750000
        k(    6) = (   0.0000000  -0.5000000  -0.5000000), wk =   0.0937500
        k(    7) = (   0.2500000   0.2500000   0.2500000), wk =   0.2500000
        k(    8) = (   0.2500000   0.2500000  -0.5000000), wk =   0.3750000
        k(    9) = (   0.2500000  -0.5000000  -0.5000000), wk =   0.1875000
        k(   10) = (  -0.5000000  -0.5000000  -0.5000000), wk =   0.0312500

     Dense  grid:    13205 G-vectors     FFT dimensions: (  30,  30,  30)

     Estimated max dynamical RAM per process >       1.41MB

     Estimated total allocated dynamical RAM >      11.27MB

     Check: negative/imaginary core charge=   -0.000006    0.000000

     Initial potential from superposition of free atoms

     starting charge   15.99920, renormalised to   16.00000
     Starting wfc are    9 randomized atomic wfcs

     total cpu time spent up to now is        1.0 secs

     per-process dynamical memory:    31.0 Mb

     Self-consistent Calculation

     iteration #  1     ecut=    70.00 Ry     beta=0.70
     Davidson diagonalization with overlap
     ethr =  1.00E-02,  avg # of iterations =  2.0

     total cpu time spent up to now is        1.0 secs

     total energy              =    -151.71150184 Ry
     Harris-Foulkes estimate   =    -152.08338416 Ry
     estimated scf accuracy    <       0.49916823 Ry

     iteration #  2     ecut=    70.00 Ry     beta=0.70
     Davidson diagonalization with overlap
     ethr =  3.12E-03,  avg # of iterations =  3.0

     total cpu time spent up to now is        1.1 secs

     total energy              =    -151.79277005 Ry
     Harris-Foulkes estimate   =    -152.15779787 Ry
     estimated scf accuracy    <       0.84811113 Ry

     iteration #  3     ecut=    70.00 Ry     beta=0.70
     Davidson diagonalization with overlap
     ethr =  3.12E-03,  avg # of iterations =  2.8

     total cpu time spent up to now is        1.1 secs

     total energy              =    -151.94564317 Ry
     Harris-Foulkes estimate   =    -151.94638295 Ry
     estimated scf accuracy    <       0.00244660 Ry

     iteration #  4     ecut=    70.00 Ry     beta=0.70
     Davidson diagonalization with overlap
     ethr =  1.53E-05,  avg # of iterations =  2.0

     total cpu time spent up to now is        1.1 secs

     total energy              =    -151.94598684 Ry
     Harris-Foulkes estimate   =    -151.94602600 Ry
     estimated scf accuracy    <       0.00008238 Ry

     iteration #  5     ecut=    70.00 Ry     beta=0.70
     Davidson diagonalization with overlap
     ethr =  5.15E-07,  avg # of iterations =  2.3

     total cpu time spent up to now is        1.2 secs

     total energy              =    -151.94599878 Ry
     Harris-Foulkes estimate   =    -151.94599874 Ry
     estimated scf accuracy    <       0.00000109 Ry

     iteration #  6     ecut=    70.00 Ry     beta=0.70
     Davidson diagonalization with overlap
     ethr =  6.80E-09,  avg # of iterations =  2.5

     total cpu time spent up to now is        1.2 secs

     total energy              =    -151.94599892 Ry
     Harris-Foulkes estimate   =    -151.94599908 Ry
     estimated scf accuracy    <       0.00000031 Ry

     iteration #  7     ecut=    70.00 Ry     beta=0.70
     Davidson diagonalization with overlap
     ethr =  1.94E-09,  avg # of iterations =  2.8

     total cpu time spent up to now is        1.3 secs

     total energy              =    -151.94850666 Ry
     Harris-Foulkes estimate   =    -151.94850684 Ry
     estimated scf accuracy    <       0.00020512 Ry

     iteration #  8     ecut=    70.00 Ry     beta=0.70
     Davidson diagonalization with overlap
     ethr =  1.94E-09,  avg # of iterations =  1.0

     total cpu time spent up to now is        1.3 secs

     total energy              =    -151.94850154 Ry
     Harris-Foulkes estimate   =    -151.94850666 Ry
     estimated scf accuracy    <       0.00020463 Ry

     iteration #  9     ecut=    70.00 Ry     beta=0.70
     Davidson diagonalization with overlap
     ethr =  1.94E-09,  avg # of iterations =  2.6

     total cpu time spent up to now is        1.3 secs

     total energy              =    -151.94845992 Ry
     Harris-Foulkes estimate   =    -151.94850164 Ry
     estimated scf accuracy    <       0.00018335 Ry

     iteration # 10     ecut=    70.00 Ry     beta=0.70
     Davidson diagonalization with overlap
     ethr =  1.94E-09,  avg # of iterations =  3.9

     total cpu time spent up to now is        1.4 secs

     total energy              =    -151.94844887 Ry
     Harris-Foulkes estimate   =    -151.94846823 Ry
     estimated scf accuracy    <       0.00004166 Ry

     iteration # 11     ecut=    70.00 Ry     beta=0.70
     Davidson diagonalization with overlap
     ethr =  1.94E-09,  avg # of iterations =  4.0

     total cpu time spent up to now is        1.4 secs

     total energy              =    -151.94845715 Ry
     Harris-Foulkes estimate   =    -151.94845946 Ry
     estimated scf accuracy    <       0.00000404 Ry

     iteration # 12     ecut=    70.00 Ry     beta=0.70
     Davidson diagonalization with overlap
     ethr =  1.94E-09,  avg # of iterations =  3.4

     total cpu time spent up to now is        1.5 secs

     total energy              =    -151.94845846 Ry
     Harris-Foulkes estimate   =    -151.94845886 Ry
     estimated scf accuracy    <       0.00000185 Ry

     iteration # 13     ecut=    70.00 Ry     beta=0.70
     Davidson diagonalization with overlap
     ethr =  1.94E-09,  avg # of iterations =  2.6

     total cpu time spent up to now is        1.5 secs

     total energy              =    -151.94845843 Ry
     Harris-Foulkes estimate   =    -151.94845852 Ry
     estimated scf accuracy    <       0.00000044 Ry

     iteration # 14     ecut=    70.00 Ry     beta=0.70
     Davidson diagonalization with overlap
     ethr =  1.94E-09,  avg # of iterations =  1.8

     total cpu time spent up to now is        1.6 secs

     total energy              =    -151.94845841 Ry
     Harris-Foulkes estimate   =    -151.94845845 Ry
     estimated scf accuracy    <       0.00000012 Ry

     iteration # 15     ecut=    70.00 Ry     beta=0.70
     Davidson diagonalization with overlap
     ethr =  7.60E-10,  avg # of iterations =  2.0

     total cpu time spent up to now is        1.6 secs

     End of self-consistent calculation

          k = 0.0000 0.0000 0.0000 (  1647 PWs)   bands (ev):

   -69.1196 -35.8160 -35.8160 -35.8160 -10.4184   5.6704   5.6704   5.6704

          k = 0.0000 0.0000 0.2500 (  1671 PWs)   bands (ev):

   -69.1179 -35.8396 -35.8162 -35.8162 -10.1052   3.0001   5.8401   5.8401

          k = 0.0000 0.0000-0.5000 (  1654 PWs)   bands (ev):

   -69.1162 -35.8609 -35.8140 -35.8140  -9.7535   1.4793   6.0222   6.0222

          k = 0.0000 0.2500 0.2500 (  1644 PWs)   bands (ev):

   -69.1162 -35.8369 -35.8357 -35.8133  -9.8312   3.1109   4.1523   6.0136

          k = 0.0000 0.2500-0.5000 (  1634 PWs)   bands (ev):

   -69.1145 -35.8578 -35.8334 -35.8114  -9.5278   2.1328   4.2821   6.1967

          k = 0.0000-0.5000-0.5000 (  1652 PWs)   bands (ev):

   -69.1129 -35.8563 -35.8563 -35.8106  -9.2816   3.0018   3.0018   6.3800

          k = 0.2500 0.2500 0.2500 (  1637 PWs)   bands (ev):

   -69.1146 -35.8345 -35.8336 -35.8336  -9.5831   3.3614   4.4989   4.4989

          k = 0.2500 0.2500-0.5000 (  1666 PWs)   bands (ev):

   -69.1129 -35.8566 -35.8340 -35.8330  -9.3112   2.7022   4.4028   4.8985

          k = 0.2500-0.5000-0.5000 (  1656 PWs)   bands (ev):

   -69.1113 -35.8538 -35.8538 -35.8307  -9.0762   3.4298   3.4298   5.0515

          k =-0.5000-0.5000-0.5000 (  1640 PWs)   bands (ev):

   -69.1096 -35.8506 -35.8506 -35.8506  -8.8548   3.9496   3.9496   3.9496

     highest occupied level (ev):     6.3800

!    total energy              =    -151.94845842 Ry
     Harris-Foulkes estimate   =    -151.94845842 Ry
     estimated scf accuracy    <          8.8E-09 Ry

     The total energy is the sum of the following terms:

     one-electron contribution =     -84.63998439 Ry
     hartree contribution      =      44.51169137 Ry
     xc contribution           =     -24.16475202 Ry
     ewald contribution        =     -87.65541338 Ry

     convergence has been achieved in  15 iterations

     Forces acting on atoms (cartesian axes, Ry/au):

     atom    1 type  1   force =     0.00000000    0.00000000    0.00000000
     atom    2 type  2   force =     0.00000000    0.00000000    0.00000000

     Total force =     0.000000     Total SCF correction =     0.000000


     Computing stress (Cartesian axis) and pressure

          total   stress  (Ry/bohr**3)                   (kbar)     P= -265.65
  -0.00180588   0.00000000   0.00000000       -265.65      0.00      0.00
   0.00000000  -0.00180588   0.00000000          0.00   -265.65      0.00
   0.00000000   0.00000000  -0.00180588          0.00      0.00   -265.65


     Writing output data file diamond.5.5.70.4.save
 
     init_run     :      0.04s CPU      0.55s WALL (       1 calls)
     electrons    :      0.58s CPU      0.61s WALL (       1 calls)
     forces       :      0.01s CPU      0.01s WALL (       1 calls)
     stress       :      0.02s CPU      0.02s WALL (       1 calls)

     Called by init_run:
     wfcinit      :      0.01s CPU      0.12s WALL (       1 calls)
     potinit      :      0.01s CPU      0.01s WALL (       1 calls)

     Called by electrons:
     c_bands      :      0.48s CPU      0.50s WALL (      15 calls)
     sum_band     :      0.07s CPU      0.07s WALL (      15 calls)
     v_of_rho     :      0.02s CPU      0.03s WALL (      16 calls)
     mix_rho      :      0.01s CPU      0.01s WALL (      15 calls)

     Called by c_bands:
     init_us_2    :      0.02s CPU      0.02s WALL (     330 calls)
     cegterg      :      0.45s CPU      0.46s WALL (     150 calls)

     Called by sum_band:

     Called by *egterg:
     h_psi        :      0.31s CPU      0.34s WALL (     547 calls)
     g_psi        :      0.00s CPU      0.00s WALL (     387 calls)
     cdiaghg      :      0.08s CPU      0.16s WALL (     537 calls)

     Called by h_psi:
     h_psi:pot    :      0.31s CPU      0.34s WALL (     547 calls)
     h_psi:calbec :      0.02s CPU      0.04s WALL (     547 calls)
     vloc_psi     :      0.28s CPU      0.29s WALL (     547 calls)
     add_vuspsi   :      0.01s CPU      0.01s WALL (     547 calls)

     General routines
     calbec       :      0.02s CPU      0.04s WALL (     597 calls)
     fft          :      0.01s CPU      0.41s WALL (     200 calls)
     fftw         :      0.31s CPU      0.31s WALL (    7890 calls)
     davcio       :      0.00s CPU      0.00s WALL (      10 calls)
 
     Parallel routines
     fft_scatter  :      0.11s CPU      0.13s WALL (    8090 calls)
 
     PWSCF        :     0.84s CPU         1.70s WALL

 
   This run was terminated on:  16:52:49  19Apr2018            

=------------------------------------------------------------------------------=
   JOB DONE.
=------------------------------------------------------------------------------=
