
     Program PWSCF v.6.1 (svn rev. 13369) starts on 19Apr2018 at 18:46:53 

     This program is part of the open-source Quantum ESPRESSO suite
     for quantum simulation of materials; please cite
         "P. Giannozzi et al., J. Phys.:Condens. Matter 21 395502 (2009);
          URL http://www.quantum-espresso.org", 
     in publications or presentations arising from this work. More details at
     http://www.quantum-espresso.org/quote

     Parallel version (MPI), running on     8 processors
     R & G space division:  proc/nbgrp/npool/nimage =       8
     Waiting for input...
     Reading input from standard input

     Current dimensions of program PWSCF are:
     Max number of different atomic species (ntypx) = 10
     Max number of k-points (npk) =  40000
     Max angular momentum in pseudopotentials (lmaxx) =  3

     Subspace diagonalization in iterative solution of the eigenvalue problem:
     a serial algorithm will be used

 
     Parallelization info
     --------------------
     sticks:   dense  smooth     PW     G-vecs:    dense   smooth      PW
     Min          79      79     24                 1301     1301     225
     Max          80      80     25                 1303     1303     227
     Sum         637     637    199                10417    10417    1807
 


     bravais-lattice index     =            2
     lattice parameter (alat)  =       8.0630  a.u.
     unit-cell volume          =     131.0479 (a.u.)^3
     number of atoms/cell      =            2
     number of atomic types    =            2
     number of electrons       =        16.00
     number of Kohn-Sham states=            8
     kinetic-energy cutoff     =      70.0000  Ry
     charge density cutoff     =     280.0000  Ry
     convergence threshold     =      1.0E-08
     mixing beta               =       0.7000
     number of iterations used =            8  plain     mixing
     Exchange-correlation      = PBE ( 1  4  3  4 0 0)

     celldm(1)=   8.063000  celldm(2)=   0.000000  celldm(3)=   0.000000
     celldm(4)=   0.000000  celldm(5)=   0.000000  celldm(6)=   0.000000

     crystal axes: (cart. coord. in units of alat)
               a(1) = (  -0.500000   0.000000   0.500000 )  
               a(2) = (   0.000000   0.500000   0.500000 )  
               a(3) = (  -0.500000   0.500000   0.000000 )  

     reciprocal axes: (cart. coord. in units 2 pi/alat)
               b(1) = ( -1.000000 -1.000000  1.000000 )  
               b(2) = (  1.000000  1.000000  1.000000 )  
               b(3) = ( -1.000000  1.000000 -1.000000 )  


     PseudoPot. # 1 for Mg read from file:
     ../pseudo/Mg.pbe.UPF
     MD5 check sum: 4c04d8c6e0476e83eaecaf72fa8acc4d
     Pseudo is Norm-conserving, Zval = 10.0
     Generated using ONCVPSP code by D. R. Hamann
     Using radial grid of 1510 points,  4 beta functions with: 
                l(1) =   0
                l(2) =   0
                l(3) =   1
                l(4) =   1

     PseudoPot. # 2 for O  read from file:
     ../pseudo/O.pbe.UPF
     MD5 check sum: 3e3f909f7470e8921608ab6b1f57bbae
     Pseudo is Norm-conserving + core correction, Zval =  6.0
     Generated using ONCVPSP code by D. R. Hamann
     Using radial grid of  936 points,  5 beta functions with: 
                l(1) =   0
                l(2) =   0
                l(3) =   1
                l(4) =   1
                l(5) =   2

     atomic species   valence    mass     pseudopotential
        Mg            10.00    24.30500     Mg( 1.00)
        O              6.00    15.99940     O ( 1.00)

     48 Sym. Ops., with inversion, found



   Cartesian axes

     site n.     atom                  positions (alat units)
         1           Mg  tau(   1) = (   0.0000000   0.0000000   0.0000000  )
         2           O   tau(   2) = (   0.5000000   0.5000000   0.5000000  )

     number of k points=     8
                       cart. coord. in units 2pi/alat
        k(    1) = (   0.0000000   0.0000000   0.0000000), wk =   0.0312500
        k(    2) = (  -0.2500000   0.2500000  -0.2500000), wk =   0.2500000
        k(    3) = (   0.5000000  -0.5000000   0.5000000), wk =   0.1250000
        k(    4) = (   0.0000000   0.5000000   0.0000000), wk =   0.1875000
        k(    5) = (   0.7500000  -0.2500000   0.7500000), wk =   0.7500000
        k(    6) = (   0.5000000   0.0000000   0.5000000), wk =   0.3750000
        k(    7) = (   0.0000000  -1.0000000   0.0000000), wk =   0.0937500
        k(    8) = (  -0.5000000  -1.0000000   0.0000000), wk =   0.1875000

     Dense  grid:    10417 G-vectors     FFT dimensions: (  32,  32,  32)

     Estimated max dynamical RAM per process >       1.17MB

     Estimated total allocated dynamical RAM >       9.33MB

     Check: negative/imaginary core charge=   -0.000007    0.000000

     Initial potential from superposition of free atoms

     starting charge   15.99920, renormalised to   16.00000
     Starting wfc are    9 randomized atomic wfcs

     total cpu time spent up to now is        0.2 secs

     per-process dynamical memory:    31.6 Mb

     Self-consistent Calculation

     iteration #  1     ecut=    70.00 Ry     beta=0.70
     Davidson diagonalization with overlap
     ethr =  1.00E-02,  avg # of iterations =  1.9

     total cpu time spent up to now is        0.2 secs

     total energy              =    -151.92881002 Ry
     Harris-Foulkes estimate   =    -152.21094824 Ry
     estimated scf accuracy    <       0.39188101 Ry

     iteration #  2     ecut=    70.00 Ry     beta=0.70
     Davidson diagonalization with overlap
     ethr =  2.45E-03,  avg # of iterations =  2.4

     total cpu time spent up to now is        0.2 secs

     total energy              =    -152.02645147 Ry
     Harris-Foulkes estimate   =    -152.19993284 Ry
     estimated scf accuracy    <       0.35933361 Ry

     iteration #  3     ecut=    70.00 Ry     beta=0.70
     Davidson diagonalization with overlap
     ethr =  2.25E-03,  avg # of iterations =  2.0

     total cpu time spent up to now is        0.3 secs

     total energy              =    -152.09710443 Ry
     Harris-Foulkes estimate   =    -152.09725966 Ry
     estimated scf accuracy    <       0.00165834 Ry

     iteration #  4     ecut=    70.00 Ry     beta=0.70
     Davidson diagonalization with overlap
     ethr =  1.04E-05,  avg # of iterations =  2.0

     total cpu time spent up to now is        0.3 secs

     total energy              =    -152.09745875 Ry
     Harris-Foulkes estimate   =    -152.09746932 Ry
     estimated scf accuracy    <       0.00002699 Ry

     iteration #  5     ecut=    70.00 Ry     beta=0.70
     Davidson diagonalization with overlap
     ethr =  1.69E-07,  avg # of iterations =  1.1

     total cpu time spent up to now is        0.3 secs

     total energy              =    -152.09746038 Ry
     Harris-Foulkes estimate   =    -152.09746008 Ry
     estimated scf accuracy    <       0.00000282 Ry

     iteration #  6     ecut=    70.00 Ry     beta=0.70
     Davidson diagonalization with overlap
     ethr =  1.76E-08,  avg # of iterations =  2.0

     total cpu time spent up to now is        0.3 secs

     total energy              =    -152.09746084 Ry
     Harris-Foulkes estimate   =    -152.09746099 Ry
     estimated scf accuracy    <       0.00000033 Ry

     iteration #  7     ecut=    70.00 Ry     beta=0.70
     Davidson diagonalization with overlap
     ethr =  2.07E-09,  avg # of iterations =  2.0

     total cpu time spent up to now is        0.4 secs

     total energy              =    -152.09746085 Ry
     Harris-Foulkes estimate   =    -152.09746088 Ry
     estimated scf accuracy    <       0.00000005 Ry

     iteration #  8     ecut=    70.00 Ry     beta=0.70
     Davidson diagonalization with overlap
     ethr =  2.92E-10,  avg # of iterations =  2.0

     total cpu time spent up to now is        0.4 secs

     End of self-consistent calculation

          k = 0.0000 0.0000 0.0000 (  1291 PWs)   bands (ev):

   -64.9435 -31.6752 -31.6752 -31.6752  -9.3996   7.6065   7.6065   7.6065

          k =-0.2500 0.2500-0.2500 (  1314 PWs)   bands (ev):

   -64.9400 -31.7143 -31.6809 -31.6809  -8.8379   5.0318   7.2924   7.2924

          k = 0.5000-0.5000 0.5000 (  1308 PWs)   bands (ev):

   -64.9365 -31.7479 -31.6849 -31.6849  -8.1803   3.1742   7.0052   7.0052

          k = 0.0000 0.5000 0.0000 (  1299 PWs)   bands (ev):

   -64.9388 -31.7096 -31.6888 -31.6888  -8.6890   5.0662   6.9070   6.9070

          k = 0.7500-0.2500 0.7500 (  1290 PWs)   bands (ev):

   -64.9353 -31.7325 -31.7016 -31.6925  -8.0816   3.9532   5.7911   6.6463

          k = 0.5000 0.0000 0.5000 (  1304 PWs)   bands (ev):

   -64.9365 -31.7262 -31.7052 -31.6852  -8.2542   4.2429   5.7131   7.0036

          k = 0.0000-1.0000 0.0000 (  1298 PWs)   bands (ev):

   -64.9341 -31.7378 -31.7014 -31.7014  -7.9654   3.7139   6.3217   6.3217

          k =-0.5000-1.0000 0.0000 (  1316 PWs)   bands (ev):

   -64.9341 -31.7203 -31.7203 -31.7037  -7.9094   4.7968   4.7968   5.9155

     highest occupied level (ev):     7.6065

!    total energy              =    -152.09746086 Ry
     Harris-Foulkes estimate   =    -152.09746086 Ry
     estimated scf accuracy    <          2.2E-09 Ry

     The total energy is the sum of the following terms:

     one-electron contribution =     -76.22078015 Ry
     hartree contribution      =      42.13171571 Ry
     xc contribution           =     -24.45646931 Ry
     ewald contribution        =     -93.55192711 Ry

     convergence has been achieved in   8 iterations

     Forces acting on atoms (cartesian axes, Ry/au):

     atom    1 type  1   force =    -0.00000000   -0.00000000    0.00000000
     atom    2 type  2   force =     0.00000000    0.00000000   -0.00000000

     Total force =     0.000000     Total SCF correction =     0.000000


     Computing stress (Cartesian axis) and pressure

          total   stress  (Ry/bohr**3)                   (kbar)     P=  -75.24
  -0.00051146   0.00000000   0.00000000        -75.24      0.00      0.00
  -0.00000000  -0.00051146  -0.00000000         -0.00    -75.24     -0.00
   0.00000000   0.00000000  -0.00051146          0.00      0.00    -75.24


     Writing output data file diamond.8.063.70.4.save
 
     init_run     :      0.03s CPU      0.03s WALL (       1 calls)
     electrons    :      0.22s CPU      0.25s WALL (       1 calls)
     forces       :      0.01s CPU      0.01s WALL (       1 calls)
     stress       :      0.02s CPU      0.02s WALL (       1 calls)

     Called by init_run:
     wfcinit      :      0.01s CPU      0.01s WALL (       1 calls)
     potinit      :      0.00s CPU      0.00s WALL (       1 calls)

     Called by electrons:
     c_bands      :      0.17s CPU      0.18s WALL (       8 calls)
     sum_band     :      0.03s CPU      0.03s WALL (       8 calls)
     v_of_rho     :      0.02s CPU      0.02s WALL (       9 calls)
     mix_rho      :      0.00s CPU      0.00s WALL (       8 calls)

     Called by c_bands:
     init_us_2    :      0.01s CPU      0.01s WALL (     152 calls)
     cegterg      :      0.16s CPU      0.17s WALL (      64 calls)

     Called by sum_band:

     Called by *egterg:
     h_psi        :      0.12s CPU      0.13s WALL (     195 calls)
     g_psi        :      0.00s CPU      0.00s WALL (     123 calls)
     cdiaghg      :      0.02s CPU      0.02s WALL (     187 calls)

     Called by h_psi:
     h_psi:pot    :      0.12s CPU      0.13s WALL (     195 calls)
     h_psi:calbec :      0.01s CPU      0.01s WALL (     195 calls)
     vloc_psi     :      0.10s CPU      0.12s WALL (     195 calls)
     add_vuspsi   :      0.00s CPU      0.00s WALL (     195 calls)

     General routines
     calbec       :      0.01s CPU      0.01s WALL (     235 calls)
     fft          :      0.01s CPU      0.01s WALL (     123 calls)
     fftw         :      0.11s CPU      0.12s WALL (    3232 calls)
     davcio       :      0.00s CPU      0.00s WALL (       8 calls)
 
     Parallel routines
     fft_scatter  :      0.05s CPU      0.05s WALL (    3355 calls)
 
     PWSCF        :     0.45s CPU         0.51s WALL

 
   This run was terminated on:  18:46:54  19Apr2018            

=------------------------------------------------------------------------------=
   JOB DONE.
=------------------------------------------------------------------------------=
