
     Program PWSCF v.6.1 (svn rev. 13369) starts on 19Apr2018 at 16:10: 3 

     This program is part of the open-source Quantum ESPRESSO suite
     for quantum simulation of materials; please cite
         "P. Giannozzi et al., J. Phys.:Condens. Matter 21 395502 (2009);
          URL http://www.quantum-espresso.org", 
     in publications or presentations arising from this work. More details at
     http://www.quantum-espresso.org/quote

     Parallel version (MPI), running on     8 processors
     R & G space division:  proc/nbgrp/npool/nimage =       8
     Waiting for input...
     Reading input from standard input

     Current dimensions of program PWSCF are:
     Max number of different atomic species (ntypx) = 10
     Max number of k-points (npk) =  40000
     Max angular momentum in pseudopotentials (lmaxx) =  3

     Subspace diagonalization in iterative solution of the eigenvalue problem:
     a serial algorithm will be used

 
     Parallelization info
     --------------------
     sticks:   dense  smooth     PW     G-vecs:    dense   smooth      PW
     Min         155     155     46                 4169     4169     672
     Max         156     156     48                 4172     4172     673
     Sum        1245    1245    373                33371    33371    5377
 


     bravais-lattice index     =            8
     lattice parameter (alat)  =       7.5000  a.u.
     unit-cell volume          =     421.8750 (a.u.)^3
     number of atoms/cell      =            2
     number of atomic types    =            2
     number of electrons       =        16.00
     number of Kohn-Sham states=            8
     kinetic-energy cutoff     =      70.0000  Ry
     charge density cutoff     =     280.0000  Ry
     convergence threshold     =      1.0E-08
     mixing beta               =       0.7000
     number of iterations used =            8  plain     mixing
     Exchange-correlation      = PBE ( 1  4  3  4 0 0)

     celldm(1)=   7.500000  celldm(2)=   1.000000  celldm(3)=   1.000000
     celldm(4)=   0.000000  celldm(5)=   0.000000  celldm(6)=   0.000000

     crystal axes: (cart. coord. in units of alat)
               a(1) = (   1.000000   0.000000   0.000000 )  
               a(2) = (   0.000000   1.000000   0.000000 )  
               a(3) = (   0.000000   0.000000   1.000000 )  

     reciprocal axes: (cart. coord. in units 2 pi/alat)
               b(1) = (  1.000000  0.000000  0.000000 )  
               b(2) = (  0.000000  1.000000  0.000000 )  
               b(3) = (  0.000000  0.000000  1.000000 )  


     PseudoPot. # 1 for Mg read from file:
     ../pseudo/Mg.pbe.UPF
     MD5 check sum: 4c04d8c6e0476e83eaecaf72fa8acc4d
     Pseudo is Norm-conserving, Zval = 10.0
     Generated using ONCVPSP code by D. R. Hamann
     Using radial grid of 1510 points,  4 beta functions with: 
                l(1) =   0
                l(2) =   0
                l(3) =   1
                l(4) =   1

     PseudoPot. # 2 for O  read from file:
     ../pseudo/O.pbe.UPF
     MD5 check sum: 3e3f909f7470e8921608ab6b1f57bbae
     Pseudo is Norm-conserving + core correction, Zval =  6.0
     Generated using ONCVPSP code by D. R. Hamann
     Using radial grid of  936 points,  5 beta functions with: 
                l(1) =   0
                l(2) =   0
                l(3) =   1
                l(4) =   1
                l(5) =   2

     atomic species   valence    mass     pseudopotential
        Mg            10.00    24.30500     Mg( 1.00)
        O              6.00    15.99940     O ( 1.00)

     48 Sym. Ops., with inversion, found



   Cartesian axes

     site n.     atom                  positions (alat units)
         1           Mg  tau(   1) = (   0.0000000   0.0000000   0.0000000  )
         2           O   tau(   2) = (   0.5000000   0.5000000   0.5000000  )

     number of k points=    10
                       cart. coord. in units 2pi/alat
        k(    1) = (   0.0000000   0.0000000   0.0000000), wk =   0.0312500
        k(    2) = (   0.0000000   0.0000000   0.2500000), wk =   0.1875000
        k(    3) = (   0.0000000   0.0000000  -0.5000000), wk =   0.0937500
        k(    4) = (   0.0000000   0.2500000   0.2500000), wk =   0.3750000
        k(    5) = (   0.0000000   0.2500000  -0.5000000), wk =   0.3750000
        k(    6) = (   0.0000000  -0.5000000  -0.5000000), wk =   0.0937500
        k(    7) = (   0.2500000   0.2500000   0.2500000), wk =   0.2500000
        k(    8) = (   0.2500000   0.2500000  -0.5000000), wk =   0.3750000
        k(    9) = (   0.2500000  -0.5000000  -0.5000000), wk =   0.1875000
        k(   10) = (  -0.5000000  -0.5000000  -0.5000000), wk =   0.0312500

     Dense  grid:    33371 G-vectors     FFT dimensions: (  40,  40,  40)

     Estimated max dynamical RAM per process >       3.44MB

     Estimated total allocated dynamical RAM >      27.51MB

     Check: negative/imaginary core charge=   -0.000004    0.000000

     Initial potential from superposition of free atoms

     starting charge   15.99920, renormalised to   16.00000
     Starting wfc are    9 randomized atomic wfcs

     total cpu time spent up to now is        1.0 secs

     per-process dynamical memory:    34.6 Mb

     Self-consistent Calculation

     iteration #  1     ecut=    70.00 Ry     beta=0.70
     Davidson diagonalization with overlap
     ethr =  1.00E-02,  avg # of iterations =  2.0

     total cpu time spent up to now is        1.1 secs

     total energy              =    -150.67744705 Ry
     Harris-Foulkes estimate   =    -151.90479590 Ry
     estimated scf accuracy    <       1.56216427 Ry

     iteration #  2     ecut=    70.00 Ry     beta=0.70
     Davidson diagonalization with overlap
     ethr =  9.76E-03,  avg # of iterations =  4.2

     total cpu time spent up to now is        1.2 secs

     total energy              =    -150.23788510 Ry
     Harris-Foulkes estimate   =    -153.71362474 Ry
     estimated scf accuracy    <      11.87924626 Ry

     iteration #  3     ecut=    70.00 Ry     beta=0.70
     Davidson diagonalization with overlap
     ethr =  9.76E-03,  avg # of iterations =  3.9

     total cpu time spent up to now is        1.3 secs

     total energy              =    -151.51239979 Ry
     Harris-Foulkes estimate   =    -151.47874589 Ry
     estimated scf accuracy    <       0.09615340 Ry

     iteration #  4     ecut=    70.00 Ry     beta=0.70
     Davidson diagonalization with overlap
     ethr =  6.01E-04,  avg # of iterations =  2.4

     total cpu time spent up to now is        1.3 secs

     total energy              =    -151.42624610 Ry
     Harris-Foulkes estimate   =    -151.52238745 Ry
     estimated scf accuracy    <       0.32341809 Ry

     iteration #  5     ecut=    70.00 Ry     beta=0.70
     Davidson diagonalization with overlap
     ethr =  6.01E-04,  avg # of iterations =  2.7

     total cpu time spent up to now is        1.4 secs

     total energy              =    -151.46177075 Ry
     Harris-Foulkes estimate   =    -151.46282703 Ry
     estimated scf accuracy    <       0.00446527 Ry

     iteration #  6     ecut=    70.00 Ry     beta=0.70
     Davidson diagonalization with overlap
     ethr =  2.79E-05,  avg # of iterations =  2.2

     total cpu time spent up to now is        1.5 secs

     total energy              =    -151.46204806 Ry
     Harris-Foulkes estimate   =    -151.46215719 Ry
     estimated scf accuracy    <       0.00049322 Ry

     iteration #  7     ecut=    70.00 Ry     beta=0.70
     Davidson diagonalization with overlap
     ethr =  3.08E-06,  avg # of iterations =  2.0

     total cpu time spent up to now is        1.5 secs

     total energy              =    -151.46204924 Ry
     Harris-Foulkes estimate   =    -151.46208246 Ry
     estimated scf accuracy    <       0.00008225 Ry

     iteration #  8     ecut=    70.00 Ry     beta=0.70
     Davidson diagonalization with overlap
     ethr =  5.14E-07,  avg # of iterations =  2.5

     total cpu time spent up to now is        1.6 secs

     total energy              =    -151.46206853 Ry
     Harris-Foulkes estimate   =    -151.46207027 Ry
     estimated scf accuracy    <       0.00000646 Ry

     iteration #  9     ecut=    70.00 Ry     beta=0.70
     Davidson diagonalization with overlap
     ethr =  4.04E-08,  avg # of iterations =  2.0

     total cpu time spent up to now is        1.7 secs

     total energy              =    -151.46206877 Ry
     Harris-Foulkes estimate   =    -151.46206909 Ry
     estimated scf accuracy    <       0.00000114 Ry

     iteration # 10     ecut=    70.00 Ry     beta=0.70
     Davidson diagonalization with overlap
     ethr =  7.15E-09,  avg # of iterations =  5.4

     total cpu time spent up to now is        1.8 secs

     total energy              =    -151.63695554 Ry
     Harris-Foulkes estimate   =    -151.63698321 Ry
     estimated scf accuracy    <       0.25976679 Ry

     iteration # 11     ecut=    70.00 Ry     beta=0.70
     Davidson diagonalization with overlap
     ethr =  7.15E-09,  avg # of iterations =  1.0

     total cpu time spent up to now is        1.8 secs

     total energy              =    -151.63687888 Ry
     Harris-Foulkes estimate   =    -151.63695554 Ry
     estimated scf accuracy    <       0.25967085 Ry

     iteration # 12     ecut=    70.00 Ry     beta=0.70
     Davidson diagonalization with overlap
     ethr =  7.15E-09,  avg # of iterations =  1.7

     total cpu time spent up to now is        1.9 secs

     total energy              =    -151.63649426 Ry
     Harris-Foulkes estimate   =    -151.63687892 Ry
     estimated scf accuracy    <       0.25915978 Ry

     iteration # 13     ecut=    70.00 Ry     beta=0.70
     Davidson diagonalization with overlap
     ethr =  7.15E-09,  avg # of iterations =  2.9

     total cpu time spent up to now is        1.9 secs

     total energy              =    -151.63651443 Ry
     Harris-Foulkes estimate   =    -151.63649487 Ry
     estimated scf accuracy    <       0.25692193 Ry

     iteration # 14     ecut=    70.00 Ry     beta=0.70
     Davidson diagonalization with overlap
     ethr =  7.15E-09,  avg # of iterations =  1.0

     total cpu time spent up to now is        2.0 secs

     total energy              =    -151.63641121 Ry
     Harris-Foulkes estimate   =    -151.63651443 Ry
     estimated scf accuracy    <       0.25697120 Ry

     iteration # 15     ecut=    70.00 Ry     beta=0.70
     Davidson diagonalization with overlap
     ethr =  7.15E-09,  avg # of iterations =  1.7

     total cpu time spent up to now is        2.1 secs

     total energy              =    -151.63566826 Ry
     Harris-Foulkes estimate   =    -151.63641124 Ry
     estimated scf accuracy    <       0.25647068 Ry

     iteration # 16     ecut=    70.00 Ry     beta=0.70
     Davidson diagonalization with overlap
     ethr =  7.15E-09,  avg # of iterations =  3.4

     total cpu time spent up to now is        2.1 secs

     total energy              =    -151.63482568 Ry
     Harris-Foulkes estimate   =    -151.63567056 Ry
     estimated scf accuracy    <       0.25213200 Ry

     iteration # 17     ecut=    70.00 Ry     beta=0.70
     Davidson diagonalization with overlap
     ethr =  7.15E-09,  avg # of iterations =  3.5

     total cpu time spent up to now is        2.2 secs

     total energy              =    -151.63855095 Ry
     Harris-Foulkes estimate   =    -151.63482859 Ry
     estimated scf accuracy    <       0.24727568 Ry

     iteration # 18     ecut=    70.00 Ry     beta=0.70
     Davidson diagonalization with overlap
     ethr =  7.15E-09,  avg # of iterations =  4.3

     total cpu time spent up to now is        2.3 secs

     total energy              =    -151.56072748 Ry
     Harris-Foulkes estimate   =    -151.63860835 Ry
     estimated scf accuracy    <       0.26910673 Ry

     iteration # 19     ecut=    70.00 Ry     beta=0.70
     Davidson diagonalization with overlap
     ethr =  7.15E-09,  avg # of iterations =  6.4

     total cpu time spent up to now is        2.4 secs

     total energy              =    -151.59599300 Ry
     Harris-Foulkes estimate   =    -151.59602496 Ry
     estimated scf accuracy    <       0.00218801 Ry

     iteration # 20     ecut=    70.00 Ry     beta=0.70
     Davidson diagonalization with overlap
     ethr =  7.15E-09,  avg # of iterations =  3.3

     total cpu time spent up to now is        2.5 secs

     total energy              =    -151.59585810 Ry
     Harris-Foulkes estimate   =    -151.59599336 Ry
     estimated scf accuracy    <       0.00202202 Ry

     iteration # 21     ecut=    70.00 Ry     beta=0.70
     Davidson diagonalization with overlap
     ethr =  7.15E-09,  avg # of iterations =  4.2

     total cpu time spent up to now is        2.6 secs

     total energy              =    -151.59561709 Ry
     Harris-Foulkes estimate   =    -151.59586879 Ry
     estimated scf accuracy    <       0.00124536 Ry

     iteration # 22     ecut=    70.00 Ry     beta=0.70
     Davidson diagonalization with overlap
     ethr =  7.15E-09,  avg # of iterations =  4.6

     total cpu time spent up to now is        2.7 secs

     total energy              =    -151.59558738 Ry
     Harris-Foulkes estimate   =    -151.59567676 Ry
     estimated scf accuracy    <       0.00015343 Ry

     iteration # 23     ecut=    70.00 Ry     beta=0.70
     Davidson diagonalization with overlap
     ethr =  7.15E-09,  avg # of iterations =  4.8

     total cpu time spent up to now is        2.8 secs

     total energy              =    -151.59575508 Ry
     Harris-Foulkes estimate   =    -151.59570321 Ry
     estimated scf accuracy    <       0.00041009 Ry

     iteration # 24     ecut=    70.00 Ry     beta=0.70
     Davidson diagonalization with overlap
     ethr =  7.15E-09,  avg # of iterations =  4.1

     total cpu time spent up to now is        2.9 secs

     total energy              =    -151.59557810 Ry
     Harris-Foulkes estimate   =    -151.59576093 Ry
     estimated scf accuracy    <       0.00073487 Ry

     iteration # 25     ecut=    70.00 Ry     beta=0.70
     Davidson diagonalization with overlap
     ethr =  7.15E-09,  avg # of iterations =  4.6

     total cpu time spent up to now is        3.0 secs

     total energy              =    -151.59565619 Ry
     Harris-Foulkes estimate   =    -151.59564455 Ry
     estimated scf accuracy    <       0.00000760 Ry

     iteration # 26     ecut=    70.00 Ry     beta=0.70
     Davidson diagonalization with overlap
     ethr =  7.15E-09,  avg # of iterations =  4.1

     total cpu time spent up to now is        3.1 secs

     total energy              =    -151.59562979 Ry
     Harris-Foulkes estimate   =    -151.59566507 Ry
     estimated scf accuracy    <       0.00013501 Ry

     iteration # 27     ecut=    70.00 Ry     beta=0.70
     Davidson diagonalization with overlap
     ethr =  7.15E-09,  avg # of iterations =  4.1

     total cpu time spent up to now is        3.2 secs

     total energy              =    -151.59564333 Ry
     Harris-Foulkes estimate   =    -151.59564331 Ry
     estimated scf accuracy    <       0.00000067 Ry

     iteration # 28     ecut=    70.00 Ry     beta=0.70
     Davidson diagonalization with overlap
     ethr =  4.16E-09,  avg # of iterations =  1.0

     total cpu time spent up to now is        3.2 secs

     total energy              =    -151.59564326 Ry
     Harris-Foulkes estimate   =    -151.59564333 Ry
     estimated scf accuracy    <       0.00000072 Ry

     iteration # 29     ecut=    70.00 Ry     beta=0.70
     Davidson diagonalization with overlap
     ethr =  4.16E-09,  avg # of iterations =  1.0

     total cpu time spent up to now is        3.3 secs

     total energy              =    -151.59564307 Ry
     Harris-Foulkes estimate   =    -151.59564328 Ry
     estimated scf accuracy    <       0.00000061 Ry

     iteration # 30     ecut=    70.00 Ry     beta=0.70
     Davidson diagonalization with overlap
     ethr =  3.84E-09,  avg # of iterations =  3.0

     total cpu time spent up to now is        3.3 secs

     total energy              =    -151.59564310 Ry
     Harris-Foulkes estimate   =    -151.59564314 Ry
     estimated scf accuracy    <       0.00000011 Ry

     iteration # 31     ecut=    70.00 Ry     beta=0.70
     Davidson diagonalization with overlap
     ethr =  6.66E-10,  avg # of iterations =  2.0

     total cpu time spent up to now is        3.4 secs

     End of self-consistent calculation

          k = 0.0000 0.0000 0.0000 (  4139 PWs)   bands (ev):

   -77.8412 -44.5340 -44.5340 -44.5340 -14.9731  -1.7862  -0.3179  -0.3179

          k = 0.0000 0.0000 0.2500 (  4140 PWs)   bands (ev):

   -77.8411 -44.5349 -44.5340 -44.5340 -14.9517  -1.9863  -0.2603  -0.2603

          k = 0.0000 0.0000-0.5000 (  4140 PWs)   bands (ev):

   -77.8411 -44.5359 -44.5338 -44.5338 -14.9302  -2.1812  -0.2010  -0.2010

          k = 0.0000 0.2500 0.2500 (  4174 PWs)   bands (ev):

   -77.8411 -44.5357 -44.5353 -44.5346 -14.9322  -1.8124  -0.7255  -0.2113

          k = 0.0000 0.2500-0.5000 (  4186 PWs)   bands (ev):

   -77.8411 -44.5362 -44.5358 -44.5346 -14.9125  -1.7676  -0.7354  -0.1609

          k = 0.0000-0.5000-0.5000 (  4196 PWs)   bands (ev):

   -77.8411 -44.5362 -44.5362 -44.5351 -14.8946  -1.1147  -1.1147  -0.1199

          k = 0.2500 0.2500 0.2500 (  4194 PWs)   bands (ev):

   -77.8411 -44.5359 -44.5355 -44.5355 -14.9140  -1.5693  -0.5996  -0.5996

          k = 0.2500 0.2500-0.5000 (  4178 PWs)   bands (ev):

   -77.8411 -44.5357 -44.5355 -44.5350 -14.8957  -1.4143  -0.7060  -0.4636

          k = 0.2500-0.5000-0.5000 (  4160 PWs)   bands (ev):

   -77.8411 -44.5352 -44.5352 -44.5347 -14.8789  -0.9291  -0.9291  -0.4367

          k =-0.5000-0.5000-0.5000 (  4224 PWs)   bands (ev):

   -77.8411 -44.5367 -44.5367 -44.5367 -14.8630  -0.7170  -0.7170  -0.7170

     highest occupied level (ev):    -0.1199

!    total energy              =    -151.59564311 Ry
     Harris-Foulkes estimate   =    -151.59564312 Ry
     estimated scf accuracy    <          2.6E-09 Ry

     The total energy is the sum of the following terms:

     one-electron contribution =    -122.84042086 Ry
     hartree contribution      =      59.18956443 Ry
     xc contribution           =     -23.66415020 Ry
     ewald contribution        =     -64.28063648 Ry

     convergence has been achieved in  31 iterations

     Forces acting on atoms (cartesian axes, Ry/au):

     atom    1 type  1   force =     0.00000000    0.00000000    0.00000000
     atom    2 type  2   force =     0.00000000    0.00000000    0.00000000

     Total force =     0.000000     Total SCF correction =     0.000000


     Computing stress (Cartesian axis) and pressure

          total   stress  (Ry/bohr**3)                   (kbar)     P= -157.65
  -0.00107168   0.00000000   0.00000000       -157.65      0.00      0.00
   0.00000000  -0.00107168   0.00000000          0.00   -157.65      0.00
   0.00000000   0.00000000  -0.00107168          0.00      0.00   -157.65


     Writing output data file diamond.7.5.70.4.save
 
     init_run     :      0.08s CPU      0.50s WALL (       1 calls)
     electrons    :      2.31s CPU      2.38s WALL (       1 calls)
     forces       :      0.02s CPU      0.02s WALL (       1 calls)
     stress       :      0.04s CPU      0.05s WALL (       1 calls)

     Called by init_run:
     wfcinit      :      0.03s CPU      0.04s WALL (       1 calls)
     potinit      :      0.01s CPU      0.01s WALL (       1 calls)

     Called by electrons:
     c_bands      :      1.87s CPU      1.93s WALL (      31 calls)
     sum_band     :      0.29s CPU      0.30s WALL (      31 calls)
     v_of_rho     :      0.11s CPU      0.11s WALL (      32 calls)
     mix_rho      :      0.03s CPU      0.03s WALL (      31 calls)

     Called by c_bands:
     init_us_2    :      0.09s CPU      0.08s WALL (     650 calls)
     cegterg      :      1.67s CPU      1.73s WALL (     310 calls)

     Called by sum_band:

     Called by *egterg:
     h_psi        :      1.28s CPU      1.33s WALL (    1280 calls)
     g_psi        :      0.01s CPU      0.02s WALL (     960 calls)
     cdiaghg      :      0.17s CPU      0.18s WALL (    1270 calls)

     Called by h_psi:
     h_psi:pot    :      1.28s CPU      1.32s WALL (    1280 calls)
     h_psi:calbec :      0.08s CPU      0.08s WALL (    1280 calls)
     vloc_psi     :      1.16s CPU      1.20s WALL (    1280 calls)
     add_vuspsi   :      0.03s CPU      0.04s WALL (    1280 calls)

     General routines
     calbec       :      0.09s CPU      0.08s WALL (    1330 calls)
     fft          :      0.04s CPU      0.45s WALL (     376 calls)
     fftw         :      1.25s CPU      1.28s WALL (   16774 calls)
     davcio       :      0.00s CPU      0.00s WALL (      10 calls)
 
     Parallel routines
     fft_scatter  :      0.43s CPU      0.46s WALL (   17150 calls)
 
     PWSCF        :     2.64s CPU         3.56s WALL

 
   This run was terminated on:  16:10: 6  19Apr2018            

=------------------------------------------------------------------------------=
   JOB DONE.
=------------------------------------------------------------------------------=
