
     Program PWSCF v.6.1 (svn rev. 13369) starts on 19Apr2018 at 16:52:51 

     This program is part of the open-source Quantum ESPRESSO suite
     for quantum simulation of materials; please cite
         "P. Giannozzi et al., J. Phys.:Condens. Matter 21 395502 (2009);
          URL http://www.quantum-espresso.org", 
     in publications or presentations arising from this work. More details at
     http://www.quantum-espresso.org/quote

     Parallel version (MPI), running on     8 processors
     R & G space division:  proc/nbgrp/npool/nimage =       8
     Waiting for input...
     Reading input from standard input

     Current dimensions of program PWSCF are:
     Max number of different atomic species (ntypx) = 10
     Max number of k-points (npk) =  40000
     Max angular momentum in pseudopotentials (lmaxx) =  3

     Subspace diagonalization in iterative solution of the eigenvalue problem:
     a serial algorithm will be used

 
     Parallelization info
     --------------------
     sticks:   dense  smooth     PW     G-vecs:    dense   smooth      PW
     Min          99      99     30                 2133     2133     366
     Max         100     100     31                 2138     2138     371
     Sum         793     793    241                17071    17071    2945
 


     bravais-lattice index     =            8
     lattice parameter (alat)  =       6.0000  a.u.
     unit-cell volume          =     216.0000 (a.u.)^3
     number of atoms/cell      =            2
     number of atomic types    =            2
     number of electrons       =        16.00
     number of Kohn-Sham states=            8
     kinetic-energy cutoff     =      70.0000  Ry
     charge density cutoff     =     280.0000  Ry
     convergence threshold     =      1.0E-08
     mixing beta               =       0.7000
     number of iterations used =            8  plain     mixing
     Exchange-correlation      = PBE ( 1  4  3  4 0 0)

     celldm(1)=   6.000000  celldm(2)=   1.000000  celldm(3)=   1.000000
     celldm(4)=   0.000000  celldm(5)=   0.000000  celldm(6)=   0.000000

     crystal axes: (cart. coord. in units of alat)
               a(1) = (   1.000000   0.000000   0.000000 )  
               a(2) = (   0.000000   1.000000   0.000000 )  
               a(3) = (   0.000000   0.000000   1.000000 )  

     reciprocal axes: (cart. coord. in units 2 pi/alat)
               b(1) = (  1.000000  0.000000  0.000000 )  
               b(2) = (  0.000000  1.000000  0.000000 )  
               b(3) = (  0.000000  0.000000  1.000000 )  


     PseudoPot. # 1 for Mg read from file:
     ../pseudo/Mg.pbe.UPF
     MD5 check sum: 4c04d8c6e0476e83eaecaf72fa8acc4d
     Pseudo is Norm-conserving, Zval = 10.0
     Generated using ONCVPSP code by D. R. Hamann
     Using radial grid of 1510 points,  4 beta functions with: 
                l(1) =   0
                l(2) =   0
                l(3) =   1
                l(4) =   1

     PseudoPot. # 2 for O  read from file:
     ../pseudo/O.pbe.UPF
     MD5 check sum: 3e3f909f7470e8921608ab6b1f57bbae
     Pseudo is Norm-conserving + core correction, Zval =  6.0
     Generated using ONCVPSP code by D. R. Hamann
     Using radial grid of  936 points,  5 beta functions with: 
                l(1) =   0
                l(2) =   0
                l(3) =   1
                l(4) =   1
                l(5) =   2

     atomic species   valence    mass     pseudopotential
        Mg            10.00    24.30500     Mg( 1.00)
        O              6.00    15.99940     O ( 1.00)

     48 Sym. Ops., with inversion, found



   Cartesian axes

     site n.     atom                  positions (alat units)
         1           Mg  tau(   1) = (   0.0000000   0.0000000   0.0000000  )
         2           O   tau(   2) = (   0.5000000   0.5000000   0.5000000  )

     number of k points=    10
                       cart. coord. in units 2pi/alat
        k(    1) = (   0.0000000   0.0000000   0.0000000), wk =   0.0312500
        k(    2) = (   0.0000000   0.0000000   0.2500000), wk =   0.1875000
        k(    3) = (   0.0000000   0.0000000  -0.5000000), wk =   0.0937500
        k(    4) = (   0.0000000   0.2500000   0.2500000), wk =   0.3750000
        k(    5) = (   0.0000000   0.2500000  -0.5000000), wk =   0.3750000
        k(    6) = (   0.0000000  -0.5000000  -0.5000000), wk =   0.0937500
        k(    7) = (   0.2500000   0.2500000   0.2500000), wk =   0.2500000
        k(    8) = (   0.2500000   0.2500000  -0.5000000), wk =   0.3750000
        k(    9) = (   0.2500000  -0.5000000  -0.5000000), wk =   0.1875000
        k(   10) = (  -0.5000000  -0.5000000  -0.5000000), wk =   0.0312500

     Dense  grid:    17071 G-vectors     FFT dimensions: (  32,  32,  32)

     Estimated max dynamical RAM per process >       1.78MB

     Estimated total allocated dynamical RAM >      14.22MB

     Check: negative/imaginary core charge=   -0.000006    0.000000

     Initial potential from superposition of free atoms

     starting charge   15.99920, renormalised to   16.00000
     Starting wfc are    9 randomized atomic wfcs

     total cpu time spent up to now is        0.2 secs

     per-process dynamical memory:    36.5 Mb

     Self-consistent Calculation

     iteration #  1     ecut=    70.00 Ry     beta=0.70
     Davidson diagonalization with overlap
     ethr =  1.00E-02,  avg # of iterations =  2.0

     total cpu time spent up to now is        0.2 secs

     total energy              =    -151.51823124 Ry
     Harris-Foulkes estimate   =    -152.03073867 Ry
     estimated scf accuracy    <       0.67718661 Ry

     iteration #  2     ecut=    70.00 Ry     beta=0.70
     Davidson diagonalization with overlap
     ethr =  4.23E-03,  avg # of iterations =  3.0

     total cpu time spent up to now is        0.3 secs

     total energy              =    -151.55525379 Ry
     Harris-Foulkes estimate   =    -152.28174712 Ry
     estimated scf accuracy    <       1.88995047 Ry

     iteration #  3     ecut=    70.00 Ry     beta=0.70
     Davidson diagonalization with overlap
     ethr =  4.23E-03,  avg # of iterations =  2.9

     total cpu time spent up to now is        0.3 secs

     total energy              =    -151.86591841 Ry
     Harris-Foulkes estimate   =    -151.86765379 Ry
     estimated scf accuracy    <       0.00495449 Ry

     iteration #  4     ecut=    70.00 Ry     beta=0.70
     Davidson diagonalization with overlap
     ethr =  3.10E-05,  avg # of iterations =  2.7

     total cpu time spent up to now is        0.3 secs

     total energy              =    -151.86649193 Ry
     Harris-Foulkes estimate   =    -151.86687062 Ry
     estimated scf accuracy    <       0.00083190 Ry

     iteration #  5     ecut=    70.00 Ry     beta=0.70
     Davidson diagonalization with overlap
     ethr =  5.20E-06,  avg # of iterations =  1.9

     total cpu time spent up to now is        0.4 secs

     total energy              =    -151.86655079 Ry
     Harris-Foulkes estimate   =    -151.86655076 Ry
     estimated scf accuracy    <       0.00000457 Ry

     iteration #  6     ecut=    70.00 Ry     beta=0.70
     Davidson diagonalization with overlap
     ethr =  2.86E-08,  avg # of iterations =  3.1

     total cpu time spent up to now is        0.4 secs

     total energy              =    -151.86655275 Ry
     Harris-Foulkes estimate   =    -151.86655416 Ry
     estimated scf accuracy    <       0.00000301 Ry

     iteration #  7     ecut=    70.00 Ry     beta=0.70
     Davidson diagonalization with overlap
     ethr =  1.88E-08,  avg # of iterations =  2.0

     total cpu time spent up to now is        0.5 secs

     total energy              =    -151.86655306 Ry
     Harris-Foulkes estimate   =    -151.86655308 Ry
     estimated scf accuracy    <       0.00000007 Ry

     iteration #  8     ecut=    70.00 Ry     beta=0.70
     Davidson diagonalization with overlap
     ethr =  4.11E-10,  avg # of iterations =  2.8

     total cpu time spent up to now is        0.5 secs

     End of self-consistent calculation

          k = 0.0000 0.0000 0.0000 (  2103 PWs)   bands (ev):

   -72.1676 -38.8627 -38.8627 -38.8627 -11.9561   3.1737   3.3945   3.3945

          k = 0.0000 0.0000 0.2500 (  2120 PWs)   bands (ev):

   -72.1671 -38.8712 -38.8622 -38.8622 -11.7887   1.1232   3.5266   3.5266

          k = 0.0000 0.0000-0.5000 (  2104 PWs)   bands (ev):

   -72.1667 -38.8789 -38.8609 -38.8609 -11.6098   0.1011   3.6655   3.6655

          k = 0.0000 0.2500 0.2500 (  2125 PWs)   bands (ev):

   -72.1667 -38.8706 -38.8704 -38.8616 -11.6415   1.2171   2.3107   3.6522

          k = 0.0000 0.2500-0.5000 (  2142 PWs)   bands (ev):

   -72.1662 -38.8791 -38.8707 -38.8617 -11.4856   0.6637   2.3591   3.7832

          k = 0.0000-0.5000-0.5000 (  2160 PWs)   bands (ev):

   -72.1658 -38.8791 -38.8791 -38.8618 -11.3550   1.4300   1.4300   3.9061

          k = 0.2500 0.2500 0.2500 (  2157 PWs)   bands (ev):

   -72.1662 -38.8716 -38.8706 -38.8706 -11.5086   1.4460   2.5850   2.5850

          k = 0.2500 0.2500-0.5000 (  2134 PWs)   bands (ev):

   -72.1658 -38.8773 -38.8695 -38.8691 -11.3686   1.1546   2.4349   2.8969

          k = 0.2500-0.5000-0.5000 (  2136 PWs)   bands (ev):

   -72.1653 -38.8769 -38.8769 -38.8679 -11.2460   1.7881   1.7881   2.9874

          k =-0.5000-0.5000-0.5000 (  2176 PWs)   bands (ev):

   -72.1649 -38.8772 -38.8772 -38.8772 -11.1323   2.2185   2.2185   2.2185

     highest occupied level (ev):     3.9061

!    total energy              =    -151.86655306 Ry
     Harris-Foulkes estimate   =    -151.86655307 Ry
     estimated scf accuracy    <          7.6E-09 Ry

     The total energy is the sum of the following terms:

     one-electron contribution =     -96.28139981 Ry
     hartree contribution      =      48.73868175 Ry
     xc contribution           =     -23.97303940 Ry
     ewald contribution        =     -80.35079560 Ry

     convergence has been achieved in   8 iterations

     Forces acting on atoms (cartesian axes, Ry/au):

     atom    1 type  1   force =     0.00000000    0.00000000    0.00000000
     atom    2 type  2   force =     0.00000000    0.00000000    0.00000000

     Total force =     0.000000     Total SCF correction =     0.000000


     Computing stress (Cartesian axis) and pressure

          total   stress  (Ry/bohr**3)                   (kbar)     P= -283.67
  -0.00192832   0.00000000   0.00000000       -283.67      0.00      0.00
   0.00000000  -0.00192832   0.00000000          0.00   -283.67      0.00
   0.00000000   0.00000000  -0.00192832          0.00      0.00   -283.67


     Writing output data file diamond.6.70.4.save
 
     init_run     :      0.04s CPU      0.05s WALL (       1 calls)
     electrons    :      0.31s CPU      0.33s WALL (       1 calls)
     forces       :      0.01s CPU      0.01s WALL (       1 calls)
     stress       :      0.02s CPU      0.03s WALL (       1 calls)

     Called by init_run:
     wfcinit      :      0.01s CPU      0.02s WALL (       1 calls)
     potinit      :      0.01s CPU      0.01s WALL (       1 calls)

     Called by electrons:
     c_bands      :      0.26s CPU      0.27s WALL (       8 calls)
     sum_band     :      0.03s CPU      0.04s WALL (       8 calls)
     v_of_rho     :      0.02s CPU      0.02s WALL (       9 calls)
     mix_rho      :      0.00s CPU      0.00s WALL (       8 calls)

     Called by c_bands:
     init_us_2    :      0.01s CPU      0.01s WALL (     190 calls)
     cegterg      :      0.23s CPU      0.24s WALL (      80 calls)

     Called by sum_band:

     Called by *egterg:
     h_psi        :      0.16s CPU      0.18s WALL (     294 calls)
     g_psi        :      0.00s CPU      0.00s WALL (     204 calls)
     cdiaghg      :      0.04s CPU      0.03s WALL (     284 calls)

     Called by h_psi:
     h_psi:pot    :      0.16s CPU      0.18s WALL (     294 calls)
     h_psi:calbec :      0.01s CPU      0.01s WALL (     294 calls)
     vloc_psi     :      0.14s CPU      0.15s WALL (     294 calls)
     add_vuspsi   :      0.01s CPU      0.01s WALL (     294 calls)

     General routines
     calbec       :      0.01s CPU      0.02s WALL (     344 calls)
     fft          :      0.01s CPU      0.01s WALL (     123 calls)
     fftw         :      0.15s CPU      0.16s WALL (    4054 calls)
     davcio       :      0.00s CPU      0.00s WALL (      10 calls)
 
     Parallel routines
     fft_scatter  :      0.07s CPU      0.07s WALL (    4177 calls)
 
     PWSCF        :     0.57s CPU         0.61s WALL

 
   This run was terminated on:  16:52:52  19Apr2018            

=------------------------------------------------------------------------------=
   JOB DONE.
=------------------------------------------------------------------------------=
