
     Program PWSCF v.6.1 (svn rev. 13369) starts on 19Apr2018 at 15:29: 8 

     This program is part of the open-source Quantum ESPRESSO suite
     for quantum simulation of materials; please cite
         "P. Giannozzi et al., J. Phys.:Condens. Matter 21 395502 (2009);
          URL http://www.quantum-espresso.org", 
     in publications or presentations arising from this work. More details at
     http://www.quantum-espresso.org/quote

     Parallel version (MPI), running on     8 processors
     R & G space division:  proc/nbgrp/npool/nimage =       8
     Waiting for input...
     Reading input from standard input

     Current dimensions of program PWSCF are:
     Max number of different atomic species (ntypx) = 10
     Max number of k-points (npk) =  40000
     Max angular momentum in pseudopotentials (lmaxx) =  3

     Subspace diagonalization in iterative solution of the eigenvalue problem:
     a serial algorithm will be used

 
     Parallelization info
     --------------------
     sticks:   dense  smooth     PW     G-vecs:    dense   smooth      PW
     Min         177     177     52                 5012     5012     792
     Max         179     179     53                 5013     5013     795
     Sum        1425    1425    421                40099    40099    6355
 


     bravais-lattice index     =            8
     lattice parameter (alat)  =       7.9730  a.u.
     unit-cell volume          =     506.8335 (a.u.)^3
     number of atoms/cell      =            2
     number of atomic types    =            2
     number of electrons       =        16.00
     number of Kohn-Sham states=            8
     kinetic-energy cutoff     =      70.0000  Ry
     charge density cutoff     =     280.0000  Ry
     convergence threshold     =      1.0E-08
     mixing beta               =       0.7000
     number of iterations used =            8  plain     mixing
     Exchange-correlation      = PBE ( 1  4  3  4 0 0)

     celldm(1)=   7.973000  celldm(2)=   1.000000  celldm(3)=   1.000000
     celldm(4)=   0.000000  celldm(5)=   0.000000  celldm(6)=   0.000000

     crystal axes: (cart. coord. in units of alat)
               a(1) = (   1.000000   0.000000   0.000000 )  
               a(2) = (   0.000000   1.000000   0.000000 )  
               a(3) = (   0.000000   0.000000   1.000000 )  

     reciprocal axes: (cart. coord. in units 2 pi/alat)
               b(1) = (  1.000000  0.000000  0.000000 )  
               b(2) = (  0.000000  1.000000  0.000000 )  
               b(3) = (  0.000000  0.000000  1.000000 )  


     PseudoPot. # 1 for Mg read from file:
     ../pseudo/Mg.pbe.UPF
     MD5 check sum: 4c04d8c6e0476e83eaecaf72fa8acc4d
     Pseudo is Norm-conserving, Zval = 10.0
     Generated using ONCVPSP code by D. R. Hamann
     Using radial grid of 1510 points,  4 beta functions with: 
                l(1) =   0
                l(2) =   0
                l(3) =   1
                l(4) =   1

     PseudoPot. # 2 for O  read from file:
     ../pseudo/O.pbe.UPF
     MD5 check sum: 3e3f909f7470e8921608ab6b1f57bbae
     Pseudo is Norm-conserving + core correction, Zval =  6.0
     Generated using ONCVPSP code by D. R. Hamann
     Using radial grid of  936 points,  5 beta functions with: 
                l(1) =   0
                l(2) =   0
                l(3) =   1
                l(4) =   1
                l(5) =   2

     atomic species   valence    mass     pseudopotential
        Mg            10.00    24.30500     Mg( 1.00)
        O              6.00    15.99940     O ( 1.00)

     48 Sym. Ops., with inversion, found



   Cartesian axes

     site n.     atom                  positions (alat units)
         1           Mg  tau(   1) = (   0.0000000   0.0000000   0.0000000  )
         2           O   tau(   2) = (   0.5000000   0.5000000   0.5000000  )

     number of k points=    10
                       cart. coord. in units 2pi/alat
        k(    1) = (   0.0000000   0.0000000   0.0000000), wk =   0.0312500
        k(    2) = (   0.0000000   0.0000000   0.2500000), wk =   0.1875000
        k(    3) = (   0.0000000   0.0000000  -0.5000000), wk =   0.0937500
        k(    4) = (   0.0000000   0.2500000   0.2500000), wk =   0.3750000
        k(    5) = (   0.0000000   0.2500000  -0.5000000), wk =   0.3750000
        k(    6) = (   0.0000000  -0.5000000  -0.5000000), wk =   0.0937500
        k(    7) = (   0.2500000   0.2500000   0.2500000), wk =   0.2500000
        k(    8) = (   0.2500000   0.2500000  -0.5000000), wk =   0.3750000
        k(    9) = (   0.2500000  -0.5000000  -0.5000000), wk =   0.1875000
        k(   10) = (  -0.5000000  -0.5000000  -0.5000000), wk =   0.0312500

     Dense  grid:    40099 G-vectors     FFT dimensions: (  45,  45,  45)

     Estimated max dynamical RAM per process >       4.30MB

     Estimated total allocated dynamical RAM >      34.39MB

     Check: negative/imaginary core charge=   -0.000003    0.000000

     Initial potential from superposition of free atoms

     starting charge   15.99920, renormalised to   16.00000
     Starting wfc are    9 randomized atomic wfcs

     total cpu time spent up to now is        0.2 secs

     per-process dynamical memory:    41.2 Mb

     Self-consistent Calculation

     iteration #  1     ecut=    70.00 Ry     beta=0.70
     Davidson diagonalization with overlap
     ethr =  1.00E-02,  avg # of iterations =  2.0

     total cpu time spent up to now is        0.3 secs

     total energy              =    -150.46636421 Ry
     Harris-Foulkes estimate   =    -151.88733361 Ry
     estimated scf accuracy    <       1.79383380 Ry

     iteration #  2     ecut=    70.00 Ry     beta=0.70
     Davidson diagonalization with overlap
     ethr =  1.00E-02,  avg # of iterations =  5.4

     total cpu time spent up to now is        0.5 secs

     total energy              =    -150.12384876 Ry
     Harris-Foulkes estimate   =    -154.46736837 Ry
     estimated scf accuracy    <      15.35194190 Ry

     iteration #  3     ecut=    70.00 Ry     beta=0.70
     Davidson diagonalization with overlap
     ethr =  1.00E-02,  avg # of iterations =  4.0

     total cpu time spent up to now is        0.6 secs

     total energy              =    -151.50183727 Ry
     Harris-Foulkes estimate   =    -151.34471698 Ry
     estimated scf accuracy    <       0.58448224 Ry

     iteration #  4     ecut=    70.00 Ry     beta=0.70
     Davidson diagonalization with overlap
     ethr =  3.65E-03,  avg # of iterations =  1.9

     total cpu time spent up to now is        0.7 secs

     total energy              =    -151.06874023 Ry
     Harris-Foulkes estimate   =    -151.53420610 Ry
     estimated scf accuracy    <       1.43603555 Ry

     iteration #  5     ecut=    70.00 Ry     beta=0.70
     Davidson diagonalization with overlap
     ethr =  3.65E-03,  avg # of iterations =  2.6

     total cpu time spent up to now is        0.8 secs

     total energy              =    -151.24785917 Ry
     Harris-Foulkes estimate   =    -151.25259406 Ry
     estimated scf accuracy    <       0.04886452 Ry

     iteration #  6     ecut=    70.00 Ry     beta=0.70
     Davidson diagonalization with overlap
     ethr =  3.05E-04,  avg # of iterations =  1.0

     total cpu time spent up to now is        0.9 secs

     total energy              =    -151.24388857 Ry
     Harris-Foulkes estimate   =    -151.24824637 Ry
     estimated scf accuracy    <       0.03820983 Ry

     iteration #  7     ecut=    70.00 Ry     beta=0.70
     Davidson diagonalization with overlap
     ethr =  2.39E-04,  avg # of iterations =  1.1

     total cpu time spent up to now is        0.9 secs

     total energy              =    -151.24243637 Ry
     Harris-Foulkes estimate   =    -151.24433134 Ry
     estimated scf accuracy    <       0.02484882 Ry

     iteration #  8     ecut=    70.00 Ry     beta=0.70
     Davidson diagonalization with overlap
     ethr =  1.55E-04,  avg # of iterations =  1.0

     total cpu time spent up to now is        1.0 secs

     total energy              =    -151.23963071 Ry
     Harris-Foulkes estimate   =    -151.24253471 Ry
     estimated scf accuracy    <       0.02035892 Ry

     iteration #  9     ecut=    70.00 Ry     beta=0.70
     Davidson diagonalization with overlap
     ethr =  1.27E-04,  avg # of iterations =  1.1

     total cpu time spent up to now is        1.1 secs

     total energy              =    -151.24067568 Ry
     Harris-Foulkes estimate   =    -151.23986634 Ry
     estimated scf accuracy    <       0.01264662 Ry

     iteration # 10     ecut=    70.00 Ry     beta=0.70
     Davidson diagonalization with overlap
     ethr =  7.90E-05,  avg # of iterations =  1.0

     total cpu time spent up to now is        1.2 secs

     total energy              =    -151.23359020 Ry
     Harris-Foulkes estimate   =    -151.24069906 Ry
     estimated scf accuracy    <       0.01422871 Ry

     iteration # 11     ecut=    70.00 Ry     beta=0.70
     Davidson diagonalization with overlap
     ethr =  7.90E-05,  avg # of iterations =  2.1

     total cpu time spent up to now is        1.3 secs

     total energy              =    -151.23489087 Ry
     Harris-Foulkes estimate   =    -151.23517776 Ry
     estimated scf accuracy    <       0.00084665 Ry

     iteration # 12     ecut=    70.00 Ry     beta=0.70
     Davidson diagonalization with overlap
     ethr =  5.29E-06,  avg # of iterations =  2.5

     total cpu time spent up to now is        1.4 secs

     total energy              =    -151.27002771 Ry
     Harris-Foulkes estimate   =    -151.27003885 Ry
     estimated scf accuracy    <       0.00088626 Ry

     iteration # 13     ecut=    70.00 Ry     beta=0.70
     Davidson diagonalization with overlap
     ethr =  5.29E-06,  avg # of iterations =  1.7

     total cpu time spent up to now is        1.5 secs

     total energy              =    -151.28476762 Ry
     Harris-Foulkes estimate   =    -151.28517662 Ry
     estimated scf accuracy    <       0.00289441 Ry

     iteration # 14     ecut=    70.00 Ry     beta=0.70
     Davidson diagonalization with overlap
     ethr =  5.29E-06,  avg # of iterations =  1.0

     total cpu time spent up to now is        1.6 secs

     total energy              =    -151.28455791 Ry
     Harris-Foulkes estimate   =    -151.28478343 Ry
     estimated scf accuracy    <       0.00197921 Ry

     iteration # 15     ecut=    70.00 Ry     beta=0.70
     Davidson diagonalization with overlap
     ethr =  5.29E-06,  avg # of iterations =  1.1

     total cpu time spent up to now is        1.6 secs

     total energy              =    -151.28444192 Ry
     Harris-Foulkes estimate   =    -151.28457074 Ry
     estimated scf accuracy    <       0.00141349 Ry

     iteration # 16     ecut=    70.00 Ry     beta=0.70
     Davidson diagonalization with overlap
     ethr =  5.29E-06,  avg # of iterations =  1.0

     total cpu time spent up to now is        1.7 secs

     total energy              =    -151.28516515 Ry
     Harris-Foulkes estimate   =    -151.28444727 Ry
     estimated scf accuracy    <       0.00114933 Ry

     iteration # 17     ecut=    70.00 Ry     beta=0.70
     Davidson diagonalization with overlap
     ethr =  5.29E-06,  avg # of iterations =  3.3

     total cpu time spent up to now is        1.8 secs

     total energy              =    -151.44905267 Ry
     Harris-Foulkes estimate   =    -151.45215529 Ry
     estimated scf accuracy    <       0.17710763 Ry

     iteration # 18     ecut=    70.00 Ry     beta=0.70
     Davidson diagonalization with overlap
     ethr =  5.29E-06,  avg # of iterations =  1.4

     total cpu time spent up to now is        1.9 secs

     total energy              =    -151.44076306 Ry
     Harris-Foulkes estimate   =    -151.44907758 Ry
     estimated scf accuracy    <       0.16843109 Ry

     iteration # 19     ecut=    70.00 Ry     beta=0.70
     Davidson diagonalization with overlap
     ethr =  5.29E-06,  avg # of iterations =  2.8

     total cpu time spent up to now is        2.0 secs

     total energy              =    -151.47282518 Ry
     Harris-Foulkes estimate   =    -151.48030145 Ry
     estimated scf accuracy    <       0.25282735 Ry

     iteration # 20     ecut=    70.00 Ry     beta=0.70
     Davidson diagonalization with overlap
     ethr =  5.29E-06,  avg # of iterations =  3.6

     total cpu time spent up to now is        2.1 secs

     total energy              =    -151.66221943 Ry
     Harris-Foulkes estimate   =    -151.65110224 Ry
     estimated scf accuracy    <       0.74459865 Ry

     iteration # 21     ecut=    70.00 Ry     beta=0.70
     Davidson diagonalization with overlap
     ethr =  5.29E-06,  avg # of iterations =  2.8

     total cpu time spent up to now is        2.2 secs

     total energy              =    -151.76051382 Ry
     Harris-Foulkes estimate   =    -151.78735064 Ry
     estimated scf accuracy    <       1.29084310 Ry

     iteration # 22     ecut=    70.00 Ry     beta=0.70
     Davidson diagonalization with overlap
     ethr =  5.29E-06,  avg # of iterations =  2.6

     total cpu time spent up to now is        2.3 secs

     total energy              =    -151.76393651 Ry
     Harris-Foulkes estimate   =    -151.76077964 Ry
     estimated scf accuracy    <       1.20343400 Ry

     iteration # 23     ecut=    70.00 Ry     beta=0.70
     Davidson diagonalization with overlap
     ethr =  5.29E-06,  avg # of iterations =  1.6

     total cpu time spent up to now is        2.4 secs

     total energy              =    -151.79267902 Ry
     Harris-Foulkes estimate   =    -151.79349006 Ry
     estimated scf accuracy    <       1.36886916 Ry

     iteration # 24     ecut=    70.00 Ry     beta=0.70
     Davidson diagonalization with overlap
     ethr =  5.29E-06,  avg # of iterations =  1.0

     total cpu time spent up to now is        2.5 secs

     total energy              =    -151.78952914 Ry
     Harris-Foulkes estimate   =    -151.79267950 Ry
     estimated scf accuracy    <       1.36854341 Ry

     iteration # 25     ecut=    70.00 Ry     beta=0.70
     Davidson diagonalization with overlap
     ethr =  5.29E-06,  avg # of iterations =  1.0

     total cpu time spent up to now is        2.6 secs

     total energy              =    -151.85659732 Ry
     Harris-Foulkes estimate   =    -151.78953260 Ry
     estimated scf accuracy    <       1.35875939 Ry

     iteration # 26     ecut=    70.00 Ry     beta=0.70
     Davidson diagonalization with overlap
     ethr =  5.29E-06,  avg # of iterations =  2.9

     total cpu time spent up to now is        2.7 secs

     total energy              =    -151.80106626 Ry
     Harris-Foulkes estimate   =    -151.85819435 Ry
     estimated scf accuracy    <       1.58146008 Ry

     iteration # 27     ecut=    70.00 Ry     beta=0.70
     Davidson diagonalization with overlap
     ethr =  5.29E-06,  avg # of iterations =  2.8

     total cpu time spent up to now is        2.8 secs

     total energy              =    -152.40499271 Ry
     Harris-Foulkes estimate   =    -151.80187818 Ry
     estimated scf accuracy    <       1.41208490 Ry

     iteration # 28     ecut=    70.00 Ry     beta=0.70
     Davidson diagonalization with overlap
     ethr =  5.29E-06,  avg # of iterations =  4.0

     total cpu time spent up to now is        2.9 secs

     total energy              =    -151.48708381 Ry
     Harris-Foulkes estimate   =    -152.46341961 Ry
     estimated scf accuracy    <       2.97226420 Ry

     iteration # 29     ecut=    70.00 Ry     beta=0.70
     Davidson diagonalization with overlap
     ethr =  5.29E-06,  avg # of iterations =  4.7

     total cpu time spent up to now is        3.1 secs

     total energy              =    -151.57980187 Ry
     Harris-Foulkes estimate   =    -151.60142314 Ry
     estimated scf accuracy    <       0.55265071 Ry

     iteration # 30     ecut=    70.00 Ry     beta=0.70
     Davidson diagonalization with overlap
     ethr =  5.29E-06,  avg # of iterations =  3.4

     total cpu time spent up to now is        3.3 secs

     total energy              =    -151.69570292 Ry
     Harris-Foulkes estimate   =    -151.58080991 Ry
     estimated scf accuracy    <       0.42463560 Ry

     iteration # 31     ecut=    70.00 Ry     beta=0.70
     Davidson diagonalization with overlap
     ethr =  5.29E-06,  avg # of iterations =  3.9

     total cpu time spent up to now is        3.4 secs

     total energy              =    -151.51510613 Ry
     Harris-Foulkes estimate   =    -151.72302041 Ry
     estimated scf accuracy    <       1.14107269 Ry

     iteration # 32     ecut=    70.00 Ry     beta=0.70
     Davidson diagonalization with overlap
     ethr =  5.29E-06,  avg # of iterations =  4.4

     total cpu time spent up to now is        3.5 secs

     total energy              =    -151.89614949 Ry
     Harris-Foulkes estimate   =    -151.55299413 Ry
     estimated scf accuracy    <       0.23247982 Ry

     iteration # 33     ecut=    70.00 Ry     beta=0.70
     Davidson diagonalization with overlap
     ethr =  5.29E-06,  avg # of iterations =  4.6

     total cpu time spent up to now is        3.7 secs

     total energy              =    -152.15410665 Ry
     Harris-Foulkes estimate   =    -152.14750003 Ry
     estimated scf accuracy    <       2.46275429 Ry

     iteration # 34     ecut=    70.00 Ry     beta=0.70
     Davidson diagonalization with overlap
     ethr =  5.29E-06,  avg # of iterations =  1.0

     total cpu time spent up to now is        3.8 secs

     total energy              =    -152.16169724 Ry
     Harris-Foulkes estimate   =    -152.15411803 Ry
     estimated scf accuracy    <       2.48201264 Ry

     iteration # 35     ecut=    70.00 Ry     beta=0.70
     Davidson diagonalization with overlap
     ethr =  5.29E-06,  avg # of iterations =  1.0

     total cpu time spent up to now is        3.8 secs

     total energy              =    -151.48548956 Ry
     Harris-Foulkes estimate   =    -152.16170528 Ry
     estimated scf accuracy    <       2.49993213 Ry

     iteration # 36     ecut=    70.00 Ry     beta=0.70
     Davidson diagonalization with overlap
     ethr =  5.29E-06,  avg # of iterations =  5.1

     total cpu time spent up to now is        4.0 secs

     total energy              =    -151.36993322 Ry
     Harris-Foulkes estimate   =    -151.58520143 Ry
     estimated scf accuracy    <       0.46420795 Ry

     iteration # 37     ecut=    70.00 Ry     beta=0.70
     Davidson diagonalization with overlap
     ethr =  5.29E-06,  avg # of iterations =  5.3

     total cpu time spent up to now is        4.1 secs

     total energy              =    -151.62211180 Ry
     Harris-Foulkes estimate   =    -151.63925125 Ry
     estimated scf accuracy    <       0.89198481 Ry

     iteration # 38     ecut=    70.00 Ry     beta=0.70
     Davidson diagonalization with overlap
     ethr =  5.29E-06,  avg # of iterations =  3.6

     total cpu time spent up to now is        4.3 secs

     total energy              =    -151.61352128 Ry
     Harris-Foulkes estimate   =    -151.62263342 Ry
     estimated scf accuracy    <       0.76512679 Ry

     iteration # 39     ecut=    70.00 Ry     beta=0.70
     Davidson diagonalization with overlap
     ethr =  5.29E-06,  avg # of iterations =  3.1

     total cpu time spent up to now is        4.4 secs

     total energy              =    -151.53381471 Ry
     Harris-Foulkes estimate   =    -151.61369341 Ry
     estimated scf accuracy    <       0.69710848 Ry

     iteration # 40     ecut=    70.00 Ry     beta=0.70
     Davidson diagonalization with overlap
     ethr =  5.29E-06,  avg # of iterations =  4.6

     total cpu time spent up to now is        4.5 secs

     total energy              =    -151.50178610 Ry
     Harris-Foulkes estimate   =    -151.54923259 Ry
     estimated scf accuracy    <       0.20859475 Ry

     iteration # 41     ecut=    70.00 Ry     beta=0.70
     Davidson diagonalization with overlap
     ethr =  5.29E-06,  avg # of iterations =  4.6

     total cpu time spent up to now is        4.7 secs

     total energy              =    -151.52178345 Ry
     Harris-Foulkes estimate   =    -151.52213557 Ry
     estimated scf accuracy    <       0.00129672 Ry

     iteration # 42     ecut=    70.00 Ry     beta=0.70
     Davidson diagonalization with overlap
     ethr =  5.29E-06,  avg # of iterations =  3.5

     total cpu time spent up to now is        4.8 secs

     total energy              =    -151.52797648 Ry
     Harris-Foulkes estimate   =    -151.52536565 Ry
     estimated scf accuracy    <       0.03057487 Ry

     iteration # 43     ecut=    70.00 Ry     beta=0.70
     Davidson diagonalization with overlap
     ethr =  5.29E-06,  avg # of iterations =  3.0

     total cpu time spent up to now is        4.9 secs

     total energy              =    -151.51463777 Ry
     Harris-Foulkes estimate   =    -151.52836022 Ry
     estimated scf accuracy    <       0.05482059 Ry

     iteration # 44     ecut=    70.00 Ry     beta=0.70
     Davidson diagonalization with overlap
     ethr =  5.29E-06,  avg # of iterations =  4.0

     total cpu time spent up to now is        5.0 secs

     total energy              =    -151.52203955 Ry
     Harris-Foulkes estimate   =    -151.52186226 Ry
     estimated scf accuracy    <       0.00098132 Ry

     iteration # 45     ecut=    70.00 Ry     beta=0.70
     Davidson diagonalization with overlap
     ethr =  5.29E-06,  avg # of iterations =  1.9

     total cpu time spent up to now is        5.1 secs

     total energy              =    -151.52176126 Ry
     Harris-Foulkes estimate   =    -151.52210495 Ry
     estimated scf accuracy    <       0.00148593 Ry

     iteration # 46     ecut=    70.00 Ry     beta=0.70
     Davidson diagonalization with overlap
     ethr =  5.29E-06,  avg # of iterations =  2.8

     total cpu time spent up to now is        5.2 secs

     total energy              =    -151.52186109 Ry
     Harris-Foulkes estimate   =    -151.52184959 Ry
     estimated scf accuracy    <       0.00016264 Ry

     iteration # 47     ecut=    70.00 Ry     beta=0.70
     Davidson diagonalization with overlap
     ethr =  1.02E-06,  avg # of iterations =  1.1

     total cpu time spent up to now is        5.3 secs

     total energy              =    -151.52178688 Ry
     Harris-Foulkes estimate   =    -151.52186357 Ry
     estimated scf accuracy    <       0.00017940 Ry

     iteration # 48     ecut=    70.00 Ry     beta=0.70
     Davidson diagonalization with overlap
     ethr =  1.02E-06,  avg # of iterations =  2.0

     total cpu time spent up to now is        5.4 secs

     total energy              =    -151.52180062 Ry
     Harris-Foulkes estimate   =    -151.52180182 Ry
     estimated scf accuracy    <       0.00000443 Ry

     iteration # 49     ecut=    70.00 Ry     beta=0.70
     Davidson diagonalization with overlap
     ethr =  2.77E-08,  avg # of iterations =  2.3

     total cpu time spent up to now is        5.5 secs

     total energy              =    -151.52179966 Ry
     Harris-Foulkes estimate   =    -151.52180105 Ry
     estimated scf accuracy    <       0.00000308 Ry

     iteration # 50     ecut=    70.00 Ry     beta=0.70
     Davidson diagonalization with overlap
     ethr =  1.93E-08,  avg # of iterations =  3.2

     total cpu time spent up to now is        5.6 secs

     total energy              =    -151.52180004 Ry
     Harris-Foulkes estimate   =    -151.52180050 Ry
     estimated scf accuracy    <       0.00000112 Ry

     iteration # 51     ecut=    70.00 Ry     beta=0.70
     Davidson diagonalization with overlap
     ethr =  7.02E-09,  avg # of iterations =  2.9

     total cpu time spent up to now is        5.7 secs

     total energy              =    -151.52180014 Ry
     Harris-Foulkes estimate   =    -151.52180017 Ry
     estimated scf accuracy    <       0.00000022 Ry

     iteration # 52     ecut=    70.00 Ry     beta=0.70
     Davidson diagonalization with overlap
     ethr =  1.35E-09,  avg # of iterations =  1.9

     total cpu time spent up to now is        5.8 secs

     total energy              =    -151.52180015 Ry
     Harris-Foulkes estimate   =    -151.52180016 Ry
     estimated scf accuracy    <       0.00000003 Ry

     iteration # 53     ecut=    70.00 Ry     beta=0.70
     Davidson diagonalization with overlap
     ethr =  2.08E-10,  avg # of iterations =  3.1

     total cpu time spent up to now is        5.9 secs

     End of self-consistent calculation

          k = 0.0000 0.0000 0.0000 (  4945 PWs)   bands (ev):

   -78.7517 -45.4489 -45.4489 -45.4489 -15.7103  -2.5107  -1.0817  -1.0817

          k = 0.0000 0.0000 0.2500 (  5021 PWs)   bands (ev):

   -78.7517 -45.4503 -45.4503 -45.4502 -15.6996  -2.5667  -1.0401  -0.7256

          k = 0.0000 0.0000-0.5000 (  5030 PWs)   bands (ev):

   -78.7517 -45.4506 -45.4506 -45.4504 -15.6888  -2.6471  -0.9972  -0.9972

          k = 0.0000 0.2500 0.2500 (  5027 PWs)   bands (ev):

   -78.7517 -45.4506 -45.4505 -45.4502 -15.6896  -2.3838  -1.3693  -1.0048

          k = 0.0000 0.2500-0.5000 (  5006 PWs)   bands (ev):

   -78.7517 -45.4502 -45.4500 -45.4499 -15.6795  -2.2754  -1.3745  -0.9687

          k = 0.0000-0.5000-0.5000 (  5056 PWs)   bands (ev):

   -78.7517 -45.4511 -45.4508 -45.4508 -15.6703  -1.6559  -1.6559  -0.9404

          k = 0.2500 0.2500 0.2500 (  5001 PWs)   bands (ev):

   -78.7517 -45.4503 -45.4498 -45.4498 -15.6802  -2.1490  -1.2778  -1.2778

          k = 0.2500 0.2500-0.5000 (  5002 PWs)   bands (ev):

   -78.7517 -45.4505 -45.4498 -45.4497 -15.6707  -1.9588  -1.3530  -1.1811

          k = 0.2500-0.5000-0.5000 (  5000 PWs)   bands (ev):

   -78.7517 -45.4503 -45.4498 -45.4498 -15.6619  -1.5167  -1.5167  -1.1621

          k =-0.5000-0.5000-0.5000 (  4896 PWs)   bands (ev):

   -78.7517 -45.4479 -45.4479 -45.4479 -15.6534  -1.3615  -1.3615  -1.3615

     highest occupied level (ev):    -0.7256

!    total energy              =    -151.52180015 Ry
     Harris-Foulkes estimate   =    -151.52180016 Ry
     estimated scf accuracy    <          7.5E-09 Ry

     The total energy is the sum of the following terms:

     one-electron contribution =    -129.41614160 Ry
     hartree contribution      =      61.97459080 Ry
     xc contribution           =     -23.61307594 Ry
     ewald contribution        =     -60.46717341 Ry

     convergence has been achieved in  53 iterations

     Forces acting on atoms (cartesian axes, Ry/au):

     atom    1 type  1   force =     0.00000000    0.00000000   -0.00000000
     atom    2 type  2   force =     0.00000000    0.00000000    0.00000000

     Total force =     0.000000     Total SCF correction =     0.000000


     Computing stress (Cartesian axis) and pressure

          total   stress  (Ry/bohr**3)                   (kbar)     P= -117.60
  -0.00079944   0.00000000   0.00000000       -117.60      0.00      0.00
   0.00000000  -0.00079944   0.00000000          0.00   -117.60      0.00
   0.00000000   0.00000000  -0.00079944          0.00      0.00   -117.60


     Writing output data file diamond.7.973.70.4.save
 
     init_run     :      0.09s CPU      0.10s WALL (       1 calls)
     electrons    :      5.56s CPU      5.66s WALL (       1 calls)
     forces       :      0.02s CPU      0.02s WALL (       1 calls)
     stress       :      0.05s CPU      0.06s WALL (       1 calls)

     Called by init_run:
     wfcinit      :      0.03s CPU      0.04s WALL (       1 calls)
     potinit      :      0.01s CPU      0.01s WALL (       1 calls)

     Called by electrons:
     c_bands      :      4.41s CPU      4.49s WALL (      53 calls)
     sum_band     :      0.79s CPU      0.81s WALL (      53 calls)
     v_of_rho     :      0.28s CPU      0.28s WALL (      54 calls)
     mix_rho      :      0.07s CPU      0.07s WALL (      53 calls)

     Called by c_bands:
     init_us_2    :      0.17s CPU      0.16s WALL (    1090 calls)
     cegterg      :      4.02s CPU      4.11s WALL (     530 calls)

     Called by sum_band:

     Called by *egterg:
     h_psi        :      3.39s CPU      3.46s WALL (    1953 calls)
     g_psi        :      0.02s CPU      0.03s WALL (    1413 calls)
     cdiaghg      :      0.24s CPU      0.25s WALL (    1943 calls)

     Called by h_psi:
     h_psi:pot    :      3.37s CPU      3.44s WALL (    1953 calls)
     h_psi:calbec :      0.14s CPU      0.12s WALL (    1953 calls)
     vloc_psi     :      3.17s CPU      3.24s WALL (    1953 calls)
     add_vuspsi   :      0.06s CPU      0.07s WALL (    1953 calls)

     General routines
     calbec       :      0.14s CPU      0.12s WALL (    2003 calls)
     fft          :      0.13s CPU      0.13s WALL (     618 calls)
     fftw         :      3.59s CPU      3.53s WALL (   26462 calls)
     davcio       :      0.00s CPU      0.00s WALL (      10 calls)
 
     Parallel routines
     fft_scatter  :      1.01s CPU      1.06s WALL (   27080 calls)
 
     PWSCF        :     5.91s CPU         6.06s WALL

 
   This run was terminated on:  15:29:14  19Apr2018            

=------------------------------------------------------------------------------=
   JOB DONE.
=------------------------------------------------------------------------------=
