
     Program PWSCF v.6.1 (svn rev. 13369) starts on 19Apr2018 at 15: 5: 4 

     This program is part of the open-source Quantum ESPRESSO suite
     for quantum simulation of materials; please cite
         "P. Giannozzi et al., J. Phys.:Condens. Matter 21 395502 (2009);
          URL http://www.quantum-espresso.org", 
     in publications or presentations arising from this work. More details at
     http://www.quantum-espresso.org/quote

     Parallel version (MPI), running on     8 processors
     R & G space division:  proc/nbgrp/npool/nimage =       8
     Waiting for input...
     Reading input from standard input

     Current dimensions of program PWSCF are:
     Max number of different atomic species (ntypx) = 10
     Max number of k-points (npk) =  40000
     Max angular momentum in pseudopotentials (lmaxx) =  3

     Subspace diagonalization in iterative solution of the eigenvalue problem:
     a serial algorithm will be used

 
     Parallelization info
     --------------------
     sticks:   dense  smooth     PW     G-vecs:    dense   smooth      PW
     Min         164     164     48                 4478     4478     716
     Max         165     165     49                 4479     4479     719
     Sum        1313    1313    385                35825    35825    5743
 


     bravais-lattice index     =            8
     lattice parameter (alat)  =       7.6800  a.u.
     unit-cell volume          =     452.9848 (a.u.)^3
     number of atoms/cell      =            2
     number of atomic types    =            2
     number of electrons       =        16.00
     number of Kohn-Sham states=            8
     kinetic-energy cutoff     =      70.0000  Ry
     charge density cutoff     =     280.0000  Ry
     convergence threshold     =      1.0E-08
     mixing beta               =       0.7000
     number of iterations used =            8  plain     mixing
     Exchange-correlation      = PBE ( 1  4  3  4 0 0)

     celldm(1)=   7.680000  celldm(2)=   1.000000  celldm(3)=   1.000000
     celldm(4)=   0.000000  celldm(5)=   0.000000  celldm(6)=   0.000000

     crystal axes: (cart. coord. in units of alat)
               a(1) = (   1.000000   0.000000   0.000000 )  
               a(2) = (   0.000000   1.000000   0.000000 )  
               a(3) = (   0.000000   0.000000   1.000000 )  

     reciprocal axes: (cart. coord. in units 2 pi/alat)
               b(1) = (  1.000000  0.000000  0.000000 )  
               b(2) = (  0.000000  1.000000  0.000000 )  
               b(3) = (  0.000000  0.000000  1.000000 )  


     PseudoPot. # 1 for Mg read from file:
     ../pseudo/Mg.pbe.UPF
     MD5 check sum: 4c04d8c6e0476e83eaecaf72fa8acc4d
     Pseudo is Norm-conserving, Zval = 10.0
     Generated using ONCVPSP code by D. R. Hamann
     Using radial grid of 1510 points,  4 beta functions with: 
                l(1) =   0
                l(2) =   0
                l(3) =   1
                l(4) =   1

     PseudoPot. # 2 for O  read from file:
     ../pseudo/O.pbe.UPF
     MD5 check sum: 3e3f909f7470e8921608ab6b1f57bbae
     Pseudo is Norm-conserving + core correction, Zval =  6.0
     Generated using ONCVPSP code by D. R. Hamann
     Using radial grid of  936 points,  5 beta functions with: 
                l(1) =   0
                l(2) =   0
                l(3) =   1
                l(4) =   1
                l(5) =   2

     atomic species   valence    mass     pseudopotential
        Mg            10.00    24.30500     Mg( 1.00)
        O              6.00    15.99940     O ( 1.00)

     48 Sym. Ops., with inversion, found



   Cartesian axes

     site n.     atom                  positions (alat units)
         1           Mg  tau(   1) = (   0.0000000   0.0000000   0.0000000  )
         2           O   tau(   2) = (   0.5000000   0.5000000   0.5000000  )

     number of k points=    10
                       cart. coord. in units 2pi/alat
        k(    1) = (   0.0000000   0.0000000   0.0000000), wk =   0.0312500
        k(    2) = (   0.0000000   0.0000000   0.2500000), wk =   0.1875000
        k(    3) = (   0.0000000   0.0000000  -0.5000000), wk =   0.0937500
        k(    4) = (   0.0000000   0.2500000   0.2500000), wk =   0.3750000
        k(    5) = (   0.0000000   0.2500000  -0.5000000), wk =   0.3750000
        k(    6) = (   0.0000000  -0.5000000  -0.5000000), wk =   0.0937500
        k(    7) = (   0.2500000   0.2500000   0.2500000), wk =   0.2500000
        k(    8) = (   0.2500000   0.2500000  -0.5000000), wk =   0.3750000
        k(    9) = (   0.2500000  -0.5000000  -0.5000000), wk =   0.1875000
        k(   10) = (  -0.5000000  -0.5000000  -0.5000000), wk =   0.0312500

     Dense  grid:    35825 G-vectors     FFT dimensions: (  45,  45,  45)

     Estimated max dynamical RAM per process >       3.93MB

     Estimated total allocated dynamical RAM >      31.48MB

     Check: negative/imaginary core charge=   -0.000004    0.000000

     Initial potential from superposition of free atoms

     starting charge   15.99920, renormalised to   16.00000
     Starting wfc are    9 randomized atomic wfcs

     total cpu time spent up to now is        0.2 secs

     per-process dynamical memory:    40.5 Mb

     Self-consistent Calculation

     iteration #  1     ecut=    70.00 Ry     beta=0.70
     Davidson diagonalization with overlap
     ethr =  1.00E-02,  avg # of iterations =  2.0

     total cpu time spent up to now is        0.3 secs

     total energy              =    -150.59224469 Ry
     Harris-Foulkes estimate   =    -151.89715716 Ry
     estimated scf accuracy    <       1.65544534 Ry

     iteration #  2     ecut=    70.00 Ry     beta=0.70
     Davidson diagonalization with overlap
     ethr =  1.00E-02,  avg # of iterations =  4.5

     total cpu time spent up to now is        0.4 secs

     total energy              =    -150.20056570 Ry
     Harris-Foulkes estimate   =    -154.04477251 Ry
     estimated scf accuracy    <      13.37788245 Ry

     iteration #  3     ecut=    70.00 Ry     beta=0.70
     Davidson diagonalization with overlap
     ethr =  1.00E-02,  avg # of iterations =  4.1

     total cpu time spent up to now is        0.6 secs

     total energy              =    -151.47426646 Ry
     Harris-Foulkes estimate   =    -151.41124518 Ry
     estimated scf accuracy    <       0.26898755 Ry

     iteration #  4     ecut=    70.00 Ry     beta=0.70
     Davidson diagonalization with overlap
     ethr =  1.68E-03,  avg # of iterations =  1.8

     total cpu time spent up to now is        0.6 secs

     total energy              =    -151.31033214 Ry
     Harris-Foulkes estimate   =    -151.48579373 Ry
     estimated scf accuracy    <       0.60323548 Ry

     iteration #  5     ecut=    70.00 Ry     beta=0.70
     Davidson diagonalization with overlap
     ethr =  1.68E-03,  avg # of iterations =  2.4

     total cpu time spent up to now is        0.7 secs

     total energy              =    -151.35403076 Ry
     Harris-Foulkes estimate   =    -151.36332889 Ry
     estimated scf accuracy    <       0.05108304 Ry

     iteration #  6     ecut=    70.00 Ry     beta=0.70
     Davidson diagonalization with overlap
     ethr =  3.19E-04,  avg # of iterations =  1.2

     total cpu time spent up to now is        0.8 secs

     total energy              =    -151.34886624 Ry
     Harris-Foulkes estimate   =    -151.35524277 Ry
     estimated scf accuracy    <       0.02408913 Ry

     iteration #  7     ecut=    70.00 Ry     beta=0.70
     Davidson diagonalization with overlap
     ethr =  1.51E-04,  avg # of iterations =  2.0

     total cpu time spent up to now is        0.9 secs

     total energy              =    -151.34982962 Ry
     Harris-Foulkes estimate   =    -151.35062925 Ry
     estimated scf accuracy    <       0.00504955 Ry

     iteration #  8     ecut=    70.00 Ry     beta=0.70
     Davidson diagonalization with overlap
     ethr =  3.16E-05,  avg # of iterations =  1.0

     total cpu time spent up to now is        1.0 secs

     total energy              =    -151.34928323 Ry
     Harris-Foulkes estimate   =    -151.34990156 Ry
     estimated scf accuracy    <       0.00309694 Ry

     iteration #  9     ecut=    70.00 Ry     beta=0.70
     Davidson diagonalization with overlap
     ethr =  1.94E-05,  avg # of iterations =  1.5

     total cpu time spent up to now is        1.1 secs

     total energy              =    -151.34969208 Ry
     Harris-Foulkes estimate   =    -151.34937861 Ry
     estimated scf accuracy    <       0.00135200 Ry

     iteration # 10     ecut=    70.00 Ry     beta=0.70
     Davidson diagonalization with overlap
     ethr =  8.45E-06,  avg # of iterations =  1.2

     total cpu time spent up to now is        1.2 secs

     total energy              =    -151.34870741 Ry
     Harris-Foulkes estimate   =    -151.34972562 Ry
     estimated scf accuracy    <       0.00223260 Ry

     iteration # 11     ecut=    70.00 Ry     beta=0.70
     Davidson diagonalization with overlap
     ethr =  8.45E-06,  avg # of iterations =  2.1

     total cpu time spent up to now is        1.3 secs

     total energy              =    -151.34893854 Ry
     Harris-Foulkes estimate   =    -151.34895075 Ry
     estimated scf accuracy    <       0.00010851 Ry

     iteration # 12     ecut=    70.00 Ry     beta=0.70
     Davidson diagonalization with overlap
     ethr =  6.78E-07,  avg # of iterations =  2.3

     total cpu time spent up to now is        1.3 secs

     total energy              =    -151.43875411 Ry
     Harris-Foulkes estimate   =    -151.43819626 Ry
     estimated scf accuracy    <       0.05295449 Ry

     iteration # 13     ecut=    70.00 Ry     beta=0.70
     Davidson diagonalization with overlap
     ethr =  6.78E-07,  avg # of iterations =  1.5

     total cpu time spent up to now is        1.4 secs

     total energy              =    -151.43547953 Ry
     Harris-Foulkes estimate   =    -151.43875780 Ry
     estimated scf accuracy    <       0.05485409 Ry

     iteration # 14     ecut=    70.00 Ry     beta=0.70
     Davidson diagonalization with overlap
     ethr =  6.78E-07,  avg # of iterations =  3.5

     total cpu time spent up to now is        1.5 secs

     total energy              =    -151.45903832 Ry
     Harris-Foulkes estimate   =    -151.45753700 Ry
     estimated scf accuracy    <       0.06844484 Ry

     iteration # 15     ecut=    70.00 Ry     beta=0.70
     Davidson diagonalization with overlap
     ethr =  6.78E-07,  avg # of iterations =  2.3

     total cpu time spent up to now is        1.6 secs

     total energy              =    -151.46357114 Ry
     Harris-Foulkes estimate   =    -151.45905456 Ry
     estimated scf accuracy    <       0.07346220 Ry

     iteration # 16     ecut=    70.00 Ry     beta=0.70
     Davidson diagonalization with overlap
     ethr =  6.78E-07,  avg # of iterations =  4.2

     total cpu time spent up to now is        1.7 secs

     total energy              =    -151.67492673 Ry
     Harris-Foulkes estimate   =    -151.67060823 Ry
     estimated scf accuracy    <       0.58454253 Ry

     iteration # 17     ecut=    70.00 Ry     beta=0.70
     Davidson diagonalization with overlap
     ethr =  6.78E-07,  avg # of iterations =  2.5

     total cpu time spent up to now is        1.8 secs

     total energy              =    -151.65570604 Ry
     Harris-Foulkes estimate   =    -151.67494636 Ry
     estimated scf accuracy    <       0.60082605 Ry

     iteration # 18     ecut=    70.00 Ry     beta=0.70
     Davidson diagonalization with overlap
     ethr =  6.78E-07,  avg # of iterations =  3.5

     total cpu time spent up to now is        2.0 secs

     total energy              =    -151.67055880 Ry
     Harris-Foulkes estimate   =    -151.65608833 Ry
     estimated scf accuracy    <       0.52912711 Ry

     iteration # 19     ecut=    70.00 Ry     beta=0.70
     Davidson diagonalization with overlap
     ethr =  6.78E-07,  avg # of iterations =  3.3

     total cpu time spent up to now is        2.1 secs

     total energy              =    -151.62147447 Ry
     Harris-Foulkes estimate   =    -151.67078980 Ry
     estimated scf accuracy    <       0.58430450 Ry

     iteration # 20     ecut=    70.00 Ry     beta=0.70
     Davidson diagonalization with overlap
     ethr =  6.78E-07,  avg # of iterations =  4.0

     total cpu time spent up to now is        2.2 secs

     total energy              =    -151.72264975 Ry
     Harris-Foulkes estimate   =    -151.62413299 Ry
     estimated scf accuracy    <       0.40159806 Ry

     iteration # 21     ecut=    70.00 Ry     beta=0.70
     Davidson diagonalization with overlap
     ethr =  6.78E-07,  avg # of iterations =  5.2

     total cpu time spent up to now is        2.3 secs

     total energy              =    -151.57497730 Ry
     Harris-Foulkes estimate   =    -151.82551231 Ry
     estimated scf accuracy    <       1.26216561 Ry

     iteration # 22     ecut=    70.00 Ry     beta=0.70
     Davidson diagonalization with overlap
     ethr =  6.78E-07,  avg # of iterations =  4.8

     total cpu time spent up to now is        2.5 secs

     total energy              =    -151.78992677 Ry
     Harris-Foulkes estimate   =    -151.61519885 Ry
     estimated scf accuracy    <       0.31197335 Ry

     iteration # 23     ecut=    70.00 Ry     beta=0.70
     Davidson diagonalization with overlap
     ethr =  6.78E-07,  avg # of iterations =  4.6

     total cpu time spent up to now is        2.6 secs

     total energy              =    -151.69223847 Ry
     Harris-Foulkes estimate   =    -151.85366536 Ry
     estimated scf accuracy    <       1.35580426 Ry

     iteration # 24     ecut=    70.00 Ry     beta=0.70
     Davidson diagonalization with overlap
     ethr =  6.78E-07,  avg # of iterations =  4.4

     total cpu time spent up to now is        2.8 secs

     total energy              =    -151.39408842 Ry
     Harris-Foulkes estimate   =    -151.70349113 Ry
     estimated scf accuracy    <       0.78803717 Ry

     iteration # 25     ecut=    70.00 Ry     beta=0.70
     Davidson diagonalization with overlap
     ethr =  6.78E-07,  avg # of iterations =  5.7

     total cpu time spent up to now is        2.9 secs

     total energy              =    -151.65455903 Ry
     Harris-Foulkes estimate   =    -151.61187897 Ry
     estimated scf accuracy    <       0.31131288 Ry

     iteration # 26     ecut=    70.00 Ry     beta=0.70
     Davidson diagonalization with overlap
     ethr =  6.78E-07,  avg # of iterations =  5.1

     total cpu time spent up to now is        3.1 secs

     total energy              =    -151.70383569 Ry
     Harris-Foulkes estimate   =    -151.66373395 Ry
     estimated scf accuracy    <       0.70849758 Ry

     iteration # 27     ecut=    70.00 Ry     beta=0.70
     Davidson diagonalization with overlap
     ethr =  6.78E-07,  avg # of iterations =  5.0

     total cpu time spent up to now is        3.2 secs

     total energy              =    -151.61740878 Ry
     Harris-Foulkes estimate   =    -151.70858295 Ry
     estimated scf accuracy    <       1.07375975 Ry

     iteration # 28     ecut=    70.00 Ry     beta=0.70
     Davidson diagonalization with overlap
     ethr =  6.78E-07,  avg # of iterations =  5.4

     total cpu time spent up to now is        3.4 secs

     total energy              =    -151.45105708 Ry
     Harris-Foulkes estimate   =    -151.63046037 Ry
     estimated scf accuracy    <       0.48244536 Ry

     iteration # 29     ecut=    70.00 Ry     beta=0.70
     Davidson diagonalization with overlap
     ethr =  6.78E-07,  avg # of iterations =  6.6

     total cpu time spent up to now is        3.5 secs

     total energy              =    -151.54864441 Ry
     Harris-Foulkes estimate   =    -151.59826093 Ry
     estimated scf accuracy    <       0.21364921 Ry

     iteration # 30     ecut=    70.00 Ry     beta=0.70
     Davidson diagonalization with overlap
     ethr =  6.78E-07,  avg # of iterations =  4.6

     total cpu time spent up to now is        3.7 secs

     total energy              =    -151.56826693 Ry
     Harris-Foulkes estimate   =    -151.56822614 Ry
     estimated scf accuracy    <       0.00174553 Ry

     iteration # 31     ecut=    70.00 Ry     beta=0.70
     Davidson diagonalization with overlap
     ethr =  6.78E-07,  avg # of iterations =  1.0

     total cpu time spent up to now is        3.8 secs

     total energy              =    -151.56740250 Ry
     Harris-Foulkes estimate   =    -151.56826755 Ry
     estimated scf accuracy    <       0.00187747 Ry

     iteration # 32     ecut=    70.00 Ry     beta=0.70
     Davidson diagonalization with overlap
     ethr =  6.78E-07,  avg # of iterations =  4.0

     total cpu time spent up to now is        3.9 secs

     total energy              =    -151.56800186 Ry
     Harris-Foulkes estimate   =    -151.56809876 Ry
     estimated scf accuracy    <       0.00228541 Ry

     iteration # 33     ecut=    70.00 Ry     beta=0.70
     Davidson diagonalization with overlap
     ethr =  6.78E-07,  avg # of iterations =  1.7

     total cpu time spent up to now is        4.0 secs

     total energy              =    -151.56756587 Ry
     Harris-Foulkes estimate   =    -151.56800699 Ry
     estimated scf accuracy    <       0.00184348 Ry

     iteration # 34     ecut=    70.00 Ry     beta=0.70
     Davidson diagonalization with overlap
     ethr =  6.78E-07,  avg # of iterations =  3.7

     total cpu time spent up to now is        4.1 secs

     total energy              =    -151.56777951 Ry
     Harris-Foulkes estimate   =    -151.56778864 Ry
     estimated scf accuracy    <       0.00002433 Ry

     iteration # 35     ecut=    70.00 Ry     beta=0.70
     Davidson diagonalization with overlap
     ethr =  1.52E-07,  avg # of iterations =  2.0

     total cpu time spent up to now is        4.2 secs

     total energy              =    -151.56777665 Ry
     Harris-Foulkes estimate   =    -151.56778236 Ry
     estimated scf accuracy    <       0.00001210 Ry

     iteration # 36     ecut=    70.00 Ry     beta=0.70
     Davidson diagonalization with overlap
     ethr =  7.56E-08,  avg # of iterations =  3.4

     total cpu time spent up to now is        4.3 secs

     total energy              =    -151.56778142 Ry
     Harris-Foulkes estimate   =    -151.56778451 Ry
     estimated scf accuracy    <       0.00002445 Ry

     iteration # 37     ecut=    70.00 Ry     beta=0.70
     Davidson diagonalization with overlap
     ethr =  7.56E-08,  avg # of iterations =  1.9

     total cpu time spent up to now is        4.4 secs

     total energy              =    -151.56778026 Ry
     Harris-Foulkes estimate   =    -151.56778202 Ry
     estimated scf accuracy    <       0.00000800 Ry

     iteration # 38     ecut=    70.00 Ry     beta=0.70
     Davidson diagonalization with overlap
     ethr =  5.00E-08,  avg # of iterations =  2.8

     total cpu time spent up to now is        4.5 secs

     total energy              =    -151.56778137 Ry
     Harris-Foulkes estimate   =    -151.56778138 Ry
     estimated scf accuracy    <       0.00000006 Ry

     iteration # 39     ecut=    70.00 Ry     beta=0.70
     Davidson diagonalization with overlap
     ethr =  3.96E-10,  avg # of iterations =  1.9

     total cpu time spent up to now is        4.5 secs

     total energy              =    -151.56778137 Ry
     Harris-Foulkes estimate   =    -151.56778138 Ry
     estimated scf accuracy    <       0.00000005 Ry

     iteration # 40     ecut=    70.00 Ry     beta=0.70
     Davidson diagonalization with overlap
     ethr =  3.30E-10,  avg # of iterations =  2.9

     total cpu time spent up to now is        4.6 secs

     End of self-consistent calculation

          k = 0.0000 0.0000 0.0000 (  4457 PWs)   bands (ev):

   -78.2507 -44.9447 -44.9447 -44.9447 -15.2379  -2.0930  -0.6006  -0.6006

          k = 0.0000 0.0000 0.2500 (  4504 PWs)   bands (ev):

   -78.2507 -44.9459 -44.9459 -44.9457 -15.2213  -2.2204  -0.5492  -0.5492

          k = 0.0000 0.0000-0.5000 (  4484 PWs)   bands (ev):

   -78.2507 -44.9459 -44.9455 -44.9455 -15.2047  -2.3612  -0.4961  -0.4961

          k = 0.0000 0.2500 0.2500 (  4466 PWs)   bands (ev):

   -78.2507 -44.9456 -44.9450 -44.9448 -15.2061  -2.0390  -0.9609  -0.5051

          k = 0.0000 0.2500-0.5000 (  4470 PWs)   bands (ev):

   -78.2507 -44.9458 -44.9455 -44.9451 -15.1908  -1.9607  -0.9697  -0.4604

          k = 0.0000-0.5000-0.5000 (  4500 PWs)   bands (ev):

   -78.2507 -44.9467 -44.9467 -44.9455 -15.1768  -1.3111  -1.3111  -0.4244

          k = 0.2500 0.2500 0.2500 (  4464 PWs)   bands (ev):

   -78.2507 -44.9455 -44.9455 -44.9449 -15.1919  -1.7955  -0.8479  -0.8479

          k = 0.2500 0.2500-0.5000 (  4474 PWs)   bands (ev):

   -78.2507 -44.9461 -44.9455 -44.9454 -15.1776  -1.6185  -0.9434  -0.7267

          k = 0.2500-0.5000-0.5000 (  4524 PWs)   bands (ev):

   -78.2507 -44.9471 -44.9471 -44.9464 -15.1644  -1.1426  -1.1426  -0.7033

          k =-0.5000-0.5000-0.5000 (  4416 PWs)   bands (ev):

   -78.2507 -44.9442 -44.9442 -44.9442 -15.1518  -0.9503  -0.9503  -0.9503

     highest occupied level (ev):    -0.4244

!    total energy              =    -151.56778137 Ry
     Harris-Foulkes estimate   =    -151.56778138 Ry
     estimated scf accuracy    <          5.1E-09 Ry

     The total energy is the sum of the following terms:

     one-electron contribution =    -125.42053189 Ry
     hartree contribution      =      60.27020884 Ry
     xc contribution           =     -23.64339925 Ry
     ewald contribution        =     -62.77405906 Ry

     convergence has been achieved in  40 iterations

     Forces acting on atoms (cartesian axes, Ry/au):

     atom    1 type  1   force =     0.00000000    0.00000000    0.00000000
     atom    2 type  2   force =     0.00000000    0.00000000    0.00000000

     Total force =     0.000000     Total SCF correction =     0.000000


     Computing stress (Cartesian axis) and pressure

          total   stress  (Ry/bohr**3)                   (kbar)     P= -142.92
  -0.00097157   0.00000000   0.00000000       -142.92      0.00      0.00
   0.00000000  -0.00097157   0.00000000          0.00   -142.92      0.00
   0.00000000   0.00000000  -0.00097157          0.00      0.00   -142.92


     Writing output data file diamond.7.68.70.4.save
 
     init_run     :      0.09s CPU      0.09s WALL (       1 calls)
     electrons    :      4.32s CPU      4.42s WALL (       1 calls)
     forces       :      0.02s CPU      0.02s WALL (       1 calls)
     stress       :      0.05s CPU      0.05s WALL (       1 calls)

     Called by init_run:
     wfcinit      :      0.03s CPU      0.04s WALL (       1 calls)
     potinit      :      0.01s CPU      0.01s WALL (       1 calls)

     Called by electrons:
     c_bands      :      3.48s CPU      3.56s WALL (      40 calls)
     sum_band     :      0.58s CPU      0.59s WALL (      40 calls)
     v_of_rho     :      0.21s CPU      0.21s WALL (      41 calls)
     mix_rho      :      0.05s CPU      0.05s WALL (      40 calls)

     Called by c_bands:
     init_us_2    :      0.11s CPU      0.11s WALL (     830 calls)
     cegterg      :      3.22s CPU      3.29s WALL (     400 calls)

     Called by sum_band:

     Called by *egterg:
     h_psi        :      2.68s CPU      2.75s WALL (    1686 calls)
     g_psi        :      0.02s CPU      0.02s WALL (    1276 calls)
     cdiaghg      :      0.22s CPU      0.22s WALL (    1676 calls)

     Called by h_psi:
     h_psi:pot    :      2.68s CPU      2.74s WALL (    1686 calls)
     h_psi:calbec :      0.11s CPU      0.10s WALL (    1686 calls)
     vloc_psi     :      2.52s CPU      2.57s WALL (    1686 calls)
     add_vuspsi   :      0.04s CPU      0.06s WALL (    1686 calls)

     General routines
     calbec       :      0.11s CPU      0.10s WALL (    1736 calls)
     fft          :      0.09s CPU      0.10s WALL (     475 calls)
     fftw         :      2.82s CPU      2.76s WALL (   21968 calls)
     davcio       :      0.00s CPU      0.00s WALL (      10 calls)
 
     Parallel routines
     fft_scatter  :      0.67s CPU      0.73s WALL (   22443 calls)
 
     PWSCF        :     4.66s CPU         4.79s WALL

 
   This run was terminated on:  15: 5: 8  19Apr2018            

=------------------------------------------------------------------------------=
   JOB DONE.
=------------------------------------------------------------------------------=
