
     Program PWSCF v.6.1 (svn rev. 13369) starts on 19Apr2018 at 15:30: 1 

     This program is part of the open-source Quantum ESPRESSO suite
     for quantum simulation of materials; please cite
         "P. Giannozzi et al., J. Phys.:Condens. Matter 21 395502 (2009);
          URL http://www.quantum-espresso.org", 
     in publications or presentations arising from this work. More details at
     http://www.quantum-espresso.org/quote

     Parallel version (MPI), running on     8 processors
     R & G space division:  proc/nbgrp/npool/nimage =       8
     Waiting for input...
     Reading input from standard input

     Current dimensions of program PWSCF are:
     Max number of different atomic species (ntypx) = 10
     Max number of k-points (npk) =  40000
     Max angular momentum in pseudopotentials (lmaxx) =  3

     Subspace diagonalization in iterative solution of the eigenvalue problem:
     a serial algorithm will be used

 
     Parallelization info
     --------------------
     sticks:   dense  smooth     PW     G-vecs:    dense   smooth      PW
     Min         175     175     52                 4902     4902     779
     Max         177     177     53                 4903     4903     780
     Sum        1405    1405    421                39223    39223    6235
 


     bravais-lattice index     =            8
     lattice parameter (alat)  =       7.9270  a.u.
     unit-cell volume          =     498.1115 (a.u.)^3
     number of atoms/cell      =            2
     number of atomic types    =            2
     number of electrons       =        16.00
     number of Kohn-Sham states=            8
     kinetic-energy cutoff     =      70.0000  Ry
     charge density cutoff     =     280.0000  Ry
     convergence threshold     =      1.0E-08
     mixing beta               =       0.7000
     number of iterations used =            8  plain     mixing
     Exchange-correlation      = PBE ( 1  4  3  4 0 0)

     celldm(1)=   7.927000  celldm(2)=   1.000000  celldm(3)=   1.000000
     celldm(4)=   0.000000  celldm(5)=   0.000000  celldm(6)=   0.000000

     crystal axes: (cart. coord. in units of alat)
               a(1) = (   1.000000   0.000000   0.000000 )  
               a(2) = (   0.000000   1.000000   0.000000 )  
               a(3) = (   0.000000   0.000000   1.000000 )  

     reciprocal axes: (cart. coord. in units 2 pi/alat)
               b(1) = (  1.000000  0.000000  0.000000 )  
               b(2) = (  0.000000  1.000000  0.000000 )  
               b(3) = (  0.000000  0.000000  1.000000 )  


     PseudoPot. # 1 for Mg read from file:
     ../pseudo/Mg.pbe.UPF
     MD5 check sum: 4c04d8c6e0476e83eaecaf72fa8acc4d
     Pseudo is Norm-conserving, Zval = 10.0
     Generated using ONCVPSP code by D. R. Hamann
     Using radial grid of 1510 points,  4 beta functions with: 
                l(1) =   0
                l(2) =   0
                l(3) =   1
                l(4) =   1

     PseudoPot. # 2 for O  read from file:
     ../pseudo/O.pbe.UPF
     MD5 check sum: 3e3f909f7470e8921608ab6b1f57bbae
     Pseudo is Norm-conserving + core correction, Zval =  6.0
     Generated using ONCVPSP code by D. R. Hamann
     Using radial grid of  936 points,  5 beta functions with: 
                l(1) =   0
                l(2) =   0
                l(3) =   1
                l(4) =   1
                l(5) =   2

     atomic species   valence    mass     pseudopotential
        Mg            10.00    24.30500     Mg( 1.00)
        O              6.00    15.99940     O ( 1.00)

     48 Sym. Ops., with inversion, found



   Cartesian axes

     site n.     atom                  positions (alat units)
         1           Mg  tau(   1) = (   0.0000000   0.0000000   0.0000000  )
         2           O   tau(   2) = (   0.5000000   0.5000000   0.5000000  )

     number of k points=    10
                       cart. coord. in units 2pi/alat
        k(    1) = (   0.0000000   0.0000000   0.0000000), wk =   0.0312500
        k(    2) = (   0.0000000   0.0000000   0.2500000), wk =   0.1875000
        k(    3) = (   0.0000000   0.0000000  -0.5000000), wk =   0.0937500
        k(    4) = (   0.0000000   0.2500000   0.2500000), wk =   0.3750000
        k(    5) = (   0.0000000   0.2500000  -0.5000000), wk =   0.3750000
        k(    6) = (   0.0000000  -0.5000000  -0.5000000), wk =   0.0937500
        k(    7) = (   0.2500000   0.2500000   0.2500000), wk =   0.2500000
        k(    8) = (   0.2500000   0.2500000  -0.5000000), wk =   0.3750000
        k(    9) = (   0.2500000  -0.5000000  -0.5000000), wk =   0.1875000
        k(   10) = (  -0.5000000  -0.5000000  -0.5000000), wk =   0.0312500

     Dense  grid:    39223 G-vectors     FFT dimensions: (  45,  45,  45)

     Estimated max dynamical RAM per process >       4.23MB

     Estimated total allocated dynamical RAM >      33.84MB

     Check: negative/imaginary core charge=   -0.000004    0.000000

     Initial potential from superposition of free atoms

     starting charge   15.99920, renormalised to   16.00000
     Starting wfc are    9 randomized atomic wfcs

     total cpu time spent up to now is        0.2 secs

     per-process dynamical memory:    30.4 Mb

     Self-consistent Calculation

     iteration #  1     ecut=    70.00 Ry     beta=0.70
     Davidson diagonalization with overlap
     ethr =  1.00E-02,  avg # of iterations =  1.9

     total cpu time spent up to now is        0.3 secs

     total energy              =    -150.48555179 Ry
     Harris-Foulkes estimate   =    -151.88878900 Ry
     estimated scf accuracy    <       1.77284528 Ry

     iteration #  2     ecut=    70.00 Ry     beta=0.70
     Davidson diagonalization with overlap
     ethr =  1.00E-02,  avg # of iterations =  5.5

     total cpu time spent up to now is        0.5 secs

     total energy              =    -150.12410023 Ry
     Harris-Foulkes estimate   =    -154.41587994 Ry
     estimated scf accuracy    <      15.18348907 Ry

     iteration #  3     ecut=    70.00 Ry     beta=0.70
     Davidson diagonalization with overlap
     ethr =  1.00E-02,  avg # of iterations =  4.0

     total cpu time spent up to now is        0.6 secs

     total energy              =    -151.48526047 Ry
     Harris-Foulkes estimate   =    -151.35521779 Ry
     estimated scf accuracy    <       0.48149472 Ry

     iteration #  4     ecut=    70.00 Ry     beta=0.70
     Davidson diagonalization with overlap
     ethr =  3.01E-03,  avg # of iterations =  1.9

     total cpu time spent up to now is        0.7 secs

     total energy              =    -151.14163035 Ry
     Harris-Foulkes estimate   =    -151.51372192 Ry
     estimated scf accuracy    <       1.24810444 Ry

     iteration #  5     ecut=    70.00 Ry     beta=0.70
     Davidson diagonalization with overlap
     ethr =  3.01E-03,  avg # of iterations =  2.6

     total cpu time spent up to now is        0.8 secs

     total energy              =    -151.25101501 Ry
     Harris-Foulkes estimate   =    -151.26477143 Ry
     estimated scf accuracy    <       0.08848752 Ry

     iteration #  6     ecut=    70.00 Ry     beta=0.70
     Davidson diagonalization with overlap
     ethr =  5.53E-04,  avg # of iterations =  1.1

     total cpu time spent up to now is        0.9 secs

     total energy              =    -151.24482729 Ry
     Harris-Foulkes estimate   =    -151.25228875 Ry
     estimated scf accuracy    <       0.05228606 Ry

     iteration #  7     ecut=    70.00 Ry     beta=0.70
     Davidson diagonalization with overlap
     ethr =  3.27E-04,  avg # of iterations =  1.0

     total cpu time spent up to now is        0.9 secs

     total energy              =    -151.24463431 Ry
     Harris-Foulkes estimate   =    -151.24572648 Ry
     estimated scf accuracy    <       0.03131953 Ry

     iteration #  8     ecut=    70.00 Ry     beta=0.70
     Davidson diagonalization with overlap
     ethr =  1.96E-04,  avg # of iterations =  1.0

     total cpu time spent up to now is        1.0 secs

     total energy              =    -151.24517161 Ry
     Harris-Foulkes estimate   =    -151.24478885 Ry
     estimated scf accuracy    <       0.02799386 Ry

     iteration #  9     ecut=    70.00 Ry     beta=0.70
     Davidson diagonalization with overlap
     ethr =  1.75E-04,  avg # of iterations =  1.0

     total cpu time spent up to now is        1.1 secs

     total energy              =    -151.24196757 Ry
     Harris-Foulkes estimate   =    -151.24519730 Ry
     estimated scf accuracy    <       0.02793503 Ry

     iteration # 10     ecut=    70.00 Ry     beta=0.70
     Davidson diagonalization with overlap
     ethr =  1.75E-04,  avg # of iterations =  1.1

     total cpu time spent up to now is        1.2 secs

     total energy              =    -151.23173111 Ry
     Harris-Foulkes estimate   =    -151.24217930 Ry
     estimated scf accuracy    <       0.01912799 Ry

     iteration # 11     ecut=    70.00 Ry     beta=0.70
     Davidson diagonalization with overlap
     ethr =  1.20E-04,  avg # of iterations =  2.0

     total cpu time spent up to now is        1.3 secs

     total energy              =    -151.23475379 Ry
     Harris-Foulkes estimate   =    -151.23494714 Ry
     estimated scf accuracy    <       0.00055380 Ry

     iteration # 12     ecut=    70.00 Ry     beta=0.70
     Davidson diagonalization with overlap
     ethr =  3.46E-06,  avg # of iterations =  4.0

     total cpu time spent up to now is        1.4 secs

     total energy              =    -151.33896203 Ry
     Harris-Foulkes estimate   =    -151.35260036 Ry
     estimated scf accuracy    <       0.04610046 Ry

     iteration # 13     ecut=    70.00 Ry     beta=0.70
     Davidson diagonalization with overlap
     ethr =  3.46E-06,  avg # of iterations =  3.8

     total cpu time spent up to now is        1.5 secs

     total energy              =    -151.40727136 Ry
     Harris-Foulkes estimate   =    -151.40511615 Ry
     estimated scf accuracy    <       0.06017942 Ry

     iteration # 14     ecut=    70.00 Ry     beta=0.70
     Davidson diagonalization with overlap
     ethr =  3.46E-06,  avg # of iterations =  2.6

     total cpu time spent up to now is        1.6 secs

     total energy              =    -151.55319840 Ry
     Harris-Foulkes estimate   =    -151.53505732 Ry
     estimated scf accuracy    <       0.25945216 Ry

     iteration # 15     ecut=    70.00 Ry     beta=0.70
     Davidson diagonalization with overlap
     ethr =  3.46E-06,  avg # of iterations =  3.4

     total cpu time spent up to now is        1.7 secs

     total energy              =    -151.56301239 Ry
     Harris-Foulkes estimate   =    -151.56928296 Ry
     estimated scf accuracy    <       0.33767098 Ry

     iteration # 16     ecut=    70.00 Ry     beta=0.70
     Davidson diagonalization with overlap
     ethr =  3.46E-06,  avg # of iterations =  2.8

     total cpu time spent up to now is        1.8 secs

     total energy              =    -151.66058094 Ry
     Harris-Foulkes estimate   =    -151.66208400 Ry
     estimated scf accuracy    <       0.65400557 Ry

     iteration # 17     ecut=    70.00 Ry     beta=0.70
     Davidson diagonalization with overlap
     ethr =  3.46E-06,  avg # of iterations =  1.0

     total cpu time spent up to now is        1.9 secs

     total energy              =    -151.64564321 Ry
     Harris-Foulkes estimate   =    -151.66058640 Ry
     estimated scf accuracy    <       0.65310915 Ry

     iteration # 18     ecut=    70.00 Ry     beta=0.70
     Davidson diagonalization with overlap
     ethr =  3.46E-06,  avg # of iterations =  2.5

     total cpu time spent up to now is        2.0 secs

     total energy              =    -151.62812018 Ry
     Harris-Foulkes estimate   =    -151.64582305 Ry
     estimated scf accuracy    <       0.60631603 Ry

     iteration # 19     ecut=    70.00 Ry     beta=0.70
     Davidson diagonalization with overlap
     ethr =  3.46E-06,  avg # of iterations =  3.0

     total cpu time spent up to now is        2.1 secs

     total energy              =    -151.64349351 Ry
     Harris-Foulkes estimate   =    -151.66597498 Ry
     estimated scf accuracy    <       0.74619354 Ry

     iteration # 20     ecut=    70.00 Ry     beta=0.70
     Davidson diagonalization with overlap
     ethr =  3.46E-06,  avg # of iterations =  3.5

     total cpu time spent up to now is        2.2 secs

     total energy              =    -151.65278099 Ry
     Harris-Foulkes estimate   =    -151.67236911 Ry
     estimated scf accuracy    <       0.78783531 Ry

     iteration # 21     ecut=    70.00 Ry     beta=0.70
     Davidson diagonalization with overlap
     ethr =  3.46E-06,  avg # of iterations =  2.6

     total cpu time spent up to now is        2.3 secs

     total energy              =    -151.65228280 Ry
     Harris-Foulkes estimate   =    -151.65305137 Ry
     estimated scf accuracy    <       0.71996722 Ry

     iteration # 22     ecut=    70.00 Ry     beta=0.70
     Davidson diagonalization with overlap
     ethr =  3.46E-06,  avg # of iterations =  1.0

     total cpu time spent up to now is        2.4 secs

     total energy              =    -151.69288377 Ry
     Harris-Foulkes estimate   =    -151.65228344 Ry
     estimated scf accuracy    <       0.71802449 Ry

     iteration # 23     ecut=    70.00 Ry     beta=0.70
     Davidson diagonalization with overlap
     ethr =  3.46E-06,  avg # of iterations =  3.5

     total cpu time spent up to now is        2.5 secs

     total energy              =    -151.70238895 Ry
     Harris-Foulkes estimate   =    -151.69412127 Ry
     estimated scf accuracy    <       0.86291500 Ry

     iteration # 24     ecut=    70.00 Ry     beta=0.70
     Davidson diagonalization with overlap
     ethr =  3.46E-06,  avg # of iterations =  1.8

     total cpu time spent up to now is        2.6 secs

     total energy              =    -151.47176057 Ry
     Harris-Foulkes estimate   =    -151.70242164 Ry
     estimated scf accuracy    <       0.88818910 Ry

     iteration # 25     ecut=    70.00 Ry     beta=0.70
     Davidson diagonalization with overlap
     ethr =  3.46E-06,  avg # of iterations =  4.4

     total cpu time spent up to now is        2.8 secs

     total energy              =    -151.44511982 Ry
     Harris-Foulkes estimate   =    -151.51904921 Ry
     estimated scf accuracy    <       0.10572538 Ry

     iteration # 26     ecut=    70.00 Ry     beta=0.70
     Davidson diagonalization with overlap
     ethr =  3.46E-06,  avg # of iterations =  5.4

     total cpu time spent up to now is        2.9 secs

     total energy              =    -151.61734290 Ry
     Harris-Foulkes estimate   =    -151.66038753 Ry
     estimated scf accuracy    <       1.20377570 Ry

     iteration # 27     ecut=    70.00 Ry     beta=0.70
     Davidson diagonalization with overlap
     ethr =  3.46E-06,  avg # of iterations =  4.3

     total cpu time spent up to now is        3.1 secs

     total energy              =    -151.52837922 Ry
     Harris-Foulkes estimate   =    -151.61990637 Ry
     estimated scf accuracy    <       0.88814007 Ry

     iteration # 28     ecut=    70.00 Ry     beta=0.70
     Davidson diagonalization with overlap
     ethr =  3.46E-06,  avg # of iterations =  4.6

     total cpu time spent up to now is        3.2 secs

     total energy              =    -151.50746280 Ry
     Harris-Foulkes estimate   =    -151.54346995 Ry
     estimated scf accuracy    <       0.33118510 Ry

     iteration # 29     ecut=    70.00 Ry     beta=0.70
     Davidson diagonalization with overlap
     ethr =  3.46E-06,  avg # of iterations =  4.3

     total cpu time spent up to now is        3.3 secs

     total energy              =    -151.45328621 Ry
     Harris-Foulkes estimate   =    -151.51364143 Ry
     estimated scf accuracy    <       0.11831524 Ry

     iteration # 30     ecut=    70.00 Ry     beta=0.70
     Davidson diagonalization with overlap
     ethr =  3.46E-06,  avg # of iterations =  4.5

     total cpu time spent up to now is        3.5 secs

     total energy              =    -151.65111337 Ry
     Harris-Foulkes estimate   =    -151.53179268 Ry
     estimated scf accuracy    <       0.18160607 Ry

     iteration # 31     ecut=    70.00 Ry     beta=0.70
     Davidson diagonalization with overlap
     ethr =  3.46E-06,  avg # of iterations =  4.0

     total cpu time spent up to now is        3.6 secs

     total energy              =    -151.60858191 Ry
     Harris-Foulkes estimate   =    -151.68615685 Ry
     estimated scf accuracy    <       0.72712098 Ry

     iteration # 32     ecut=    70.00 Ry     beta=0.70
     Davidson diagonalization with overlap
     ethr =  3.46E-06,  avg # of iterations =  3.4

     total cpu time spent up to now is        3.8 secs

     total energy              =    -151.55488507 Ry
     Harris-Foulkes estimate   =    -151.61183893 Ry
     estimated scf accuracy    <       0.50654850 Ry

     iteration # 33     ecut=    70.00 Ry     beta=0.70
     Davidson diagonalization with overlap
     ethr =  3.46E-06,  avg # of iterations =  3.4

     total cpu time spent up to now is        3.9 secs

     total energy              =    -151.72685195 Ry
     Harris-Foulkes estimate   =    -151.55826589 Ry
     estimated scf accuracy    <       0.31852210 Ry

     iteration # 34     ecut=    70.00 Ry     beta=0.70
     Davidson diagonalization with overlap
     ethr =  3.46E-06,  avg # of iterations =  4.6

     total cpu time spent up to now is        4.1 secs

     total energy              =    -151.66355033 Ry
     Harris-Foulkes estimate   =    -151.89713862 Ry
     estimated scf accuracy    <       1.48315426 Ry

     iteration # 35     ecut=    70.00 Ry     beta=0.70
     Davidson diagonalization with overlap
     ethr =  3.46E-06,  avg # of iterations =  3.9

     total cpu time spent up to now is        4.2 secs

     total energy              =    -151.97209288 Ry
     Harris-Foulkes estimate   =    -151.67907350 Ry
     estimated scf accuracy    <       0.80865848 Ry

     iteration # 36     ecut=    70.00 Ry     beta=0.70
     Davidson diagonalization with overlap
     ethr =  3.46E-06,  avg # of iterations =  4.0

     total cpu time spent up to now is        4.4 secs

     total energy              =    -152.40786941 Ry
     Harris-Foulkes estimate   =    -152.00659163 Ry
     estimated scf accuracy    <       1.73952430 Ry

     iteration # 37     ecut=    70.00 Ry     beta=0.70
     Davidson diagonalization with overlap
     ethr =  3.46E-06,  avg # of iterations =  4.4

     total cpu time spent up to now is        4.5 secs

     total energy              =    -151.44649251 Ry
     Harris-Foulkes estimate   =    -152.44099420 Ry
     estimated scf accuracy    <       2.73354571 Ry

     iteration # 38     ecut=    70.00 Ry     beta=0.70
     Davidson diagonalization with overlap
     ethr =  3.46E-06,  avg # of iterations =  4.7

     total cpu time spent up to now is        4.7 secs

     total energy              =    -151.45398059 Ry
     Harris-Foulkes estimate   =    -151.58481468 Ry
     estimated scf accuracy    <       0.37094736 Ry

     iteration # 39     ecut=    70.00 Ry     beta=0.70
     Davidson diagonalization with overlap
     ethr =  3.46E-06,  avg # of iterations =  4.7

     total cpu time spent up to now is        4.8 secs

     total energy              =    -151.52894703 Ry
     Harris-Foulkes estimate   =    -151.53824174 Ry
     estimated scf accuracy    <       0.08642178 Ry

     iteration # 40     ecut=    70.00 Ry     beta=0.70
     Davidson diagonalization with overlap
     ethr =  3.46E-06,  avg # of iterations =  3.9

     total cpu time spent up to now is        4.9 secs

     total energy              =    -151.53370064 Ry
     Harris-Foulkes estimate   =    -151.53093021 Ry
     estimated scf accuracy    <       0.02644510 Ry

     iteration # 41     ecut=    70.00 Ry     beta=0.70
     Davidson diagonalization with overlap
     ethr =  3.46E-06,  avg # of iterations =  3.4

     total cpu time spent up to now is        5.1 secs

     total energy              =    -151.52775250 Ry
     Harris-Foulkes estimate   =    -151.53427075 Ry
     estimated scf accuracy    <       0.05430450 Ry

     iteration # 42     ecut=    70.00 Ry     beta=0.70
     Davidson diagonalization with overlap
     ethr =  3.46E-06,  avg # of iterations =  3.6

     total cpu time spent up to now is        5.2 secs

     total energy              =    -151.55070214 Ry
     Harris-Foulkes estimate   =    -151.52935757 Ry
     estimated scf accuracy    <       0.01319274 Ry

     iteration # 43     ecut=    70.00 Ry     beta=0.70
     Davidson diagonalization with overlap
     ethr =  3.46E-06,  avg # of iterations =  4.6

     total cpu time spent up to now is        5.4 secs

     total energy              =    -151.48871107 Ry
     Harris-Foulkes estimate   =    -151.77649266 Ry
     estimated scf accuracy    <       1.14536940 Ry

     iteration # 44     ecut=    70.00 Ry     beta=0.70
     Davidson diagonalization with overlap
     ethr =  3.46E-06,  avg # of iterations =  4.4

     total cpu time spent up to now is        5.6 secs

     total energy              =    -151.57862081 Ry
     Harris-Foulkes estimate   =    -151.54661715 Ry
     estimated scf accuracy    <       0.13561787 Ry

     iteration # 45     ecut=    70.00 Ry     beta=0.70
     Davidson diagonalization with overlap
     ethr =  3.46E-06,  avg # of iterations =  3.7

     total cpu time spent up to now is        5.7 secs

     total energy              =    -151.43857913 Ry
     Harris-Foulkes estimate   =    -151.58720028 Ry
     estimated scf accuracy    <       0.39282532 Ry

     iteration # 46     ecut=    70.00 Ry     beta=0.70
     Davidson diagonalization with overlap
     ethr =  3.46E-06,  avg # of iterations =  4.9

     total cpu time spent up to now is        5.8 secs

     total energy              =    -151.57570078 Ry
     Harris-Foulkes estimate   =    -151.55131295 Ry
     estimated scf accuracy    <       0.17614982 Ry

     iteration # 47     ecut=    70.00 Ry     beta=0.70
     Davidson diagonalization with overlap
     ethr =  3.46E-06,  avg # of iterations =  4.2

     total cpu time spent up to now is        5.9 secs

     total energy              =    -151.52337067 Ry
     Harris-Foulkes estimate   =    -151.58032076 Ry
     estimated scf accuracy    <       0.39239165 Ry

     iteration # 48     ecut=    70.00 Ry     beta=0.70
     Davidson diagonalization with overlap
     ethr =  3.46E-06,  avg # of iterations =  4.7

     total cpu time spent up to now is        6.1 secs

     total energy              =    -151.53914271 Ry
     Harris-Foulkes estimate   =    -151.53726857 Ry
     estimated scf accuracy    <       0.07014237 Ry

     iteration # 49     ecut=    70.00 Ry     beta=0.70
     Davidson diagonalization with overlap
     ethr =  3.46E-06,  avg # of iterations =  2.6

     total cpu time spent up to now is        6.2 secs

     total energy              =    -151.53068475 Ry
     Harris-Foulkes estimate   =    -151.53921785 Ry
     estimated scf accuracy    <       0.08474018 Ry

     iteration # 50     ecut=    70.00 Ry     beta=0.70
     Davidson diagonalization with overlap
     ethr =  3.46E-06,  avg # of iterations =  3.9

     total cpu time spent up to now is        6.3 secs

     total energy              =    -151.52640415 Ry
     Harris-Foulkes estimate   =    -151.53206427 Ry
     estimated scf accuracy    <       0.03124251 Ry

     iteration # 51     ecut=    70.00 Ry     beta=0.70
     Davidson diagonalization with overlap
     ethr =  3.46E-06,  avg # of iterations =  3.5

     total cpu time spent up to now is        6.4 secs

     total energy              =    -151.52715731 Ry
     Harris-Foulkes estimate   =    -151.52823911 Ry
     estimated scf accuracy    <       0.00197816 Ry

     iteration # 52     ecut=    70.00 Ry     beta=0.70
     Davidson diagonalization with overlap
     ethr =  3.46E-06,  avg # of iterations =  3.5

     total cpu time spent up to now is        6.6 secs

     total energy              =    -151.52728367 Ry
     Harris-Foulkes estimate   =    -151.52879059 Ry
     estimated scf accuracy    <       0.00643589 Ry

     iteration # 53     ecut=    70.00 Ry     beta=0.70
     Davidson diagonalization with overlap
     ethr =  3.46E-06,  avg # of iterations =  3.3

     total cpu time spent up to now is        6.7 secs

     total energy              =    -151.52797727 Ry
     Harris-Foulkes estimate   =    -151.52798736 Ry
     estimated scf accuracy    <       0.00003777 Ry

     iteration # 54     ecut=    70.00 Ry     beta=0.70
     Davidson diagonalization with overlap
     ethr =  2.36E-07,  avg # of iterations =  1.7

     total cpu time spent up to now is        6.8 secs

     total energy              =    -151.52797148 Ry
     Harris-Foulkes estimate   =    -151.52797896 Ry
     estimated scf accuracy    <       0.00001762 Ry

     iteration # 55     ecut=    70.00 Ry     beta=0.70
     Davidson diagonalization with overlap
     ethr =  1.10E-07,  avg # of iterations =  2.9

     total cpu time spent up to now is        6.9 secs

     total energy              =    -151.52797313 Ry
     Harris-Foulkes estimate   =    -151.52797431 Ry
     estimated scf accuracy    <       0.00000698 Ry

     iteration # 56     ecut=    70.00 Ry     beta=0.70
     Davidson diagonalization with overlap
     ethr =  4.36E-08,  avg # of iterations =  2.0

     total cpu time spent up to now is        7.0 secs

     total energy              =    -151.52797357 Ry
     Harris-Foulkes estimate   =    -151.52797390 Ry
     estimated scf accuracy    <       0.00000297 Ry

     iteration # 57     ecut=    70.00 Ry     beta=0.70
     Davidson diagonalization with overlap
     ethr =  1.86E-08,  avg # of iterations =  1.7

     total cpu time spent up to now is        7.1 secs

     total energy              =    -151.52797203 Ry
     Harris-Foulkes estimate   =    -151.52797371 Ry
     estimated scf accuracy    <       0.00000294 Ry

     iteration # 58     ecut=    70.00 Ry     beta=0.70
     Davidson diagonalization with overlap
     ethr =  1.84E-08,  avg # of iterations =  3.5

     total cpu time spent up to now is        7.2 secs

     total energy              =    -151.52797279 Ry
     Harris-Foulkes estimate   =    -151.52797527 Ry
     estimated scf accuracy    <       0.00002053 Ry

     iteration # 59     ecut=    70.00 Ry     beta=0.70
     Davidson diagonalization with overlap
     ethr =  1.84E-08,  avg # of iterations =  2.9

     total cpu time spent up to now is        7.3 secs

     total energy              =    -151.52797118 Ry
     Harris-Foulkes estimate   =    -151.52797337 Ry
     estimated scf accuracy    <       0.00000516 Ry

     iteration # 60     ecut=    70.00 Ry     beta=0.70
     Davidson diagonalization with overlap
     ethr =  1.84E-08,  avg # of iterations =  3.3

     total cpu time spent up to now is        7.4 secs

     total energy              =    -151.52797209 Ry
     Harris-Foulkes estimate   =    -151.52797367 Ry
     estimated scf accuracy    <       0.00000737 Ry

     iteration # 61     ecut=    70.00 Ry     beta=0.70
     Davidson diagonalization with overlap
     ethr =  1.84E-08,  avg # of iterations =  3.1

     total cpu time spent up to now is        7.5 secs

     total energy              =    -151.52797298 Ry
     Harris-Foulkes estimate   =    -151.52797275 Ry
     estimated scf accuracy    <       0.00000014 Ry

     iteration # 62     ecut=    70.00 Ry     beta=0.70
     Davidson diagonalization with overlap
     ethr =  8.87E-10,  avg # of iterations =  3.9

     total cpu time spent up to now is        7.6 secs

     total energy              =    -151.52797184 Ry
     Harris-Foulkes estimate   =    -151.52797340 Ry
     estimated scf accuracy    <       0.00000492 Ry

     iteration # 63     ecut=    70.00 Ry     beta=0.70
     Davidson diagonalization with overlap
     ethr =  8.87E-10,  avg # of iterations =  4.3

     total cpu time spent up to now is        7.8 secs

     total energy              =    -151.52797270 Ry
     Harris-Foulkes estimate   =    -151.52797281 Ry
     estimated scf accuracy    <       0.00000071 Ry

     iteration # 64     ecut=    70.00 Ry     beta=0.70
     Davidson diagonalization with overlap
     ethr =  8.87E-10,  avg # of iterations =  3.0

     total cpu time spent up to now is        7.9 secs

     total energy              =    -151.52797272 Ry
     Harris-Foulkes estimate   =    -151.52797273 Ry
     estimated scf accuracy    <       0.00000006 Ry

     iteration # 65     ecut=    70.00 Ry     beta=0.70
     Davidson diagonalization with overlap
     ethr =  4.05E-10,  avg # of iterations =  2.2

     total cpu time spent up to now is        8.0 secs

     End of self-consistent calculation

          k = 0.0000 0.0000 0.0000 (  4945 PWs)   bands (ev):

   -78.6686 -45.3673 -45.3673 -45.3673 -15.6520  -2.4490  -1.0218  -1.0218

          k = 0.0000 0.0000 0.2500 (  4925 PWs)   bands (ev):

   -78.6686 -45.3667 -45.3667 -45.3667 -15.6405  -2.5172  -0.9782  -0.6510

          k = 0.0000 0.0000-0.5000 (  4950 PWs)   bands (ev):

   -78.6686 -45.3673 -45.3673 -45.3673 -15.6290  -2.6079  -0.9342  -0.9342

          k = 0.0000 0.2500 0.2500 (  4943 PWs)   bands (ev):

   -78.6686 -45.3674 -45.3672 -45.3669 -15.6298  -2.3353  -1.3183  -0.9421

          k = 0.0000 0.2500-0.5000 (  4956 PWs)   bands (ev):

   -78.6686 -45.3676 -45.3673 -45.3673 -15.6191  -2.2330  -1.3241  -0.9049

          k = 0.0000-0.5000-0.5000 (  4844 PWs)   bands (ev):

   -78.6686 -45.3654 -45.3650 -45.3650 -15.6092  -1.6125  -1.6125  -0.8745

          k = 0.2500 0.2500 0.2500 (  4932 PWs)   bands (ev):

   -78.6686 -45.3672 -45.3669 -45.3669 -15.6198  -2.1002  -1.2242  -1.2242

          k = 0.2500 0.2500-0.5000 (  4930 PWs)   bands (ev):

   -78.6686 -45.3674 -45.3669 -45.3667 -15.6097  -1.9139  -1.3017  -1.1245

          k = 0.2500-0.5000-0.5000 (  4904 PWs)   bands (ev):

   -78.6686 -45.3669 -45.3664 -45.3664 -15.6003  -1.4702  -1.4702  -1.1046

          k =-0.5000-0.5000-0.5000 (  4896 PWs)   bands (ev):

   -78.6686 -45.3666 -45.3666 -45.3666 -15.5914  -1.3112  -1.3112  -1.3112

     highest occupied level (ev):    -0.6510

!    total energy              =    -151.52797272 Ry
     Harris-Foulkes estimate   =    -151.52797272 Ry
     estimated scf accuracy    <          6.1E-09 Ry

     The total energy is the sum of the following terms:

     one-electron contribution =    -128.80494666 Ry
     hartree contribution      =      61.71170680 Ry
     xc contribution           =     -23.61667134 Ry
     ewald contribution        =     -60.81806151 Ry

     convergence has been achieved in  65 iterations

     Forces acting on atoms (cartesian axes, Ry/au):

     atom    1 type  1   force =     0.00000000    0.00000000    0.00000000
     atom    2 type  2   force =     0.00000000    0.00000000    0.00000000

     Total force =     0.000000     Total SCF correction =     0.000000


     Computing stress (Cartesian axis) and pressure

          total   stress  (Ry/bohr**3)                   (kbar)     P= -120.66
  -0.00082020   0.00000000   0.00000000       -120.66      0.00      0.00
   0.00000000  -0.00082020   0.00000000          0.00   -120.66      0.00
   0.00000000   0.00000000  -0.00082020          0.00      0.00   -120.66


     Writing output data file diamond.7.927.70.4.save
 
     init_run     :      0.09s CPU      0.10s WALL (       1 calls)
     electrons    :      7.40s CPU      7.76s WALL (       1 calls)
     forces       :      0.02s CPU      0.02s WALL (       1 calls)
     stress       :      0.10s CPU      0.11s WALL (       1 calls)

     Called by init_run:
     wfcinit      :      0.03s CPU      0.04s WALL (       1 calls)
     potinit      :      0.01s CPU      0.01s WALL (       1 calls)

     Called by electrons:
     c_bands      :      5.95s CPU      6.18s WALL (      65 calls)
     sum_band     :      0.97s CPU      1.04s WALL (      65 calls)
     v_of_rho     :      0.34s CPU      0.39s WALL (      66 calls)
     mix_rho      :      0.13s CPU      0.14s WALL (      65 calls)

     Called by c_bands:
     init_us_2    :      0.20s CPU      0.24s WALL (    1330 calls)
     cegterg      :      5.49s CPU      5.71s WALL (     650 calls)

     Called by sum_band:

     Called by *egterg:
     h_psi        :      4.51s CPU      4.71s WALL (    2779 calls)
     g_psi        :      0.02s CPU      0.04s WALL (    2119 calls)
     cdiaghg      :      0.40s CPU      0.41s WALL (    2769 calls)

     Called by h_psi:
     h_psi:pot    :      4.49s CPU      4.69s WALL (    2779 calls)
     h_psi:calbec :      0.19s CPU      0.17s WALL (    2779 calls)
     vloc_psi     :      4.21s CPU      4.41s WALL (    2779 calls)
     add_vuspsi   :      0.08s CPU      0.10s WALL (    2779 calls)

     General routines
     calbec       :      0.19s CPU      0.17s WALL (    2829 calls)
     fft          :      0.20s CPU      0.25s WALL (     750 calls)
     fftw         :      4.70s CPU      4.73s WALL (   35492 calls)
     davcio       :      0.00s CPU      0.00s WALL (      10 calls)
 
     Parallel routines
     fft_scatter  :      1.32s CPU      1.45s WALL (   36242 calls)
 
     PWSCF        :     7.79s CPU         8.21s WALL

 
   This run was terminated on:  15:30:10  19Apr2018            

=------------------------------------------------------------------------------=
   JOB DONE.
=------------------------------------------------------------------------------=
