
     Program PWSCF v.6.1 (svn rev. 13369) starts on 19Apr2018 at 18:11:45 

     This program is part of the open-source Quantum ESPRESSO suite
     for quantum simulation of materials; please cite
         "P. Giannozzi et al., J. Phys.:Condens. Matter 21 395502 (2009);
          URL http://www.quantum-espresso.org", 
     in publications or presentations arising from this work. More details at
     http://www.quantum-espresso.org/quote

     Parallel version (MPI), running on     8 processors
     R & G space division:  proc/nbgrp/npool/nimage =       8
     Waiting for input...
     Reading input from standard input

     Current dimensions of program PWSCF are:
     Max number of different atomic species (ntypx) = 10
     Max number of k-points (npk) =  40000
     Max angular momentum in pseudopotentials (lmaxx) =  3

     Subspace diagonalization in iterative solution of the eigenvalue problem:
     a serial algorithm will be used

 
     Parallelization info
     --------------------
     sticks:   dense  smooth     PW     G-vecs:    dense   smooth      PW
     Min          74      74     23                 1229     1229     209
     Max          75      75     24                 1233     1233     212
     Sum         595     595    187                 9841     9841    1687
 


     bravais-lattice index     =            2
     lattice parameter (alat)  =       7.9710  a.u.
     unit-cell volume          =     126.6130 (a.u.)^3
     number of atoms/cell      =            2
     number of atomic types    =            2
     number of electrons       =        16.00
     number of Kohn-Sham states=            8
     kinetic-energy cutoff     =      70.0000  Ry
     charge density cutoff     =     280.0000  Ry
     convergence threshold     =      1.0E-08
     mixing beta               =       0.7000
     number of iterations used =            8  plain     mixing
     Exchange-correlation      = PBE ( 1  4  3  4 0 0)

     celldm(1)=   7.971000  celldm(2)=   0.000000  celldm(3)=   0.000000
     celldm(4)=   0.000000  celldm(5)=   0.000000  celldm(6)=   0.000000

     crystal axes: (cart. coord. in units of alat)
               a(1) = (  -0.500000   0.000000   0.500000 )  
               a(2) = (   0.000000   0.500000   0.500000 )  
               a(3) = (  -0.500000   0.500000   0.000000 )  

     reciprocal axes: (cart. coord. in units 2 pi/alat)
               b(1) = ( -1.000000 -1.000000  1.000000 )  
               b(2) = (  1.000000  1.000000  1.000000 )  
               b(3) = ( -1.000000  1.000000 -1.000000 )  


     PseudoPot. # 1 for Mg read from file:
     ../pseudo/Mg.pbe.UPF
     MD5 check sum: 4c04d8c6e0476e83eaecaf72fa8acc4d
     Pseudo is Norm-conserving, Zval = 10.0
     Generated using ONCVPSP code by D. R. Hamann
     Using radial grid of 1510 points,  4 beta functions with: 
                l(1) =   0
                l(2) =   0
                l(3) =   1
                l(4) =   1

     PseudoPot. # 2 for O  read from file:
     ../pseudo/O.pbe.UPF
     MD5 check sum: 3e3f909f7470e8921608ab6b1f57bbae
     Pseudo is Norm-conserving + core correction, Zval =  6.0
     Generated using ONCVPSP code by D. R. Hamann
     Using radial grid of  936 points,  5 beta functions with: 
                l(1) =   0
                l(2) =   0
                l(3) =   1
                l(4) =   1
                l(5) =   2

     atomic species   valence    mass     pseudopotential
        Mg            10.00    24.30500     Mg( 1.00)
        O              6.00    15.99940     O ( 1.00)

     48 Sym. Ops., with inversion, found



   Cartesian axes

     site n.     atom                  positions (alat units)
         1           Mg  tau(   1) = (   0.0000000   0.0000000   0.0000000  )
         2           O   tau(   2) = (   0.5000000   0.5000000   0.5000000  )

     number of k points=     8
                       cart. coord. in units 2pi/alat
        k(    1) = (   0.0000000   0.0000000   0.0000000), wk =   0.0312500
        k(    2) = (  -0.2500000   0.2500000  -0.2500000), wk =   0.2500000
        k(    3) = (   0.5000000  -0.5000000   0.5000000), wk =   0.1250000
        k(    4) = (   0.0000000   0.5000000   0.0000000), wk =   0.1875000
        k(    5) = (   0.7500000  -0.2500000   0.7500000), wk =   0.7500000
        k(    6) = (   0.5000000   0.0000000   0.5000000), wk =   0.3750000
        k(    7) = (   0.0000000  -1.0000000   0.0000000), wk =   0.0937500
        k(    8) = (  -0.5000000  -1.0000000   0.0000000), wk =   0.1875000

     Dense  grid:     9841 G-vectors     FFT dimensions: (  30,  30,  30)

     Estimated max dynamical RAM per process >       1.09MB

     Estimated total allocated dynamical RAM >       8.73MB

     Check: negative/imaginary core charge=   -0.000008    0.000000

     Initial potential from superposition of free atoms

     starting charge   15.99920, renormalised to   16.00000
     Starting wfc are    9 randomized atomic wfcs

     total cpu time spent up to now is        0.1 secs

     per-process dynamical memory:    31.7 Mb

     Self-consistent Calculation

     iteration #  1     ecut=    70.00 Ry     beta=0.70
     Davidson diagonalization with overlap
     ethr =  1.00E-02,  avg # of iterations =  2.0

     total cpu time spent up to now is        0.2 secs

     total energy              =    -151.93015539 Ry
     Harris-Foulkes estimate   =    -152.21016258 Ry
     estimated scf accuracy    <       0.38936126 Ry

     iteration #  2     ecut=    70.00 Ry     beta=0.70
     Davidson diagonalization with overlap
     ethr =  2.43E-03,  avg # of iterations =  2.4

     total cpu time spent up to now is        0.2 secs

     total energy              =    -152.03012886 Ry
     Harris-Foulkes estimate   =    -152.19402869 Ry
     estimated scf accuracy    <       0.33614446 Ry

     iteration #  3     ecut=    70.00 Ry     beta=0.70
     Davidson diagonalization with overlap
     ethr =  2.10E-03,  avg # of iterations =  2.0

     total cpu time spent up to now is        0.2 secs

     total energy              =    -152.09639341 Ry
     Harris-Foulkes estimate   =    -152.09651301 Ry
     estimated scf accuracy    <       0.00156743 Ry

     iteration #  4     ecut=    70.00 Ry     beta=0.70
     Davidson diagonalization with overlap
     ethr =  9.80E-06,  avg # of iterations =  2.0

     total cpu time spent up to now is        0.2 secs

     total energy              =    -152.09670710 Ry
     Harris-Foulkes estimate   =    -152.09671735 Ry
     estimated scf accuracy    <       0.00002599 Ry

     iteration #  5     ecut=    70.00 Ry     beta=0.70
     Davidson diagonalization with overlap
     ethr =  1.62E-07,  avg # of iterations =  1.1

     total cpu time spent up to now is        0.2 secs

     total energy              =    -152.09670843 Ry
     Harris-Foulkes estimate   =    -152.09670832 Ry
     estimated scf accuracy    <       0.00000282 Ry

     iteration #  6     ecut=    70.00 Ry     beta=0.70
     Davidson diagonalization with overlap
     ethr =  1.76E-08,  avg # of iterations =  2.0

     total cpu time spent up to now is        0.3 secs

     total energy              =    -152.09670897 Ry
     Harris-Foulkes estimate   =    -152.09670914 Ry
     estimated scf accuracy    <       0.00000040 Ry

     iteration #  7     ecut=    70.00 Ry     beta=0.70
     Davidson diagonalization with overlap
     ethr =  2.50E-09,  avg # of iterations =  2.0

     total cpu time spent up to now is        0.3 secs

     total energy              =    -152.09670897 Ry
     Harris-Foulkes estimate   =    -152.09670901 Ry
     estimated scf accuracy    <       0.00000006 Ry

     iteration #  8     ecut=    70.00 Ry     beta=0.70
     Davidson diagonalization with overlap
     ethr =  3.72E-10,  avg # of iterations =  2.0

     total cpu time spent up to now is        0.3 secs

     End of self-consistent calculation

          k = 0.0000 0.0000 0.0000 (  1243 PWs)   bands (ev):

   -64.4092 -31.1429 -31.1429 -31.1429  -9.1533   8.0185   8.0185   8.0185

          k =-0.2500 0.2500-0.2500 (  1257 PWs)   bands (ev):

   -64.4050 -31.1857 -31.1474 -31.1474  -8.5537   5.3831   7.6877   7.6877

          k = 0.5000-0.5000 0.5000 (  1224 PWs)   bands (ev):

   -64.4008 -31.2231 -31.1506 -31.1506  -7.8453   3.4422   7.3837   7.3837

          k = 0.0000 0.5000 0.0000 (  1283 PWs)   bands (ev):

   -64.4036 -31.1826 -31.1596 -31.1596  -8.3962   5.4147   7.2920   7.2920

          k = 0.7500-0.2500 0.7500 (  1240 PWs)   bands (ev):

   -64.3994 -31.2071 -31.1725 -31.1622  -7.7440   4.2463   6.1333   7.0183

          k = 0.5000 0.0000 0.5000 (  1264 PWs)   bands (ev):

   -64.4008 -31.2022 -31.1761 -31.1529  -7.9284   4.5543   6.0517   7.3822

          k = 0.0000-1.0000 0.0000 (  1234 PWs)   bands (ev):

   -64.3981 -31.2121 -31.1706 -31.1706  -7.6228   3.9935   6.6897   6.6897

          k =-0.5000-1.0000 0.0000 (  1232 PWs)   bands (ev):

   -64.3980 -31.1918 -31.1918 -31.1721  -7.5602   5.1078   5.1078   6.2693

     highest occupied level (ev):     8.0185

!    total energy              =    -152.09670899 Ry
     Harris-Foulkes estimate   =    -152.09670899 Ry
     estimated scf accuracy    <          2.7E-09 Ry

     The total energy is the sum of the following terms:

     one-electron contribution =     -74.54902373 Ry
     hartree contribution      =      41.57605021 Ry
     xc contribution           =     -24.49204707 Ry
     ewald contribution        =     -94.63168840 Ry

     convergence has been achieved in   8 iterations

     Forces acting on atoms (cartesian axes, Ry/au):

     atom    1 type  1   force =     0.00000000   -0.00000000    0.00000000
     atom    2 type  2   force =    -0.00000000    0.00000000   -0.00000000

     Total force =     0.000000     Total SCF correction =     0.000000


     Computing stress (Cartesian axis) and pressure

          total   stress  (Ry/bohr**3)                   (kbar)     P=  -29.17
  -0.00019828  -0.00000000  -0.00000000        -29.17     -0.00     -0.00
  -0.00000000  -0.00019828   0.00000000         -0.00    -29.17      0.00
  -0.00000000   0.00000000  -0.00019828         -0.00      0.00    -29.17


     Writing output data file diamond.7.971.70.4.save
 
     init_run     :      0.02s CPU      0.03s WALL (       1 calls)
     electrons    :      0.18s CPU      0.19s WALL (       1 calls)
     forces       :      0.01s CPU      0.01s WALL (       1 calls)
     stress       :      0.01s CPU      0.01s WALL (       1 calls)

     Called by init_run:
     wfcinit      :      0.01s CPU      0.01s WALL (       1 calls)
     potinit      :      0.00s CPU      0.00s WALL (       1 calls)

     Called by electrons:
     c_bands      :      0.15s CPU      0.15s WALL (       8 calls)
     sum_band     :      0.02s CPU      0.02s WALL (       8 calls)
     v_of_rho     :      0.01s CPU      0.01s WALL (       9 calls)
     mix_rho      :      0.00s CPU      0.00s WALL (       8 calls)

     Called by c_bands:
     init_us_2    :      0.01s CPU      0.00s WALL (     152 calls)
     cegterg      :      0.13s CPU      0.14s WALL (      64 calls)

     Called by sum_band:

     Called by *egterg:
     h_psi        :      0.10s CPU      0.11s WALL (     196 calls)
     g_psi        :      0.00s CPU      0.00s WALL (     124 calls)
     cdiaghg      :      0.02s CPU      0.02s WALL (     188 calls)

     Called by h_psi:
     h_psi:pot    :      0.10s CPU      0.11s WALL (     196 calls)
     h_psi:calbec :      0.01s CPU      0.01s WALL (     196 calls)
     vloc_psi     :      0.09s CPU      0.10s WALL (     196 calls)
     add_vuspsi   :      0.00s CPU      0.00s WALL (     196 calls)

     General routines
     calbec       :      0.01s CPU      0.01s WALL (     236 calls)
     fft          :      0.00s CPU      0.01s WALL (     123 calls)
     fftw         :      0.10s CPU      0.11s WALL (    3236 calls)
     davcio       :      0.00s CPU      0.00s WALL (       8 calls)
 
     Parallel routines
     fft_scatter  :      0.03s CPU      0.04s WALL (    3359 calls)
 
     PWSCF        :     0.36s CPU         0.39s WALL

 
   This run was terminated on:  18:11:45  19Apr2018            

=------------------------------------------------------------------------------=
   JOB DONE.
=------------------------------------------------------------------------------=
