
     Program PWSCF v.6.1 (svn rev. 13369) starts on 19Apr2018 at 18:11:46 

     This program is part of the open-source Quantum ESPRESSO suite
     for quantum simulation of materials; please cite
         "P. Giannozzi et al., J. Phys.:Condens. Matter 21 395502 (2009);
          URL http://www.quantum-espresso.org", 
     in publications or presentations arising from this work. More details at
     http://www.quantum-espresso.org/quote

     Parallel version (MPI), running on     8 processors
     R & G space division:  proc/nbgrp/npool/nimage =       8
     Waiting for input...
     Reading input from standard input

     Current dimensions of program PWSCF are:
     Max number of different atomic species (ntypx) = 10
     Max number of k-points (npk) =  40000
     Max angular momentum in pseudopotentials (lmaxx) =  3

     Subspace diagonalization in iterative solution of the eigenvalue problem:
     a serial algorithm will be used

 
     Parallelization info
     --------------------
     sticks:   dense  smooth     PW     G-vecs:    dense   smooth      PW
     Min          75      75     23                 1247     1247     209
     Max          78      78     24                 1249     1249     212
     Sum         613     613    187                 9985     9985    1687
 


     bravais-lattice index     =            2
     lattice parameter (alat)  =       7.9800  a.u.
     unit-cell volume          =     127.0424 (a.u.)^3
     number of atoms/cell      =            2
     number of atomic types    =            2
     number of electrons       =        16.00
     number of Kohn-Sham states=            8
     kinetic-energy cutoff     =      70.0000  Ry
     charge density cutoff     =     280.0000  Ry
     convergence threshold     =      1.0E-08
     mixing beta               =       0.7000
     number of iterations used =            8  plain     mixing
     Exchange-correlation      = PBE ( 1  4  3  4 0 0)

     celldm(1)=   7.980000  celldm(2)=   0.000000  celldm(3)=   0.000000
     celldm(4)=   0.000000  celldm(5)=   0.000000  celldm(6)=   0.000000

     crystal axes: (cart. coord. in units of alat)
               a(1) = (  -0.500000   0.000000   0.500000 )  
               a(2) = (   0.000000   0.500000   0.500000 )  
               a(3) = (  -0.500000   0.500000   0.000000 )  

     reciprocal axes: (cart. coord. in units 2 pi/alat)
               b(1) = ( -1.000000 -1.000000  1.000000 )  
               b(2) = (  1.000000  1.000000  1.000000 )  
               b(3) = ( -1.000000  1.000000 -1.000000 )  


     PseudoPot. # 1 for Mg read from file:
     ../pseudo/Mg.pbe.UPF
     MD5 check sum: 4c04d8c6e0476e83eaecaf72fa8acc4d
     Pseudo is Norm-conserving, Zval = 10.0
     Generated using ONCVPSP code by D. R. Hamann
     Using radial grid of 1510 points,  4 beta functions with: 
                l(1) =   0
                l(2) =   0
                l(3) =   1
                l(4) =   1

     PseudoPot. # 2 for O  read from file:
     ../pseudo/O.pbe.UPF
     MD5 check sum: 3e3f909f7470e8921608ab6b1f57bbae
     Pseudo is Norm-conserving + core correction, Zval =  6.0
     Generated using ONCVPSP code by D. R. Hamann
     Using radial grid of  936 points,  5 beta functions with: 
                l(1) =   0
                l(2) =   0
                l(3) =   1
                l(4) =   1
                l(5) =   2

     atomic species   valence    mass     pseudopotential
        Mg            10.00    24.30500     Mg( 1.00)
        O              6.00    15.99940     O ( 1.00)

     48 Sym. Ops., with inversion, found



   Cartesian axes

     site n.     atom                  positions (alat units)
         1           Mg  tau(   1) = (   0.0000000   0.0000000   0.0000000  )
         2           O   tau(   2) = (   0.5000000   0.5000000   0.5000000  )

     number of k points=     8
                       cart. coord. in units 2pi/alat
        k(    1) = (   0.0000000   0.0000000   0.0000000), wk =   0.0312500
        k(    2) = (  -0.2500000   0.2500000  -0.2500000), wk =   0.2500000
        k(    3) = (   0.5000000  -0.5000000   0.5000000), wk =   0.1250000
        k(    4) = (   0.0000000   0.5000000   0.0000000), wk =   0.1875000
        k(    5) = (   0.7500000  -0.2500000   0.7500000), wk =   0.7500000
        k(    6) = (   0.5000000   0.0000000   0.5000000), wk =   0.3750000
        k(    7) = (   0.0000000  -1.0000000   0.0000000), wk =   0.0937500
        k(    8) = (  -0.5000000  -1.0000000   0.0000000), wk =   0.1875000

     Dense  grid:     9985 G-vectors     FFT dimensions: (  32,  32,  32)

     Estimated max dynamical RAM per process >       1.13MB

     Estimated total allocated dynamical RAM >       9.07MB

     Check: negative/imaginary core charge=   -0.000008    0.000000

     Initial potential from superposition of free atoms

     starting charge   15.99920, renormalised to   16.00000
     Starting wfc are    9 randomized atomic wfcs

     total cpu time spent up to now is        0.1 secs

     per-process dynamical memory:    31.8 Mb

     Self-consistent Calculation

     iteration #  1     ecut=    70.00 Ry     beta=0.70
     Davidson diagonalization with overlap
     ethr =  1.00E-02,  avg # of iterations =  2.0

     total cpu time spent up to now is        0.1 secs

     total energy              =    -151.93145848 Ry
     Harris-Foulkes estimate   =    -152.21039005 Ry
     estimated scf accuracy    <       0.38803038 Ry

     iteration #  2     ecut=    70.00 Ry     beta=0.70
     Davidson diagonalization with overlap
     ethr =  2.43E-03,  avg # of iterations =  2.4

     total cpu time spent up to now is        0.2 secs

     total energy              =    -152.03032008 Ry
     Harris-Foulkes estimate   =    -152.19371925 Ry
     estimated scf accuracy    <       0.33514321 Ry

     iteration #  3     ecut=    70.00 Ry     beta=0.70
     Davidson diagonalization with overlap
     ethr =  2.09E-03,  avg # of iterations =  2.0

     total cpu time spent up to now is        0.2 secs

     total energy              =    -152.09651847 Ry
     Harris-Foulkes estimate   =    -152.09664512 Ry
     estimated scf accuracy    <       0.00157279 Ry

     iteration #  4     ecut=    70.00 Ry     beta=0.70
     Davidson diagonalization with overlap
     ethr =  9.83E-06,  avg # of iterations =  2.0

     total cpu time spent up to now is        0.2 secs

     total energy              =    -152.09684380 Ry
     Harris-Foulkes estimate   =    -152.09685310 Ry
     estimated scf accuracy    <       0.00002437 Ry

     iteration #  5     ecut=    70.00 Ry     beta=0.70
     Davidson diagonalization with overlap
     ethr =  1.52E-07,  avg # of iterations =  1.1

     total cpu time spent up to now is        0.2 secs

     total energy              =    -152.09684535 Ry
     Harris-Foulkes estimate   =    -152.09684505 Ry
     estimated scf accuracy    <       0.00000268 Ry

     iteration #  6     ecut=    70.00 Ry     beta=0.70
     Davidson diagonalization with overlap
     ethr =  1.67E-08,  avg # of iterations =  2.0

     total cpu time spent up to now is        0.2 secs

     total energy              =    -152.09684580 Ry
     Harris-Foulkes estimate   =    -152.09684593 Ry
     estimated scf accuracy    <       0.00000029 Ry

     iteration #  7     ecut=    70.00 Ry     beta=0.70
     Davidson diagonalization with overlap
     ethr =  1.83E-09,  avg # of iterations =  2.0

     total cpu time spent up to now is        0.3 secs

     total energy              =    -152.09684580 Ry
     Harris-Foulkes estimate   =    -152.09684583 Ry
     estimated scf accuracy    <       0.00000005 Ry

     iteration #  8     ecut=    70.00 Ry     beta=0.70
     Davidson diagonalization with overlap
     ethr =  2.84E-10,  avg # of iterations =  2.0

     total cpu time spent up to now is        0.3 secs

     End of self-consistent calculation

          k = 0.0000 0.0000 0.0000 (  1243 PWs)   bands (ev):

   -64.4622 -31.1954 -31.1954 -31.1954  -9.1779   7.9774   7.9774   7.9774

          k =-0.2500 0.2500-0.2500 (  1260 PWs)   bands (ev):

   -64.4581 -31.2380 -31.2001 -31.2001  -8.5820   5.3480   7.6484   7.6484

          k = 0.5000-0.5000 0.5000 (  1260 PWs)   bands (ev):

   -64.4540 -31.2774 -31.2056 -31.2056  -7.8790   3.4150   7.3453   7.3453

          k = 0.0000 0.5000 0.0000 (  1283 PWs)   bands (ev):

   -64.4567 -31.2347 -31.2121 -31.2121  -8.4254   5.3799   7.2536   7.2536

          k = 0.7500-0.2500 0.7500 (  1247 PWs)   bands (ev):

   -64.4526 -31.2594 -31.2251 -31.2148  -7.7778   4.2171   6.0990   6.9809

          k = 0.5000 0.0000 0.5000 (  1264 PWs)   bands (ev):

   -64.4540 -31.2539 -31.2283 -31.2054  -7.9610   4.5232   6.0180   7.3445

          k = 0.0000-1.0000 0.0000 (  1234 PWs)   bands (ev):

   -64.4513 -31.2636 -31.2228 -31.2228  -7.6570   3.9658   6.6532   6.6532

          k =-0.5000-1.0000 0.0000 (  1232 PWs)   bands (ev):

   -64.4513 -31.2436 -31.2436 -31.2241  -7.5951   5.0770   5.0770   6.2342

     highest occupied level (ev):     7.9774

!    total energy              =    -152.09684581 Ry
     Harris-Foulkes estimate   =    -152.09684581 Ry
     estimated scf accuracy    <          2.5E-09 Ry

     The total energy is the sum of the following terms:

     one-electron contribution =     -74.71408285 Ry
     hartree contribution      =      41.63068328 Ry
     xc contribution           =     -24.48848531 Ry
     ewald contribution        =     -94.52496094 Ry

     convergence has been achieved in   8 iterations

     Forces acting on atoms (cartesian axes, Ry/au):

     atom    1 type  1   force =     0.00000000   -0.00000000    0.00000000
     atom    2 type  2   force =     0.00000000    0.00000000   -0.00000000

     Total force =     0.000000     Total SCF correction =     0.000000


     Computing stress (Cartesian axis) and pressure

          total   stress  (Ry/bohr**3)                   (kbar)     P=  -34.03
  -0.00023133  -0.00000000   0.00000000        -34.03     -0.00      0.00
  -0.00000000  -0.00023133   0.00000000         -0.00    -34.03      0.00
   0.00000000   0.00000000  -0.00023133          0.00      0.00    -34.03


     Writing output data file diamond.7.980.70.4.save
 
     init_run     :      0.02s CPU      0.03s WALL (       1 calls)
     electrons    :      0.15s CPU      0.17s WALL (       1 calls)
     forces       :      0.01s CPU      0.01s WALL (       1 calls)
     stress       :      0.01s CPU      0.02s WALL (       1 calls)

     Called by init_run:
     wfcinit      :      0.01s CPU      0.01s WALL (       1 calls)
     potinit      :      0.00s CPU      0.00s WALL (       1 calls)

     Called by electrons:
     c_bands      :      0.12s CPU      0.13s WALL (       8 calls)
     sum_band     :      0.02s CPU      0.02s WALL (       8 calls)
     v_of_rho     :      0.01s CPU      0.01s WALL (       9 calls)
     mix_rho      :      0.00s CPU      0.00s WALL (       8 calls)

     Called by c_bands:
     init_us_2    :      0.00s CPU      0.00s WALL (     152 calls)
     cegterg      :      0.11s CPU      0.12s WALL (      64 calls)

     Called by sum_band:

     Called by *egterg:
     h_psi        :      0.08s CPU      0.09s WALL (     196 calls)
     g_psi        :      0.00s CPU      0.00s WALL (     124 calls)
     cdiaghg      :      0.02s CPU      0.02s WALL (     188 calls)

     Called by h_psi:
     h_psi:pot    :      0.08s CPU      0.09s WALL (     196 calls)
     h_psi:calbec :      0.01s CPU      0.01s WALL (     196 calls)
     vloc_psi     :      0.07s CPU      0.08s WALL (     196 calls)
     add_vuspsi   :      0.00s CPU      0.00s WALL (     196 calls)

     General routines
     calbec       :      0.01s CPU      0.01s WALL (     236 calls)
     fft          :      0.01s CPU      0.01s WALL (     123 calls)
     fftw         :      0.08s CPU      0.09s WALL (    3224 calls)
     davcio       :      0.00s CPU      0.00s WALL (       8 calls)
 
     Parallel routines
     fft_scatter  :      0.04s CPU      0.04s WALL (    3347 calls)
 
     PWSCF        :     0.33s CPU         0.37s WALL

 
   This run was terminated on:  18:11:47  19Apr2018            

=------------------------------------------------------------------------------=
   JOB DONE.
=------------------------------------------------------------------------------=
