
     Program PWSCF v.6.1 (svn rev. 13369) starts on 19Apr2018 at 15: 6: 2 

     This program is part of the open-source Quantum ESPRESSO suite
     for quantum simulation of materials; please cite
         "P. Giannozzi et al., J. Phys.:Condens. Matter 21 395502 (2009);
          URL http://www.quantum-espresso.org", 
     in publications or presentations arising from this work. More details at
     http://www.quantum-espresso.org/quote

     Parallel version (MPI), running on     8 processors
     R & G space division:  proc/nbgrp/npool/nimage =       8
     Waiting for input...
     Reading input from standard input

     Current dimensions of program PWSCF are:
     Max number of different atomic species (ntypx) = 10
     Max number of k-points (npk) =  40000
     Max angular momentum in pseudopotentials (lmaxx) =  3

     Subspace diagonalization in iterative solution of the eigenvalue problem:
     a serial algorithm will be used

 
     Parallelization info
     --------------------
     sticks:   dense  smooth     PW     G-vecs:    dense   smooth      PW
     Min         185     185     54                 5437     5437     856
     Max         186     186     55                 5442     5442     859
     Sum        1481    1481    437                43507    43507    6859
 


     bravais-lattice index     =            8
     lattice parameter (alat)  =       8.1900  a.u.
     unit-cell volume          =     549.3533 (a.u.)^3
     number of atoms/cell      =            2
     number of atomic types    =            2
     number of electrons       =        16.00
     number of Kohn-Sham states=            8
     kinetic-energy cutoff     =      70.0000  Ry
     charge density cutoff     =     280.0000  Ry
     convergence threshold     =      1.0E-08
     mixing beta               =       0.7000
     number of iterations used =            8  plain     mixing
     Exchange-correlation      = PBE ( 1  4  3  4 0 0)

     celldm(1)=   8.190000  celldm(2)=   1.000000  celldm(3)=   1.000000
     celldm(4)=   0.000000  celldm(5)=   0.000000  celldm(6)=   0.000000

     crystal axes: (cart. coord. in units of alat)
               a(1) = (   1.000000   0.000000   0.000000 )  
               a(2) = (   0.000000   1.000000   0.000000 )  
               a(3) = (   0.000000   0.000000   1.000000 )  

     reciprocal axes: (cart. coord. in units 2 pi/alat)
               b(1) = (  1.000000  0.000000  0.000000 )  
               b(2) = (  0.000000  1.000000  0.000000 )  
               b(3) = (  0.000000  0.000000  1.000000 )  


     PseudoPot. # 1 for Mg read from file:
     ../pseudo/Mg.pbe.UPF
     MD5 check sum: 4c04d8c6e0476e83eaecaf72fa8acc4d
     Pseudo is Norm-conserving, Zval = 10.0
     Generated using ONCVPSP code by D. R. Hamann
     Using radial grid of 1510 points,  4 beta functions with: 
                l(1) =   0
                l(2) =   0
                l(3) =   1
                l(4) =   1

     PseudoPot. # 2 for O  read from file:
     ../pseudo/O.pbe.UPF
     MD5 check sum: 3e3f909f7470e8921608ab6b1f57bbae
     Pseudo is Norm-conserving + core correction, Zval =  6.0
     Generated using ONCVPSP code by D. R. Hamann
     Using radial grid of  936 points,  5 beta functions with: 
                l(1) =   0
                l(2) =   0
                l(3) =   1
                l(4) =   1
                l(5) =   2

     atomic species   valence    mass     pseudopotential
        Mg            10.00    24.30500     Mg( 1.00)
        O              6.00    15.99940     O ( 1.00)

     48 Sym. Ops., with inversion, found



   Cartesian axes

     site n.     atom                  positions (alat units)
         1           Mg  tau(   1) = (   0.0000000   0.0000000   0.0000000  )
         2           O   tau(   2) = (   0.5000000   0.5000000   0.5000000  )

     number of k points=    10
                       cart. coord. in units 2pi/alat
        k(    1) = (   0.0000000   0.0000000   0.0000000), wk =   0.0312500
        k(    2) = (   0.0000000   0.0000000   0.2500000), wk =   0.1875000
        k(    3) = (   0.0000000   0.0000000  -0.5000000), wk =   0.0937500
        k(    4) = (   0.0000000   0.2500000   0.2500000), wk =   0.3750000
        k(    5) = (   0.0000000   0.2500000  -0.5000000), wk =   0.3750000
        k(    6) = (   0.0000000  -0.5000000  -0.5000000), wk =   0.0937500
        k(    7) = (   0.2500000   0.2500000   0.2500000), wk =   0.2500000
        k(    8) = (   0.2500000   0.2500000  -0.5000000), wk =   0.3750000
        k(    9) = (   0.2500000  -0.5000000  -0.5000000), wk =   0.1875000
        k(   10) = (  -0.5000000  -0.5000000  -0.5000000), wk =   0.0312500

     Dense  grid:    43507 G-vectors     FFT dimensions: (  45,  45,  45)

     Estimated max dynamical RAM per process >       4.59MB

     Estimated total allocated dynamical RAM >      36.72MB

     Check: negative/imaginary core charge=   -0.000003    0.000000

     Initial potential from superposition of free atoms

     starting charge   15.99920, renormalised to   16.00000
     Starting wfc are    9 randomized atomic wfcs

     total cpu time spent up to now is        0.2 secs

     per-process dynamical memory:    30.9 Mb

     Self-consistent Calculation

     iteration #  1     ecut=    70.00 Ry     beta=0.70
     Davidson diagonalization with overlap
     ethr =  1.00E-02,  avg # of iterations =  1.9

     total cpu time spent up to now is        0.3 secs

     total energy              =    -150.38245355 Ry
     Harris-Foulkes estimate   =    -151.88186624 Ry
     estimated scf accuracy    <       1.88656886 Ry

     iteration #  2     ecut=    70.00 Ry     beta=0.70
     Davidson diagonalization with overlap
     ethr =  1.00E-02,  avg # of iterations =  5.2

     total cpu time spent up to now is        0.5 secs

     total energy              =    -150.13045535 Ry
     Harris-Foulkes estimate   =    -154.69822920 Ry
     estimated scf accuracy    <      16.07237052 Ry

     iteration #  3     ecut=    70.00 Ry     beta=0.70
     Davidson diagonalization with overlap
     ethr =  1.00E-02,  avg # of iterations =  4.3

     total cpu time spent up to now is        0.6 secs

     total energy              =    -151.48066630 Ry
     Harris-Foulkes estimate   =    -151.34764807 Ry
     estimated scf accuracy    <       0.59409914 Ry

     iteration #  4     ecut=    70.00 Ry     beta=0.70
     Davidson diagonalization with overlap
     ethr =  3.71E-03,  avg # of iterations =  1.6

     total cpu time spent up to now is        0.7 secs

     total energy              =    -151.08616062 Ry
     Harris-Foulkes estimate   =    -151.50279861 Ry
     estimated scf accuracy    <       1.23153621 Ry

     iteration #  5     ecut=    70.00 Ry     beta=0.70
     Davidson diagonalization with overlap
     ethr =  3.71E-03,  avg # of iterations =  2.6

     total cpu time spent up to now is        0.8 secs

     total energy              =    -151.24784423 Ry
     Harris-Foulkes estimate   =    -151.25006954 Ry
     estimated scf accuracy    <       0.03847909 Ry

     iteration #  6     ecut=    70.00 Ry     beta=0.70
     Davidson diagonalization with overlap
     ethr =  2.40E-04,  avg # of iterations =  1.0

     total cpu time spent up to now is        0.9 secs

     total energy              =    -151.24497956 Ry
     Harris-Foulkes estimate   =    -151.24817524 Ry
     estimated scf accuracy    <       0.03388384 Ry

     iteration #  7     ecut=    70.00 Ry     beta=0.70
     Davidson diagonalization with overlap
     ethr =  2.12E-04,  avg # of iterations =  1.0

     total cpu time spent up to now is        1.0 secs

     total energy              =    -151.24373418 Ry
     Harris-Foulkes estimate   =    -151.24520189 Ry
     estimated scf accuracy    <       0.02481964 Ry

     iteration #  8     ecut=    70.00 Ry     beta=0.70
     Davidson diagonalization with overlap
     ethr =  1.55E-04,  avg # of iterations =  1.0

     total cpu time spent up to now is        1.1 secs

     total energy              =    -151.24261312 Ry
     Harris-Foulkes estimate   =    -151.24380652 Ry
     estimated scf accuracy    <       0.02121588 Ry

     iteration #  9     ecut=    70.00 Ry     beta=0.70
     Davidson diagonalization with overlap
     ethr =  1.33E-04,  avg # of iterations =  1.0

     total cpu time spent up to now is        1.1 secs

     total energy              =    -151.24216115 Ry
     Harris-Foulkes estimate   =    -151.24267391 Ry
     estimated scf accuracy    <       0.01775103 Ry

     iteration # 10     ecut=    70.00 Ry     beta=0.70
     Davidson diagonalization with overlap
     ethr =  1.11E-04,  avg # of iterations =  1.0

     total cpu time spent up to now is        1.2 secs

     total energy              =    -151.23406148 Ry
     Harris-Foulkes estimate   =    -151.24217915 Ry
     estimated scf accuracy    <       0.01641842 Ry

     iteration # 11     ecut=    70.00 Ry     beta=0.70
     Davidson diagonalization with overlap
     ethr =  1.03E-04,  avg # of iterations =  2.0

     total cpu time spent up to now is        1.3 secs

     total energy              =    -151.23582116 Ry
     Harris-Foulkes estimate   =    -151.23621729 Ry
     estimated scf accuracy    <       0.00132887 Ry

     iteration # 12     ecut=    70.00 Ry     beta=0.70
     Davidson diagonalization with overlap
     ethr =  8.31E-06,  avg # of iterations =  3.4

     total cpu time spent up to now is        1.4 secs

     total energy              =    -151.24840070 Ry
     Harris-Foulkes estimate   =    -151.25649916 Ry
     estimated scf accuracy    <       0.00929511 Ry

     iteration # 13     ecut=    70.00 Ry     beta=0.70
     Davidson diagonalization with overlap
     ethr =  8.31E-06,  avg # of iterations =  4.2

     total cpu time spent up to now is        1.6 secs

     total energy              =    -151.33290334 Ry
     Harris-Foulkes estimate   =    -151.33100415 Ry
     estimated scf accuracy    <       0.00679439 Ry

     iteration # 14     ecut=    70.00 Ry     beta=0.70
     Davidson diagonalization with overlap
     ethr =  8.31E-06,  avg # of iterations =  2.1

     total cpu time spent up to now is        1.7 secs

     total energy              =    -151.33301006 Ry
     Harris-Foulkes estimate   =    -151.33312781 Ry
     estimated scf accuracy    <       0.00961350 Ry

     iteration # 15     ecut=    70.00 Ry     beta=0.70
     Davidson diagonalization with overlap
     ethr =  8.31E-06,  avg # of iterations =  1.0

     total cpu time spent up to now is        1.7 secs

     total energy              =    -151.33325377 Ry
     Harris-Foulkes estimate   =    -151.33301458 Ry
     estimated scf accuracy    <       0.00948126 Ry

     iteration # 16     ecut=    70.00 Ry     beta=0.70
     Davidson diagonalization with overlap
     ethr =  8.31E-06,  avg # of iterations =  1.7

     total cpu time spent up to now is        1.8 secs

     total energy              =    -151.39796700 Ry
     Harris-Foulkes estimate   =    -151.39285041 Ry
     estimated scf accuracy    <       0.04819357 Ry

     iteration # 17     ecut=    70.00 Ry     beta=0.70
     Davidson diagonalization with overlap
     ethr =  8.31E-06,  avg # of iterations =  2.8

     total cpu time spent up to now is        1.9 secs

     total energy              =    -151.48806389 Ry
     Harris-Foulkes estimate   =    -151.51628329 Ry
     estimated scf accuracy    <       0.25804028 Ry

     iteration # 18     ecut=    70.00 Ry     beta=0.70
     Davidson diagonalization with overlap
     ethr =  8.31E-06,  avg # of iterations =  3.3

     total cpu time spent up to now is        2.1 secs

     total energy              =    -151.50453062 Ry
     Harris-Foulkes estimate   =    -151.48929962 Ry
     estimated scf accuracy    <       0.18080842 Ry

     iteration # 19     ecut=    70.00 Ry     beta=0.70
     Davidson diagonalization with overlap
     ethr =  8.31E-06,  avg # of iterations =  2.6

     total cpu time spent up to now is        2.2 secs

     total energy              =    -151.50155625 Ry
     Harris-Foulkes estimate   =    -151.50504157 Ry
     estimated scf accuracy    <       0.22650416 Ry

     iteration # 20     ecut=    70.00 Ry     beta=0.70
     Davidson diagonalization with overlap
     ethr =  8.31E-06,  avg # of iterations =  1.1

     total cpu time spent up to now is        2.2 secs

     total energy              =    -151.49607711 Ry
     Harris-Foulkes estimate   =    -151.50157889 Ry
     estimated scf accuracy    <       0.21735346 Ry

     iteration # 21     ecut=    70.00 Ry     beta=0.70
     Davidson diagonalization with overlap
     ethr =  8.31E-06,  avg # of iterations =  1.9

     total cpu time spent up to now is        2.3 secs

     total energy              =    -151.47800775 Ry
     Harris-Foulkes estimate   =    -151.49615094 Ry
     estimated scf accuracy    <       0.20067693 Ry

     iteration # 22     ecut=    70.00 Ry     beta=0.70
     Davidson diagonalization with overlap
     ethr =  8.31E-06,  avg # of iterations =  2.7

     total cpu time spent up to now is        2.4 secs

     total energy              =    -151.46282644 Ry
     Harris-Foulkes estimate   =    -151.47874784 Ry
     estimated scf accuracy    <       0.14880443 Ry

     iteration # 23     ecut=    70.00 Ry     beta=0.70
     Davidson diagonalization with overlap
     ethr =  8.31E-06,  avg # of iterations =  3.3

     total cpu time spent up to now is        2.6 secs

     total energy              =    -151.53724310 Ry
     Harris-Foulkes estimate   =    -151.53897018 Ry
     estimated scf accuracy    <       0.31006046 Ry

     iteration # 24     ecut=    70.00 Ry     beta=0.70
     Davidson diagonalization with overlap
     ethr =  8.31E-06,  avg # of iterations =  1.0

     total cpu time spent up to now is        2.6 secs

     total energy              =    -151.56569837 Ry
     Harris-Foulkes estimate   =    -151.53724981 Ry
     estimated scf accuracy    <       0.30482965 Ry

     iteration # 25     ecut=    70.00 Ry     beta=0.70
     Davidson diagonalization with overlap
     ethr =  8.31E-06,  avg # of iterations =  3.6

     total cpu time spent up to now is        2.8 secs

     total energy              =    -151.64746904 Ry
     Harris-Foulkes estimate   =    -151.63534905 Ry
     estimated scf accuracy    <       0.75990075 Ry

     iteration # 26     ecut=    70.00 Ry     beta=0.70
     Davidson diagonalization with overlap
     ethr =  8.31E-06,  avg # of iterations =  2.1

     total cpu time spent up to now is        2.8 secs

     total energy              =    -151.68768736 Ry
     Harris-Foulkes estimate   =    -151.64756734 Ry
     estimated scf accuracy    <       0.80200151 Ry

     iteration # 27     ecut=    70.00 Ry     beta=0.70
     Davidson diagonalization with overlap
     ethr =  8.31E-06,  avg # of iterations =  3.2

     total cpu time spent up to now is        3.0 secs

     total energy              =    -151.71076710 Ry
     Harris-Foulkes estimate   =    -151.70158102 Ry
     estimated scf accuracy    <       0.99044388 Ry

     iteration # 28     ecut=    70.00 Ry     beta=0.70
     Davidson diagonalization with overlap
     ethr =  8.31E-06,  avg # of iterations =  1.5

     total cpu time spent up to now is        3.0 secs

     total energy              =    -151.71039001 Ry
     Harris-Foulkes estimate   =    -151.71081090 Ry
     estimated scf accuracy    <       1.02005735 Ry

     iteration # 29     ecut=    70.00 Ry     beta=0.70
     Davidson diagonalization with overlap
     ethr =  8.31E-06,  avg # of iterations =  1.0

     total cpu time spent up to now is        3.1 secs

     total energy              =    -151.70356272 Ry
     Harris-Foulkes estimate   =    -151.71039477 Ry
     estimated scf accuracy    <       1.01851302 Ry

     iteration # 30     ecut=    70.00 Ry     beta=0.70
     Davidson diagonalization with overlap
     ethr =  8.31E-06,  avg # of iterations =  1.1

     total cpu time spent up to now is        3.2 secs

     total energy              =    -151.70026901 Ry
     Harris-Foulkes estimate   =    -151.70358742 Ry
     estimated scf accuracy    <       0.99777214 Ry

     iteration # 31     ecut=    70.00 Ry     beta=0.70
     Davidson diagonalization with overlap
     ethr =  8.31E-06,  avg # of iterations =  1.0

     total cpu time spent up to now is        3.3 secs

     total energy              =    -151.90122420 Ry
     Harris-Foulkes estimate   =    -151.70028164 Ry
     estimated scf accuracy    <       0.98694975 Ry

     iteration # 32     ecut=    70.00 Ry     beta=0.70
     Davidson diagonalization with overlap
     ethr =  8.31E-06,  avg # of iterations =  4.0

     total cpu time spent up to now is        3.4 secs

     total energy              =    -151.99057981 Ry
     Harris-Foulkes estimate   =    -151.97304210 Ry
     estimated scf accuracy    <       1.91597231 Ry

     iteration # 33     ecut=    70.00 Ry     beta=0.70
     Davidson diagonalization with overlap
     ethr =  8.31E-06,  avg # of iterations =  1.9

     total cpu time spent up to now is        3.5 secs

     total energy              =    -151.19246302 Ry
     Harris-Foulkes estimate   =    -151.99065163 Ry
     estimated scf accuracy    <       1.96026296 Ry

     iteration # 34     ecut=    70.00 Ry     beta=0.70
     Davidson diagonalization with overlap
     ethr =  8.31E-06,  avg # of iterations =  5.1

     total cpu time spent up to now is        3.7 secs

     total energy              =    -151.43571161 Ry
     Harris-Foulkes estimate   =    -151.52060524 Ry
     estimated scf accuracy    <       0.25842819 Ry

     iteration # 35     ecut=    70.00 Ry     beta=0.70
     Davidson diagonalization with overlap
     ethr =  8.31E-06,  avg # of iterations =  5.6

     total cpu time spent up to now is        3.8 secs

     total energy              =    -151.52363608 Ry
     Harris-Foulkes estimate   =    -151.52061590 Ry
     estimated scf accuracy    <       0.19323143 Ry

     iteration # 36     ecut=    70.00 Ry     beta=0.70
     Davidson diagonalization with overlap
     ethr =  8.31E-06,  avg # of iterations =  1.8

     total cpu time spent up to now is        3.9 secs

     total energy              =    -151.50925214 Ry
     Harris-Foulkes estimate   =    -151.52372640 Ry
     estimated scf accuracy    <       0.19867186 Ry

     iteration # 37     ecut=    70.00 Ry     beta=0.70
     Davidson diagonalization with overlap
     ethr =  8.31E-06,  avg # of iterations =  3.4

     total cpu time spent up to now is        4.0 secs

     total energy              =    -151.50841328 Ry
     Harris-Foulkes estimate   =    -151.51052002 Ry
     estimated scf accuracy    <       0.11055569 Ry

     iteration # 38     ecut=    70.00 Ry     beta=0.70
     Davidson diagonalization with overlap
     ethr =  8.31E-06,  avg # of iterations =  2.0

     total cpu time spent up to now is        4.1 secs

     total energy              =    -151.48622005 Ry
     Harris-Foulkes estimate   =    -151.50853164 Ry
     estimated scf accuracy    <       0.10808756 Ry

     iteration # 39     ecut=    70.00 Ry     beta=0.70
     Davidson diagonalization with overlap
     ethr =  8.31E-06,  avg # of iterations =  3.9

     total cpu time spent up to now is        4.2 secs

     total energy              =    -151.49614507 Ry
     Harris-Foulkes estimate   =    -151.49622650 Ry
     estimated scf accuracy    <       0.00041707 Ry

     iteration # 40     ecut=    70.00 Ry     beta=0.70
     Davidson diagonalization with overlap
     ethr =  2.61E-06,  avg # of iterations =  1.8

     total cpu time spent up to now is        4.3 secs

     total energy              =    -151.49632839 Ry
     Harris-Foulkes estimate   =    -151.49615931 Ry
     estimated scf accuracy    <       0.00010792 Ry

     iteration # 41     ecut=    70.00 Ry     beta=0.70
     Davidson diagonalization with overlap
     ethr =  6.75E-07,  avg # of iterations =  4.4

     total cpu time spent up to now is        4.4 secs

     total energy              =    -151.49523528 Ry
     Harris-Foulkes estimate   =    -151.49717391 Ry
     estimated scf accuracy    <       0.00908325 Ry

     iteration # 42     ecut=    70.00 Ry     beta=0.70
     Davidson diagonalization with overlap
     ethr =  6.75E-07,  avg # of iterations =  4.2

     total cpu time spent up to now is        4.6 secs

     total energy              =    -151.49613986 Ry
     Harris-Foulkes estimate   =    -151.49614423 Ry
     estimated scf accuracy    <       0.00001013 Ry

     iteration # 43     ecut=    70.00 Ry     beta=0.70
     Davidson diagonalization with overlap
     ethr =  6.33E-08,  avg # of iterations =  3.6

     total cpu time spent up to now is        4.7 secs

     total energy              =    -151.49614012 Ry
     Harris-Foulkes estimate   =    -151.49614357 Ry
     estimated scf accuracy    <       0.00001492 Ry

     iteration # 44     ecut=    70.00 Ry     beta=0.70
     Davidson diagonalization with overlap
     ethr =  6.33E-08,  avg # of iterations =  3.1

     total cpu time spent up to now is        4.8 secs

     total energy              =    -151.49614213 Ry
     Harris-Foulkes estimate   =    -151.49614237 Ry
     estimated scf accuracy    <       0.00000098 Ry

     iteration # 45     ecut=    70.00 Ry     beta=0.70
     Davidson diagonalization with overlap
     ethr =  6.11E-09,  avg # of iterations =  2.6

     total cpu time spent up to now is        4.9 secs

     total energy              =    -151.49857519 Ry
     Harris-Foulkes estimate   =    -151.49859087 Ry
     estimated scf accuracy    <       0.00473460 Ry

     iteration # 46     ecut=    70.00 Ry     beta=0.70
     Davidson diagonalization with overlap
     ethr =  6.11E-09,  avg # of iterations =  2.7

     total cpu time spent up to now is        5.0 secs

     total energy              =    -151.49850239 Ry
     Harris-Foulkes estimate   =    -151.49857536 Ry
     estimated scf accuracy    <       0.00456550 Ry

     iteration # 47     ecut=    70.00 Ry     beta=0.70
     Davidson diagonalization with overlap
     ethr =  6.11E-09,  avg # of iterations =  3.5

     total cpu time spent up to now is        5.1 secs

     total energy              =    -151.49851092 Ry
     Harris-Foulkes estimate   =    -151.49850453 Ry
     estimated scf accuracy    <       0.00395045 Ry

     iteration # 48     ecut=    70.00 Ry     beta=0.70
     Davidson diagonalization with overlap
     ethr =  6.11E-09,  avg # of iterations =  1.0

     total cpu time spent up to now is        5.2 secs

     total energy              =    -151.49831001 Ry
     Harris-Foulkes estimate   =    -151.49851093 Ry
     estimated scf accuracy    <       0.00397959 Ry

     iteration # 49     ecut=    70.00 Ry     beta=0.70
     Davidson diagonalization with overlap
     ethr =  6.11E-09,  avg # of iterations =  4.5

     total cpu time spent up to now is        5.3 secs

     total energy              =    -151.49761273 Ry
     Harris-Foulkes estimate   =    -151.49832836 Ry
     estimated scf accuracy    <       0.00241797 Ry

     iteration # 50     ecut=    70.00 Ry     beta=0.70
     Davidson diagonalization with overlap
     ethr =  6.11E-09,  avg # of iterations =  5.4

     total cpu time spent up to now is        5.5 secs

     total energy              =    -151.49789006 Ry
     Harris-Foulkes estimate   =    -151.49811097 Ry
     estimated scf accuracy    <       0.00051808 Ry

     iteration # 51     ecut=    70.00 Ry     beta=0.70
     Davidson diagonalization with overlap
     ethr =  6.11E-09,  avg # of iterations =  5.3

     total cpu time spent up to now is        5.6 secs

     total energy              =    -151.49812609 Ry
     Harris-Foulkes estimate   =    -151.49814817 Ry
     estimated scf accuracy    <       0.00084328 Ry

     iteration # 52     ecut=    70.00 Ry     beta=0.70
     Davidson diagonalization with overlap
     ethr =  6.11E-09,  avg # of iterations =  3.4

     total cpu time spent up to now is        5.7 secs

     total energy              =    -151.49800655 Ry
     Harris-Foulkes estimate   =    -151.49812708 Ry
     estimated scf accuracy    <       0.00066627 Ry

     iteration # 53     ecut=    70.00 Ry     beta=0.70
     Davidson diagonalization with overlap
     ethr =  6.11E-09,  avg # of iterations =  4.6

     total cpu time spent up to now is        5.9 secs

     total energy              =    -151.49804833 Ry
     Harris-Foulkes estimate   =    -151.49805186 Ry
     estimated scf accuracy    <       0.00001666 Ry

     iteration # 54     ecut=    70.00 Ry     beta=0.70
     Davidson diagonalization with overlap
     ethr =  6.11E-09,  avg # of iterations =  3.4

     total cpu time spent up to now is        6.0 secs

     End of self-consistent calculation

          k = 0.0000 0.0000 0.0000 (  5449 PWs)   bands (ev):

   -79.1547 -45.8551 -45.8551 -45.8551 -15.9145  -2.7864  -1.3002  -1.3002

          k = 0.0000 0.0000 0.2500 (  5430 PWs)   bands (ev):

   -79.1547 -45.8546 -45.8546 -45.8545 -15.9065  -2.7828  -1.2626  -1.2626

          k = 0.0000 0.0000-0.5000 (  5406 PWs)   bands (ev):

   -79.1547 -45.8543 -45.8542 -45.8542 -15.8985  -2.8102  -1.2242  -1.2242

          k = 0.0000 0.2500 0.2500 (  5421 PWs)   bands (ev):

   -79.1547 -45.8546 -45.8545 -45.8543 -15.8990  -2.5919  -1.5503  -1.2314

          k = 0.0000 0.2500-0.5000 (  5432 PWs)   bands (ev):

   -79.1547 -45.8549 -45.8549 -45.8543 -15.8915  -2.4491  -1.5549  -1.1997

          k = 0.0000-0.5000-0.5000 (  5440 PWs)   bands (ev):

   -79.1547 -45.8550 -45.8550 -45.8545 -15.8845  -1.8039  -1.8039  -1.1749

          k = 0.2500 0.2500 0.2500 (  5440 PWs)   bands (ev):

   -79.1547 -45.8549 -45.8549 -45.8544 -15.8919  -2.3545  -1.4692  -1.4692

          k = 0.2500 0.2500-0.5000 (  5456 PWs)   bands (ev):

   -79.1547 -45.8552 -45.8551 -45.8546 -15.8849  -2.1364  -1.5355  -1.3840

          k = 0.2500-0.5000-0.5000 (  5452 PWs)   bands (ev):

   -79.1547 -45.8549 -45.8549 -45.8548 -15.8782  -1.6791  -1.6791  -1.3670

          k =-0.5000-0.5000-0.5000 (  5520 PWs)   bands (ev):

   -79.1547 -45.8561 -45.8561 -45.8561 -15.8718  -1.5418  -1.5418  -1.5418

     highest occupied level (ev):    -1.1749

!    total energy              =    -151.49804993 Ry
     Harris-Foulkes estimate   =    -151.49804993 Ry
     estimated scf accuracy    <          2.1E-10 Ry

     The total energy is the sum of the following terms:

     one-electron contribution =    -132.22128484 Ry
     hartree contribution      =      63.18753863 Ry
     xc contribution           =     -23.59925200 Ry
     ewald contribution        =     -58.86505172 Ry

     convergence has been achieved in  54 iterations

     Forces acting on atoms (cartesian axes, Ry/au):

     atom    1 type  1   force =     0.00000000    0.00000000    0.00000000
     atom    2 type  2   force =     0.00000000    0.00000000   -0.00000000

     Total force =     0.000000     Total SCF correction =     0.000000


     Computing stress (Cartesian axis) and pressure

          total   stress  (Ry/bohr**3)                   (kbar)     P= -105.01
  -0.00071388   0.00000000   0.00000000       -105.01      0.00      0.00
   0.00000000  -0.00071388   0.00000000          0.00   -105.01      0.00
   0.00000000   0.00000000  -0.00071388          0.00      0.00   -105.01


     Writing output data file diamond.8.19.70.4.save
 
     init_run     :      0.10s CPU      0.11s WALL (       1 calls)
     electrons    :      5.63s CPU      5.76s WALL (       1 calls)
     forces       :      0.02s CPU      0.02s WALL (       1 calls)
     stress       :      0.06s CPU      0.06s WALL (       1 calls)

     Called by init_run:
     wfcinit      :      0.03s CPU      0.04s WALL (       1 calls)
     potinit      :      0.01s CPU      0.01s WALL (       1 calls)

     Called by electrons:
     c_bands      :      4.44s CPU      4.54s WALL (      54 calls)
     sum_band     :      0.82s CPU      0.84s WALL (      54 calls)
     v_of_rho     :      0.28s CPU      0.29s WALL (      55 calls)
     mix_rho      :      0.08s CPU      0.08s WALL (      54 calls)

     Called by c_bands:
     init_us_2    :      0.19s CPU      0.17s WALL (    1110 calls)
     cegterg      :      4.01s CPU      4.11s WALL (     540 calls)

     Called by sum_band:

     Called by *egterg:
     h_psi        :      3.35s CPU      3.43s WALL (    2034 calls)
     g_psi        :      0.02s CPU      0.03s WALL (    1484 calls)
     cdiaghg      :      0.24s CPU      0.25s WALL (    2024 calls)

     Called by h_psi:
     h_psi:pot    :      3.33s CPU      3.41s WALL (    2034 calls)
     h_psi:calbec :      0.16s CPU      0.14s WALL (    2034 calls)
     vloc_psi     :      3.11s CPU      3.19s WALL (    2034 calls)
     add_vuspsi   :      0.06s CPU      0.08s WALL (    2034 calls)

     General routines
     calbec       :      0.16s CPU      0.14s WALL (    2084 calls)
     fft          :      0.13s CPU      0.14s WALL (     629 calls)
     fftw         :      3.56s CPU      3.49s WALL (   27010 calls)
     davcio       :      0.00s CPU      0.00s WALL (      10 calls)
 
     Parallel routines
     fft_scatter  :      0.91s CPU      0.97s WALL (   27639 calls)
 
     PWSCF        :     5.99s CPU         6.16s WALL

 
   This run was terminated on:  15: 6: 8  19Apr2018            

=------------------------------------------------------------------------------=
   JOB DONE.
=------------------------------------------------------------------------------=
