
     Program PWSCF v.6.1 (svn rev. 13369) starts on 19Apr2018 at 15: 5:21 

     This program is part of the open-source Quantum ESPRESSO suite
     for quantum simulation of materials; please cite
         "P. Giannozzi et al., J. Phys.:Condens. Matter 21 395502 (2009);
          URL http://www.quantum-espresso.org", 
     in publications or presentations arising from this work. More details at
     http://www.quantum-espresso.org/quote

     Parallel version (MPI), running on     8 processors
     R & G space division:  proc/nbgrp/npool/nimage =       8
     Waiting for input...
     Reading input from standard input

     Current dimensions of program PWSCF are:
     Max number of different atomic species (ntypx) = 10
     Max number of k-points (npk) =  40000
     Max angular momentum in pseudopotentials (lmaxx) =  3

     Subspace diagonalization in iterative solution of the eigenvalue problem:
     a serial algorithm will be used

 
     Parallelization info
     --------------------
     sticks:   dense  smooth     PW     G-vecs:    dense   smooth      PW
     Min         171     171     50                 4799     4799     754
     Max         172     172     51                 4802     4802     757
     Sum        1369    1369    405                38401    38401    6043
 


     bravais-lattice index     =            8
     lattice parameter (alat)  =       7.8500  a.u.
     unit-cell volume          =     483.7366 (a.u.)^3
     number of atoms/cell      =            2
     number of atomic types    =            2
     number of electrons       =        16.00
     number of Kohn-Sham states=            8
     kinetic-energy cutoff     =      70.0000  Ry
     charge density cutoff     =     280.0000  Ry
     convergence threshold     =      1.0E-08
     mixing beta               =       0.7000
     number of iterations used =            8  plain     mixing
     Exchange-correlation      = PBE ( 1  4  3  4 0 0)

     celldm(1)=   7.850000  celldm(2)=   1.000000  celldm(3)=   1.000000
     celldm(4)=   0.000000  celldm(5)=   0.000000  celldm(6)=   0.000000

     crystal axes: (cart. coord. in units of alat)
               a(1) = (   1.000000   0.000000   0.000000 )  
               a(2) = (   0.000000   1.000000   0.000000 )  
               a(3) = (   0.000000   0.000000   1.000000 )  

     reciprocal axes: (cart. coord. in units 2 pi/alat)
               b(1) = (  1.000000  0.000000  0.000000 )  
               b(2) = (  0.000000  1.000000  0.000000 )  
               b(3) = (  0.000000  0.000000  1.000000 )  


     PseudoPot. # 1 for Mg read from file:
     ../pseudo/Mg.pbe.UPF
     MD5 check sum: 4c04d8c6e0476e83eaecaf72fa8acc4d
     Pseudo is Norm-conserving, Zval = 10.0
     Generated using ONCVPSP code by D. R. Hamann
     Using radial grid of 1510 points,  4 beta functions with: 
                l(1) =   0
                l(2) =   0
                l(3) =   1
                l(4) =   1

     PseudoPot. # 2 for O  read from file:
     ../pseudo/O.pbe.UPF
     MD5 check sum: 3e3f909f7470e8921608ab6b1f57bbae
     Pseudo is Norm-conserving + core correction, Zval =  6.0
     Generated using ONCVPSP code by D. R. Hamann
     Using radial grid of  936 points,  5 beta functions with: 
                l(1) =   0
                l(2) =   0
                l(3) =   1
                l(4) =   1
                l(5) =   2

     atomic species   valence    mass     pseudopotential
        Mg            10.00    24.30500     Mg( 1.00)
        O              6.00    15.99940     O ( 1.00)

     48 Sym. Ops., with inversion, found



   Cartesian axes

     site n.     atom                  positions (alat units)
         1           Mg  tau(   1) = (   0.0000000   0.0000000   0.0000000  )
         2           O   tau(   2) = (   0.5000000   0.5000000   0.5000000  )

     number of k points=    10
                       cart. coord. in units 2pi/alat
        k(    1) = (   0.0000000   0.0000000   0.0000000), wk =   0.0312500
        k(    2) = (   0.0000000   0.0000000   0.2500000), wk =   0.1875000
        k(    3) = (   0.0000000   0.0000000  -0.5000000), wk =   0.0937500
        k(    4) = (   0.0000000   0.2500000   0.2500000), wk =   0.3750000
        k(    5) = (   0.0000000   0.2500000  -0.5000000), wk =   0.3750000
        k(    6) = (   0.0000000  -0.5000000  -0.5000000), wk =   0.0937500
        k(    7) = (   0.2500000   0.2500000   0.2500000), wk =   0.2500000
        k(    8) = (   0.2500000   0.2500000  -0.5000000), wk =   0.3750000
        k(    9) = (   0.2500000  -0.5000000  -0.5000000), wk =   0.1875000
        k(   10) = (  -0.5000000  -0.5000000  -0.5000000), wk =   0.0312500

     Dense  grid:    38401 G-vectors     FFT dimensions: (  45,  45,  45)

     Estimated max dynamical RAM per process >       4.15MB

     Estimated total allocated dynamical RAM >      33.21MB

     Check: negative/imaginary core charge=   -0.000003    0.000000

     Initial potential from superposition of free atoms

     starting charge   15.99920, renormalised to   16.00000
     Starting wfc are    9 randomized atomic wfcs

     total cpu time spent up to now is        0.2 secs

     per-process dynamical memory:    30.3 Mb

     Self-consistent Calculation

     iteration #  1     ecut=    70.00 Ry     beta=0.70
     Davidson diagonalization with overlap
     ethr =  1.00E-02,  avg # of iterations =  2.0

     total cpu time spent up to now is        0.3 secs

     total energy              =    -150.51645961 Ry
     Harris-Foulkes estimate   =    -151.89107505 Ry
     estimated scf accuracy    <       1.73883405 Ry

     iteration #  2     ecut=    70.00 Ry     beta=0.70
     Davidson diagonalization with overlap
     ethr =  1.00E-02,  avg # of iterations =  5.1

     total cpu time spent up to now is        0.5 secs

     total energy              =    -150.13203305 Ry
     Harris-Foulkes estimate   =    -154.26752597 Ry
     estimated scf accuracy    <      14.51840473 Ry

     iteration #  3     ecut=    70.00 Ry     beta=0.70
     Davidson diagonalization with overlap
     ethr =  1.00E-02,  avg # of iterations =  4.0

     total cpu time spent up to now is        0.6 secs

     total energy              =    -151.50516351 Ry
     Harris-Foulkes estimate   =    -151.36398938 Ry
     estimated scf accuracy    <       0.40126247 Ry

     iteration #  4     ecut=    70.00 Ry     beta=0.70
     Davidson diagonalization with overlap
     ethr =  2.51E-03,  avg # of iterations =  2.3

     total cpu time spent up to now is        0.7 secs

     total energy              =    -151.14774701 Ry
     Harris-Foulkes estimate   =    -151.54556990 Ry
     estimated scf accuracy    <       1.33632692 Ry

     iteration #  5     ecut=    70.00 Ry     beta=0.70
     Davidson diagonalization with overlap
     ethr =  2.51E-03,  avg # of iterations =  2.7

     total cpu time spent up to now is        0.8 secs

     total energy              =    -151.27706468 Ry
     Harris-Foulkes estimate   =    -151.28921970 Ry
     estimated scf accuracy    <       0.06983725 Ry

     iteration #  6     ecut=    70.00 Ry     beta=0.70
     Davidson diagonalization with overlap
     ethr =  4.36E-04,  avg # of iterations =  1.1

     total cpu time spent up to now is        0.9 secs

     total energy              =    -151.27242689 Ry
     Harris-Foulkes estimate   =    -151.27838701 Ry
     estimated scf accuracy    <       0.03665502 Ry

     iteration #  7     ecut=    70.00 Ry     beta=0.70
     Davidson diagonalization with overlap
     ethr =  2.29E-04,  avg # of iterations =  1.4

     total cpu time spent up to now is        0.9 secs

     total energy              =    -151.27243304 Ry
     Harris-Foulkes estimate   =    -151.27335924 Ry
     estimated scf accuracy    <       0.01859742 Ry

     iteration #  8     ecut=    70.00 Ry     beta=0.70
     Davidson diagonalization with overlap
     ethr =  1.16E-04,  avg # of iterations =  1.0

     total cpu time spent up to now is        1.0 secs

     total energy              =    -151.27270691 Ry
     Harris-Foulkes estimate   =    -151.27251807 Ry
     estimated scf accuracy    <       0.01616744 Ry

     iteration #  9     ecut=    70.00 Ry     beta=0.70
     Davidson diagonalization with overlap
     ethr =  1.01E-04,  avg # of iterations =  1.0

     total cpu time spent up to now is        1.1 secs

     total energy              =    -151.27060147 Ry
     Harris-Foulkes estimate   =    -151.27271800 Ry
     estimated scf accuracy    <       0.01620234 Ry

     iteration # 10     ecut=    70.00 Ry     beta=0.70
     Davidson diagonalization with overlap
     ethr =  1.01E-04,  avg # of iterations =  1.0

     total cpu time spent up to now is        1.2 secs

     total energy              =    -151.26415986 Ry
     Harris-Foulkes estimate   =    -151.27073261 Ry
     estimated scf accuracy    <       0.01069281 Ry

     iteration # 11     ecut=    70.00 Ry     beta=0.70
     Davidson diagonalization with overlap
     ethr =  6.68E-05,  avg # of iterations =  2.1

     total cpu time spent up to now is        1.3 secs

     total energy              =    -151.26743237 Ry
     Harris-Foulkes estimate   =    -151.26692575 Ry
     estimated scf accuracy    <       0.00051996 Ry

     iteration # 12     ecut=    70.00 Ry     beta=0.70
     Davidson diagonalization with overlap
     ethr =  3.25E-06,  avg # of iterations =  3.9

     total cpu time spent up to now is        1.4 secs

     total energy              =    -151.36895724 Ry
     Harris-Foulkes estimate   =    -151.37837508 Ry
     estimated scf accuracy    <       0.05169075 Ry

     iteration # 13     ecut=    70.00 Ry     beta=0.70
     Davidson diagonalization with overlap
     ethr =  3.25E-06,  avg # of iterations =  4.1

     total cpu time spent up to now is        1.5 secs

     total energy              =    -151.52646556 Ry
     Harris-Foulkes estimate   =    -151.52945219 Ry
     estimated scf accuracy    <       0.22936929 Ry

     iteration # 14     ecut=    70.00 Ry     beta=0.70
     Davidson diagonalization with overlap
     ethr =  3.25E-06,  avg # of iterations =  1.2

     total cpu time spent up to now is        1.6 secs

     total energy              =    -151.53948234 Ry
     Harris-Foulkes estimate   =    -151.52647828 Ry
     estimated scf accuracy    <       0.22167462 Ry

     iteration # 15     ecut=    70.00 Ry     beta=0.70
     Davidson diagonalization with overlap
     ethr =  3.25E-06,  avg # of iterations =  2.7

     total cpu time spent up to now is        1.7 secs

     total energy              =    -151.53358046 Ry
     Harris-Foulkes estimate   =    -151.53980424 Ry
     estimated scf accuracy    <       0.26033942 Ry

     iteration # 16     ecut=    70.00 Ry     beta=0.70
     Davidson diagonalization with overlap
     ethr =  3.25E-06,  avg # of iterations =  2.8

     total cpu time spent up to now is        1.8 secs

     total energy              =    -151.54940073 Ry
     Harris-Foulkes estimate   =    -151.57161777 Ry
     estimated scf accuracy    <       0.37054542 Ry

     iteration # 17     ecut=    70.00 Ry     beta=0.70
     Davidson diagonalization with overlap
     ethr =  3.25E-06,  avg # of iterations =  3.2

     total cpu time spent up to now is        1.9 secs

     total energy              =    -151.56597963 Ry
     Harris-Foulkes estimate   =    -151.55014179 Ry
     estimated scf accuracy    <       0.30143085 Ry

     iteration # 18     ecut=    70.00 Ry     beta=0.70
     Davidson diagonalization with overlap
     ethr =  3.25E-06,  avg # of iterations =  3.6

     total cpu time spent up to now is        2.0 secs

     total energy              =    -151.69786890 Ry
     Harris-Foulkes estimate   =    -151.67654296 Ry
     estimated scf accuracy    <       0.70410391 Ry

     iteration # 19     ecut=    70.00 Ry     beta=0.70
     Davidson diagonalization with overlap
     ethr =  3.25E-06,  avg # of iterations =  2.5

     total cpu time spent up to now is        2.1 secs

     total energy              =    -151.66113281 Ry
     Harris-Foulkes estimate   =    -151.69815414 Ry
     estimated scf accuracy    <       0.77090517 Ry

     iteration # 20     ecut=    70.00 Ry     beta=0.70
     Davidson diagonalization with overlap
     ethr =  3.25E-06,  avg # of iterations =  2.9

     total cpu time spent up to now is        2.2 secs

     total energy              =    -151.63025435 Ry
     Harris-Foulkes estimate   =    -151.66194408 Ry
     estimated scf accuracy    <       0.65772718 Ry

     iteration # 21     ecut=    70.00 Ry     beta=0.70
     Davidson diagonalization with overlap
     ethr =  3.25E-06,  avg # of iterations =  3.4

     total cpu time spent up to now is        2.3 secs

     total energy              =    -151.59178650 Ry
     Harris-Foulkes estimate   =    -151.64416320 Ry
     estimated scf accuracy    <       0.58957593 Ry

     iteration # 22     ecut=    70.00 Ry     beta=0.70
     Davidson diagonalization with overlap
     ethr =  3.25E-06,  avg # of iterations =  3.4

     total cpu time spent up to now is        2.5 secs

     total energy              =    -151.60574520 Ry
     Harris-Foulkes estimate   =    -151.59462934 Ry
     estimated scf accuracy    <       0.40414483 Ry

     iteration # 23     ecut=    70.00 Ry     beta=0.70
     Davidson diagonalization with overlap
     ethr =  3.25E-06,  avg # of iterations =  2.6

     total cpu time spent up to now is        2.6 secs

     total energy              =    -151.60567632 Ry
     Harris-Foulkes estimate   =    -151.60593783 Ry
     estimated scf accuracy    <       0.44850997 Ry

     iteration # 24     ecut=    70.00 Ry     beta=0.70
     Davidson diagonalization with overlap
     ethr =  3.25E-06,  avg # of iterations =  1.0

     total cpu time spent up to now is        2.6 secs

     total energy              =    -151.60045365 Ry
     Harris-Foulkes estimate   =    -151.60567704 Ry
     estimated scf accuracy    <       0.44781551 Ry

     iteration # 25     ecut=    70.00 Ry     beta=0.70
     Davidson diagonalization with overlap
     ethr =  3.25E-06,  avg # of iterations =  2.0

     total cpu time spent up to now is        2.7 secs

     total energy              =    -151.74062506 Ry
     Harris-Foulkes estimate   =    -151.60049390 Ry
     estimated scf accuracy    <       0.42746632 Ry

     iteration # 26     ecut=    70.00 Ry     beta=0.70
     Davidson diagonalization with overlap
     ethr =  3.25E-06,  avg # of iterations =  4.5

     total cpu time spent up to now is        2.9 secs

     total energy              =    -151.91894579 Ry
     Harris-Foulkes estimate   =    -151.86594784 Ry
     estimated scf accuracy    <       1.47392980 Ry

     iteration # 27     ecut=    70.00 Ry     beta=0.70
     Davidson diagonalization with overlap
     ethr =  3.25E-06,  avg # of iterations =  3.2

     total cpu time spent up to now is        3.0 secs

     total energy              =    -151.66266227 Ry
     Harris-Foulkes estimate   =    -151.92019461 Ry
     estimated scf accuracy    <       1.65222972 Ry

     iteration # 28     ecut=    70.00 Ry     beta=0.70
     Davidson diagonalization with overlap
     ethr =  3.25E-06,  avg # of iterations =  4.0

     total cpu time spent up to now is        3.1 secs

     total energy              =    -151.36261275 Ry
     Harris-Foulkes estimate   =    -151.68267664 Ry
     estimated scf accuracy    <       0.85611496 Ry

     iteration # 29     ecut=    70.00 Ry     beta=0.70
     Davidson diagonalization with overlap
     ethr =  3.25E-06,  avg # of iterations =  5.0

     total cpu time spent up to now is        3.3 secs

     total energy              =    -151.47912416 Ry
     Harris-Foulkes estimate   =    -151.56167311 Ry
     estimated scf accuracy    <       0.21692143 Ry

     iteration # 30     ecut=    70.00 Ry     beta=0.70
     Davidson diagonalization with overlap
     ethr =  3.25E-06,  avg # of iterations =  5.1

     total cpu time spent up to now is        3.4 secs

     total energy              =    -151.55010091 Ry
     Harris-Foulkes estimate   =    -151.55292781 Ry
     estimated scf accuracy    <       0.13285287 Ry

     iteration # 31     ecut=    70.00 Ry     beta=0.70
     Davidson diagonalization with overlap
     ethr =  3.25E-06,  avg # of iterations =  3.0

     total cpu time spent up to now is        3.5 secs

     total energy              =    -151.54989437 Ry
     Harris-Foulkes estimate   =    -151.55018264 Ry
     estimated scf accuracy    <       0.11807517 Ry

     iteration # 32     ecut=    70.00 Ry     beta=0.70
     Davidson diagonalization with overlap
     ethr =  3.25E-06,  avg # of iterations =  1.0

     total cpu time spent up to now is        3.6 secs

     total energy              =    -151.54047557 Ry
     Harris-Foulkes estimate   =    -151.54990153 Ry
     estimated scf accuracy    <       0.11666026 Ry

     iteration # 33     ecut=    70.00 Ry     beta=0.70
     Davidson diagonalization with overlap
     ethr =  3.25E-06,  avg # of iterations =  3.6

     total cpu time spent up to now is        3.7 secs

     total energy              =    -151.53624079 Ry
     Harris-Foulkes estimate   =    -151.54167125 Ry
     estimated scf accuracy    <       0.05592644 Ry

     iteration # 34     ecut=    70.00 Ry     beta=0.70
     Davidson diagonalization with overlap
     ethr =  3.25E-06,  avg # of iterations =  3.3

     total cpu time spent up to now is        3.8 secs

     total energy              =    -151.53370592 Ry
     Harris-Foulkes estimate   =    -151.53712147 Ry
     estimated scf accuracy    <       0.02121538 Ry

     iteration # 35     ecut=    70.00 Ry     beta=0.70
     Davidson diagonalization with overlap
     ethr =  3.25E-06,  avg # of iterations =  3.3

     total cpu time spent up to now is        3.9 secs

     total energy              =    -151.53393862 Ry
     Harris-Foulkes estimate   =    -151.53464718 Ry
     estimated scf accuracy    <       0.00264985 Ry

     iteration # 36     ecut=    70.00 Ry     beta=0.70
     Davidson diagonalization with overlap
     ethr =  3.25E-06,  avg # of iterations =  3.2

     total cpu time spent up to now is        4.0 secs

     total energy              =    -151.53427932 Ry
     Harris-Foulkes estimate   =    -151.53429158 Ry
     estimated scf accuracy    <       0.00004971 Ry

     iteration # 37     ecut=    70.00 Ry     beta=0.70
     Davidson diagonalization with overlap
     ethr =  3.11E-07,  avg # of iterations =  2.8

     total cpu time spent up to now is        4.1 secs

     total energy              =    -151.53428574 Ry
     Harris-Foulkes estimate   =    -151.53428655 Ry
     estimated scf accuracy    <       0.00000245 Ry

     iteration # 38     ecut=    70.00 Ry     beta=0.70
     Davidson diagonalization with overlap
     ethr =  1.53E-08,  avg # of iterations =  3.0

     total cpu time spent up to now is        4.2 secs

     total energy              =    -151.53428604 Ry
     Harris-Foulkes estimate   =    -151.53428606 Ry
     estimated scf accuracy    <       0.00000005 Ry

     iteration # 39     ecut=    70.00 Ry     beta=0.70
     Davidson diagonalization with overlap
     ethr =  3.22E-10,  avg # of iterations =  4.2

     total cpu time spent up to now is        4.3 secs

     total energy              =    -151.54315361 Ry
     Harris-Foulkes estimate   =    -151.54315447 Ry
     estimated scf accuracy    <       0.00066375 Ry

     iteration # 40     ecut=    70.00 Ry     beta=0.70
     Davidson diagonalization with overlap
     ethr =  3.22E-10,  avg # of iterations =  1.3

     total cpu time spent up to now is        4.4 secs

     total energy              =    -151.54314402 Ry
     Harris-Foulkes estimate   =    -151.54315361 Ry
     estimated scf accuracy    <       0.00065929 Ry

     iteration # 41     ecut=    70.00 Ry     beta=0.70
     Davidson diagonalization with overlap
     ethr =  3.22E-10,  avg # of iterations =  4.1

     total cpu time spent up to now is        4.5 secs

     total energy              =    -151.54315542 Ry
     Harris-Foulkes estimate   =    -151.54314423 Ry
     estimated scf accuracy    <       0.00058897 Ry

     iteration # 42     ecut=    70.00 Ry     beta=0.70
     Davidson diagonalization with overlap
     ethr =  3.22E-10,  avg # of iterations =  4.4

     total cpu time spent up to now is        4.7 secs

     total energy              =    -151.54314692 Ry
     Harris-Foulkes estimate   =    -151.54315569 Ry
     estimated scf accuracy    <       0.00067040 Ry

     iteration # 43     ecut=    70.00 Ry     beta=0.70
     Davidson diagonalization with overlap
     ethr =  3.22E-10,  avg # of iterations =  4.1

     total cpu time spent up to now is        4.8 secs

     total energy              =    -151.54313513 Ry
     Harris-Foulkes estimate   =    -151.54314707 Ry
     estimated scf accuracy    <       0.00061060 Ry

     iteration # 44     ecut=    70.00 Ry     beta=0.70
     Davidson diagonalization with overlap
     ethr =  3.22E-10,  avg # of iterations =  4.4

     total cpu time spent up to now is        4.9 secs

     total energy              =    -151.54313703 Ry
     Harris-Foulkes estimate   =    -151.54313543 Ry
     estimated scf accuracy    <       0.00052920 Ry

     iteration # 45     ecut=    70.00 Ry     beta=0.70
     Davidson diagonalization with overlap
     ethr =  3.22E-10,  avg # of iterations =  2.7

     total cpu time spent up to now is        5.0 secs

     total energy              =    -151.54309307 Ry
     Harris-Foulkes estimate   =    -151.54313704 Ry
     estimated scf accuracy    <       0.00054081 Ry

     iteration # 46     ecut=    70.00 Ry     beta=0.70
     Davidson diagonalization with overlap
     ethr =  3.22E-10,  avg # of iterations =  5.2

     total cpu time spent up to now is        5.2 secs

     total energy              =    -151.54307311 Ry
     Harris-Foulkes estimate   =    -151.54309794 Ry
     estimated scf accuracy    <       0.00027001 Ry

     iteration # 47     ecut=    70.00 Ry     beta=0.70
     Davidson diagonalization with overlap
     ethr =  3.22E-10,  avg # of iterations =  4.8

     total cpu time spent up to now is        5.3 secs

     total energy              =    -151.54304773 Ry
     Harris-Foulkes estimate   =    -151.54307636 Ry
     estimated scf accuracy    <       0.00011749 Ry

     iteration # 48     ecut=    70.00 Ry     beta=0.70
     Davidson diagonalization with overlap
     ethr =  3.22E-10,  avg # of iterations =  5.7

     total cpu time spent up to now is        5.5 secs

     total energy              =    -151.54305970 Ry
     Harris-Foulkes estimate   =    -151.54305969 Ry
     estimated scf accuracy    <       0.00000002 Ry

     iteration # 49     ecut=    70.00 Ry     beta=0.70
     Davidson diagonalization with overlap
     ethr =  1.25E-10,  avg # of iterations =  1.0

     total cpu time spent up to now is        5.5 secs

     total energy              =    -151.54305968 Ry
     Harris-Foulkes estimate   =    -151.54305970 Ry
     estimated scf accuracy    <       0.00000002 Ry

     iteration # 50     ecut=    70.00 Ry     beta=0.70
     Davidson diagonalization with overlap
     ethr =  1.25E-10,  avg # of iterations =  3.6

     total cpu time spent up to now is        5.7 secs

     total energy              =    -151.54305969 Ry
     Harris-Foulkes estimate   =    -151.54305972 Ry
     estimated scf accuracy    <       0.00000019 Ry

     iteration # 51     ecut=    70.00 Ry     beta=0.70
     Davidson diagonalization with overlap
     ethr =  1.25E-10,  avg # of iterations =  3.1

     total cpu time spent up to now is        5.8 secs

     total energy              =    -151.54305969 Ry
     Harris-Foulkes estimate   =    -151.54305970 Ry
     estimated scf accuracy    <       0.00000004 Ry

     iteration # 52     ecut=    70.00 Ry     beta=0.70
     Davidson diagonalization with overlap
     ethr =  1.25E-10,  avg # of iterations =  3.0

     total cpu time spent up to now is        5.9 secs

     End of self-consistent calculation

          k = 0.0000 0.0000 0.0000 (  4801 PWs)   bands (ev):

   -78.5922 -45.2888 -45.2888 -45.2888 -15.4748  -2.3506  -0.8489  -0.8489

          k = 0.0000 0.0000 0.2500 (  4797 PWs)   bands (ev):

   -78.5922 -45.2890 -45.2890 -45.2885 -15.4618  -2.4235  -0.8027  -0.8027

          k = 0.0000 0.0000-0.5000 (  4828 PWs)   bands (ev):

   -78.5922 -45.2895 -45.2893 -45.2893 -15.4488  -2.5203  -0.7552  -0.7552

          k = 0.0000 0.2500 0.2500 (  4801 PWs)   bands (ev):

   -78.5922 -45.2890 -45.2890 -45.2888 -15.4498  -2.2372  -1.1690  -0.7635

          k = 0.0000 0.2500-0.5000 (  4770 PWs)   bands (ev):

   -78.5922 -45.2885 -45.2883 -45.2883 -15.4378  -2.1324  -1.1766  -0.7234

          k = 0.0000-0.5000-0.5000 (  4780 PWs)   bands (ev):

   -78.5922 -45.2892 -45.2885 -45.2885 -15.4267  -1.4842  -1.4842  -0.6918

          k = 0.2500 0.2500 0.2500 (  4794 PWs)   bands (ev):

   -78.5922 -45.2890 -45.2890 -45.2886 -15.4386  -1.9945  -1.0674  -1.0674

          k = 0.2500 0.2500-0.5000 (  4782 PWs)   bands (ev):

   -78.5922 -45.2892 -45.2886 -45.2885 -15.4273  -1.8001  -1.1528  -0.9592

          k = 0.2500-0.5000-0.5000 (  4776 PWs)   bands (ev):

   -78.5922 -45.2890 -45.2887 -45.2887 -15.4167  -1.3310  -1.3310  -0.9380

          k =-0.5000-0.5000-0.5000 (  4776 PWs)   bands (ev):

   -78.5922 -45.2891 -45.2891 -45.2891 -15.4067  -1.1587  -1.1587  -1.1587

     highest occupied level (ev):    -0.6918

!    total energy              =    -151.54305969 Ry
     Harris-Foulkes estimate   =    -151.54305969 Ry
     estimated scf accuracy    <          3.7E-10 Ry

     The total energy is the sum of the following terms:

     one-electron contribution =    -127.76766237 Ry
     hartree contribution      =      61.26572182 Ry
     xc contribution           =     -23.62649830 Ry
     ewald contribution        =     -61.41462084 Ry

     convergence has been achieved in  52 iterations

     Forces acting on atoms (cartesian axes, Ry/au):

     atom    1 type  1   force =     0.00000000    0.00000000    0.00000000
     atom    2 type  2   force =     0.00000000    0.00000000   -0.00000000

     Total force =     0.000000     Total SCF correction =     0.000000


     Computing stress (Cartesian axis) and pressure

          total   stress  (Ry/bohr**3)                   (kbar)     P= -129.38
  -0.00087953   0.00000000   0.00000000       -129.38      0.00      0.00
   0.00000000  -0.00087953   0.00000000          0.00   -129.38      0.00
   0.00000000   0.00000000  -0.00087953          0.00      0.00   -129.38


     Writing output data file diamond.7.85.70.4.save
 
     init_run     :      0.09s CPU      0.10s WALL (       1 calls)
     electrons    :      5.50s CPU      5.63s WALL (       1 calls)
     forces       :      0.02s CPU      0.02s WALL (       1 calls)
     stress       :      0.05s CPU      0.06s WALL (       1 calls)

     Called by init_run:
     wfcinit      :      0.04s CPU      0.04s WALL (       1 calls)
     potinit      :      0.01s CPU      0.01s WALL (       1 calls)

     Called by electrons:
     c_bands      :      4.40s CPU      4.51s WALL (      52 calls)
     sum_band     :      0.76s CPU      0.78s WALL (      52 calls)
     v_of_rho     :      0.27s CPU      0.27s WALL (      53 calls)
     mix_rho      :      0.07s CPU      0.07s WALL (      52 calls)

     Called by c_bands:
     init_us_2    :      0.16s CPU      0.15s WALL (    1070 calls)
     cegterg      :      4.04s CPU      4.14s WALL (     520 calls)

     Called by sum_band:

     Called by *egterg:
     h_psi        :      3.36s CPU      3.45s WALL (    2126 calls)
     g_psi        :      0.02s CPU      0.03s WALL (    1596 calls)
     cdiaghg      :      0.26s CPU      0.27s WALL (    2116 calls)

     Called by h_psi:
     h_psi:pot    :      3.34s CPU      3.43s WALL (    2126 calls)
     h_psi:calbec :      0.15s CPU      0.13s WALL (    2126 calls)
     vloc_psi     :      3.14s CPU      3.22s WALL (    2126 calls)
     add_vuspsi   :      0.06s CPU      0.07s WALL (    2126 calls)

     General routines
     calbec       :      0.15s CPU      0.13s WALL (    2176 calls)
     fft          :      0.12s CPU      0.12s WALL (     607 calls)
     fftw         :      3.54s CPU      3.48s WALL (   27412 calls)
     davcio       :      0.00s CPU      0.00s WALL (      10 calls)
 
     Parallel routines
     fft_scatter  :      0.89s CPU      0.94s WALL (   28019 calls)
 
     PWSCF        :     5.85s CPU         6.01s WALL

 
   This run was terminated on:  15: 5:27  19Apr2018            

=------------------------------------------------------------------------------=
   JOB DONE.
=------------------------------------------------------------------------------=
