
     Program PWSCF v.6.1 (svn rev. 13369) starts on 19Apr2018 at 18:11:39 

     This program is part of the open-source Quantum ESPRESSO suite
     for quantum simulation of materials; please cite
         "P. Giannozzi et al., J. Phys.:Condens. Matter 21 395502 (2009);
          URL http://www.quantum-espresso.org", 
     in publications or presentations arising from this work. More details at
     http://www.quantum-espresso.org/quote

     Parallel version (MPI), running on     8 processors
     R & G space division:  proc/nbgrp/npool/nimage =       8
     Waiting for input...
     Reading input from standard input

     Current dimensions of program PWSCF are:
     Max number of different atomic species (ntypx) = 10
     Max number of k-points (npk) =  40000
     Max angular momentum in pseudopotentials (lmaxx) =  3

     Subspace diagonalization in iterative solution of the eigenvalue problem:
     a serial algorithm will be used

 
     Parallelization info
     --------------------
     sticks:   dense  smooth     PW     G-vecs:    dense   smooth      PW
     Min          74      74     23                 1229     1229     209
     Max          75      75     24                 1233     1233     212
     Sum         595     595    187                 9841     9841    1687
 


     bravais-lattice index     =            2
     lattice parameter (alat)  =       7.9380  a.u.
     unit-cell volume          =     125.0470 (a.u.)^3
     number of atoms/cell      =            2
     number of atomic types    =            2
     number of electrons       =        16.00
     number of Kohn-Sham states=            8
     kinetic-energy cutoff     =      70.0000  Ry
     charge density cutoff     =     280.0000  Ry
     convergence threshold     =      1.0E-08
     mixing beta               =       0.7000
     number of iterations used =            8  plain     mixing
     Exchange-correlation      = PBE ( 1  4  3  4 0 0)

     celldm(1)=   7.938000  celldm(2)=   0.000000  celldm(3)=   0.000000
     celldm(4)=   0.000000  celldm(5)=   0.000000  celldm(6)=   0.000000

     crystal axes: (cart. coord. in units of alat)
               a(1) = (  -0.500000   0.000000   0.500000 )  
               a(2) = (   0.000000   0.500000   0.500000 )  
               a(3) = (  -0.500000   0.500000   0.000000 )  

     reciprocal axes: (cart. coord. in units 2 pi/alat)
               b(1) = ( -1.000000 -1.000000  1.000000 )  
               b(2) = (  1.000000  1.000000  1.000000 )  
               b(3) = ( -1.000000  1.000000 -1.000000 )  


     PseudoPot. # 1 for Mg read from file:
     ../pseudo/Mg.pbe.UPF
     MD5 check sum: 4c04d8c6e0476e83eaecaf72fa8acc4d
     Pseudo is Norm-conserving, Zval = 10.0
     Generated using ONCVPSP code by D. R. Hamann
     Using radial grid of 1510 points,  4 beta functions with: 
                l(1) =   0
                l(2) =   0
                l(3) =   1
                l(4) =   1

     PseudoPot. # 2 for O  read from file:
     ../pseudo/O.pbe.UPF
     MD5 check sum: 3e3f909f7470e8921608ab6b1f57bbae
     Pseudo is Norm-conserving + core correction, Zval =  6.0
     Generated using ONCVPSP code by D. R. Hamann
     Using radial grid of  936 points,  5 beta functions with: 
                l(1) =   0
                l(2) =   0
                l(3) =   1
                l(4) =   1
                l(5) =   2

     atomic species   valence    mass     pseudopotential
        Mg            10.00    24.30500     Mg( 1.00)
        O              6.00    15.99940     O ( 1.00)

     48 Sym. Ops., with inversion, found



   Cartesian axes

     site n.     atom                  positions (alat units)
         1           Mg  tau(   1) = (   0.0000000   0.0000000   0.0000000  )
         2           O   tau(   2) = (   0.5000000   0.5000000   0.5000000  )

     number of k points=     8
                       cart. coord. in units 2pi/alat
        k(    1) = (   0.0000000   0.0000000   0.0000000), wk =   0.0312500
        k(    2) = (  -0.2500000   0.2500000  -0.2500000), wk =   0.2500000
        k(    3) = (   0.5000000  -0.5000000   0.5000000), wk =   0.1250000
        k(    4) = (   0.0000000   0.5000000   0.0000000), wk =   0.1875000
        k(    5) = (   0.7500000  -0.2500000   0.7500000), wk =   0.7500000
        k(    6) = (   0.5000000   0.0000000   0.5000000), wk =   0.3750000
        k(    7) = (   0.0000000  -1.0000000   0.0000000), wk =   0.0937500
        k(    8) = (  -0.5000000  -1.0000000   0.0000000), wk =   0.1875000

     Dense  grid:     9841 G-vectors     FFT dimensions: (  30,  30,  30)

     Estimated max dynamical RAM per process >       1.09MB

     Estimated total allocated dynamical RAM >       8.70MB

     Check: negative/imaginary core charge=   -0.000007    0.000000

     Initial potential from superposition of free atoms

     starting charge   15.99920, renormalised to   16.00000
     Starting wfc are    9 randomized atomic wfcs

     total cpu time spent up to now is        0.1 secs

     per-process dynamical memory:    27.3 Mb

     Self-consistent Calculation

     iteration #  1     ecut=    70.00 Ry     beta=0.70
     Davidson diagonalization with overlap
     ethr =  1.00E-02,  avg # of iterations =  2.0

     total cpu time spent up to now is        0.2 secs

     total energy              =    -151.93229119 Ry
     Harris-Foulkes estimate   =    -152.21010882 Ry
     estimated scf accuracy    <       0.38667885 Ry

     iteration #  2     ecut=    70.00 Ry     beta=0.70
     Davidson diagonalization with overlap
     ethr =  2.42E-03,  avg # of iterations =  2.4

     total cpu time spent up to now is        0.2 secs

     total energy              =    -152.03191512 Ry
     Harris-Foulkes estimate   =    -152.19079488 Ry
     estimated scf accuracy    <       0.32431002 Ry

     iteration #  3     ecut=    70.00 Ry     beta=0.70
     Davidson diagonalization with overlap
     ethr =  2.03E-03,  avg # of iterations =  2.0

     total cpu time spent up to now is        0.2 secs

     total energy              =    -152.09609068 Ry
     Harris-Foulkes estimate   =    -152.09620809 Ry
     estimated scf accuracy    <       0.00154012 Ry

     iteration #  4     ecut=    70.00 Ry     beta=0.70
     Davidson diagonalization with overlap
     ethr =  9.63E-06,  avg # of iterations =  2.0

     total cpu time spent up to now is        0.2 secs

     total energy              =    -152.09639513 Ry
     Harris-Foulkes estimate   =    -152.09640425 Ry
     estimated scf accuracy    <       0.00002373 Ry

     iteration #  5     ecut=    70.00 Ry     beta=0.70
     Davidson diagonalization with overlap
     ethr =  1.48E-07,  avg # of iterations =  1.1

     total cpu time spent up to now is        0.2 secs

     total energy              =    -152.09639655 Ry
     Harris-Foulkes estimate   =    -152.09639632 Ry
     estimated scf accuracy    <       0.00000263 Ry

     iteration #  6     ecut=    70.00 Ry     beta=0.70
     Davidson diagonalization with overlap
     ethr =  1.64E-08,  avg # of iterations =  2.0

     total cpu time spent up to now is        0.3 secs

     total energy              =    -152.09639700 Ry
     Harris-Foulkes estimate   =    -152.09639713 Ry
     estimated scf accuracy    <       0.00000031 Ry

     iteration #  7     ecut=    70.00 Ry     beta=0.70
     Davidson diagonalization with overlap
     ethr =  1.96E-09,  avg # of iterations =  2.0

     total cpu time spent up to now is        0.3 secs

     total energy              =    -152.09639700 Ry
     Harris-Foulkes estimate   =    -152.09639703 Ry
     estimated scf accuracy    <       0.00000005 Ry

     iteration #  8     ecut=    70.00 Ry     beta=0.70
     Davidson diagonalization with overlap
     ethr =  3.18E-10,  avg # of iterations =  2.0

     total cpu time spent up to now is        0.3 secs

     End of self-consistent calculation

          k = 0.0000 0.0000 0.0000 (  1243 PWs)   bands (ev):

   -64.2111 -30.9472 -30.9472 -30.9472  -9.0623   8.1713   8.1713   8.1713

          k =-0.2500 0.2500-0.2500 (  1245 PWs)   bands (ev):

   -64.2066 -30.9902 -30.9515 -30.9515  -8.4484   5.5138   7.8336   7.8336

          k = 0.5000-0.5000 0.5000 (  1224 PWs)   bands (ev):

   -64.2021 -31.0322 -30.9554 -30.9554  -7.7212   3.5412   7.5232   7.5232

          k = 0.0000 0.5000 0.0000 (  1243 PWs)   bands (ev):

   -64.2052 -30.9859 -30.9614 -30.9614  -8.2877   5.5445   7.4361   7.4361

          k = 0.7500-0.2500 0.7500 (  1236 PWs)   bands (ev):

   -64.2007 -31.0149 -30.9782 -30.9665  -7.6190   4.3547   6.2597   7.1558

          k = 0.5000 0.0000 0.5000 (  1243 PWs)   bands (ev):

   -64.2022 -31.0086 -30.9799 -30.9560  -7.8077   4.6699   6.1785   7.5225

          k = 0.0000-1.0000 0.0000 (  1234 PWs)   bands (ev):

   -64.1992 -31.0202 -30.9763 -30.9763  -7.4960   4.0964   6.8254   6.8254

          k =-0.5000-1.0000 0.0000 (  1232 PWs)   bands (ev):

   -64.1992 -30.9986 -30.9986 -30.9780  -7.4308   5.2221   5.2221   6.3998

     highest occupied level (ev):     8.1713

!    total energy              =    -152.09639701 Ry
     Harris-Foulkes estimate   =    -152.09639701 Ry
     estimated scf accuracy    <          2.1E-09 Ry

     The total energy is the sum of the following terms:

     one-electron contribution =     -73.94226363 Ry
     hartree contribution      =      41.37624618 Ry
     xc contribution           =     -24.50528656 Ry
     ewald contribution        =     -95.02509300 Ry

     convergence has been achieved in   8 iterations

     Forces acting on atoms (cartesian axes, Ry/au):

     atom    1 type  1   force =     0.00000000    0.00000000    0.00000000
     atom    2 type  2   force =    -0.00000000   -0.00000000   -0.00000000

     Total force =     0.000000     Total SCF correction =     0.000000


     Computing stress (Cartesian axis) and pressure

          total   stress  (Ry/bohr**3)                   (kbar)     P=   -6.27
  -0.00004264   0.00000000   0.00000000         -6.27      0.00      0.00
   0.00000000  -0.00004264  -0.00000000          0.00     -6.27     -0.00
   0.00000000  -0.00000000  -0.00004264          0.00     -0.00     -6.27


     Writing output data file diamond.7.938.70.4.save
 
     init_run     :      0.02s CPU      0.03s WALL (       1 calls)
     electrons    :      0.18s CPU      0.19s WALL (       1 calls)
     forces       :      0.01s CPU      0.01s WALL (       1 calls)
     stress       :      0.01s CPU      0.01s WALL (       1 calls)

     Called by init_run:
     wfcinit      :      0.01s CPU      0.01s WALL (       1 calls)
     potinit      :      0.00s CPU      0.00s WALL (       1 calls)

     Called by electrons:
     c_bands      :      0.15s CPU      0.15s WALL (       8 calls)
     sum_band     :      0.02s CPU      0.02s WALL (       8 calls)
     v_of_rho     :      0.01s CPU      0.01s WALL (       9 calls)
     mix_rho      :      0.00s CPU      0.00s WALL (       8 calls)

     Called by c_bands:
     init_us_2    :      0.00s CPU      0.00s WALL (     152 calls)
     cegterg      :      0.13s CPU      0.14s WALL (      64 calls)

     Called by sum_band:

     Called by *egterg:
     h_psi        :      0.10s CPU      0.11s WALL (     196 calls)
     g_psi        :      0.00s CPU      0.00s WALL (     124 calls)
     cdiaghg      :      0.02s CPU      0.02s WALL (     188 calls)

     Called by h_psi:
     h_psi:pot    :      0.10s CPU      0.11s WALL (     196 calls)
     h_psi:calbec :      0.00s CPU      0.01s WALL (     196 calls)
     vloc_psi     :      0.09s CPU      0.10s WALL (     196 calls)
     add_vuspsi   :      0.00s CPU      0.00s WALL (     196 calls)

     General routines
     calbec       :      0.01s CPU      0.01s WALL (     236 calls)
     fft          :      0.00s CPU      0.01s WALL (     123 calls)
     fftw         :      0.10s CPU      0.11s WALL (    3238 calls)
     davcio       :      0.00s CPU      0.00s WALL (       8 calls)
 
     Parallel routines
     fft_scatter  :      0.04s CPU      0.04s WALL (    3361 calls)
 
     PWSCF        :     0.35s CPU         0.40s WALL

 
   This run was terminated on:  18:11:39  19Apr2018            

=------------------------------------------------------------------------------=
   JOB DONE.
=------------------------------------------------------------------------------=
