
     Program PWSCF v.6.1 (svn rev. 13369) starts on 19Apr2018 at 15:56:11 

     This program is part of the open-source Quantum ESPRESSO suite
     for quantum simulation of materials; please cite
         "P. Giannozzi et al., J. Phys.:Condens. Matter 21 395502 (2009);
          URL http://www.quantum-espresso.org", 
     in publications or presentations arising from this work. More details at
     http://www.quantum-espresso.org/quote

     Parallel version (MPI), running on     8 processors
     R & G space division:  proc/nbgrp/npool/nimage =       8
     Waiting for input...
     Reading input from standard input

     Current dimensions of program PWSCF are:
     Max number of different atomic species (ntypx) = 10
     Max number of k-points (npk) =  40000
     Max angular momentum in pseudopotentials (lmaxx) =  3

     Subspace diagonalization in iterative solution of the eigenvalue problem:
     a serial algorithm will be used

 
     Parallelization info
     --------------------
     sticks:   dense  smooth     PW     G-vecs:    dense   smooth      PW
     Min         175     175     52                 4949     4949     779
     Max         176     176     53                 4952     4952     780
     Sum        1405    1405    421                39607    39607    6235
 


     bravais-lattice index     =            8
     lattice parameter (alat)  =       7.9414  a.u.
     unit-cell volume          =     500.8310 (a.u.)^3
     number of atoms/cell      =            2
     number of atomic types    =            2
     number of electrons       =        16.00
     number of Kohn-Sham states=            8
     kinetic-energy cutoff     =      70.0000  Ry
     charge density cutoff     =     280.0000  Ry
     convergence threshold     =      1.0E-08
     mixing beta               =       0.7000
     number of iterations used =            8  plain     mixing
     Exchange-correlation      = PBE ( 1  4  3  4 0 0)

     celldm(1)=   7.941400  celldm(2)=   1.000000  celldm(3)=   1.000000
     celldm(4)=   0.000000  celldm(5)=   0.000000  celldm(6)=   0.000000

     crystal axes: (cart. coord. in units of alat)
               a(1) = (   1.000000   0.000000   0.000000 )  
               a(2) = (   0.000000   1.000000   0.000000 )  
               a(3) = (   0.000000   0.000000   1.000000 )  

     reciprocal axes: (cart. coord. in units 2 pi/alat)
               b(1) = (  1.000000  0.000000  0.000000 )  
               b(2) = (  0.000000  1.000000  0.000000 )  
               b(3) = (  0.000000  0.000000  1.000000 )  


     PseudoPot. # 1 for Mg read from file:
     ../pseudo/Mg.pbe.UPF
     MD5 check sum: 4c04d8c6e0476e83eaecaf72fa8acc4d
     Pseudo is Norm-conserving, Zval = 10.0
     Generated using ONCVPSP code by D. R. Hamann
     Using radial grid of 1510 points,  4 beta functions with: 
                l(1) =   0
                l(2) =   0
                l(3) =   1
                l(4) =   1

     PseudoPot. # 2 for O  read from file:
     ../pseudo/O.pbe.UPF
     MD5 check sum: 3e3f909f7470e8921608ab6b1f57bbae
     Pseudo is Norm-conserving + core correction, Zval =  6.0
     Generated using ONCVPSP code by D. R. Hamann
     Using radial grid of  936 points,  5 beta functions with: 
                l(1) =   0
                l(2) =   0
                l(3) =   1
                l(4) =   1
                l(5) =   2

     atomic species   valence    mass     pseudopotential
        Mg            10.00    24.30500     Mg( 1.00)
        O              6.00    15.99940     O ( 1.00)

     48 Sym. Ops., with inversion, found



   Cartesian axes

     site n.     atom                  positions (alat units)
         1           Mg  tau(   1) = (   0.0000000   0.0000000   0.0000000  )
         2           O   tau(   2) = (   0.5000000   0.5000000   0.5000000  )

     number of k points=    10
                       cart. coord. in units 2pi/alat
        k(    1) = (   0.0000000   0.0000000   0.0000000), wk =   0.0312500
        k(    2) = (   0.0000000   0.0000000   0.2500000), wk =   0.1875000
        k(    3) = (   0.0000000   0.0000000  -0.5000000), wk =   0.0937500
        k(    4) = (   0.0000000   0.2500000   0.2500000), wk =   0.3750000
        k(    5) = (   0.0000000   0.2500000  -0.5000000), wk =   0.3750000
        k(    6) = (   0.0000000  -0.5000000  -0.5000000), wk =   0.0937500
        k(    7) = (   0.2500000   0.2500000   0.2500000), wk =   0.2500000
        k(    8) = (   0.2500000   0.2500000  -0.5000000), wk =   0.3750000
        k(    9) = (   0.2500000  -0.5000000  -0.5000000), wk =   0.1875000
        k(   10) = (  -0.5000000  -0.5000000  -0.5000000), wk =   0.0312500

     Dense  grid:    39607 G-vectors     FFT dimensions: (  45,  45,  45)

     Estimated max dynamical RAM per process >       4.26MB

     Estimated total allocated dynamical RAM >      34.07MB

     Check: negative/imaginary core charge=   -0.000004    0.000000

     Initial potential from superposition of free atoms

     starting charge   15.99920, renormalised to   16.00000
     Starting wfc are    9 randomized atomic wfcs

     total cpu time spent up to now is        0.2 secs

     per-process dynamical memory:    30.8 Mb

     Self-consistent Calculation

     iteration #  1     ecut=    70.00 Ry     beta=0.70
     Davidson diagonalization with overlap
     ethr =  1.00E-02,  avg # of iterations =  2.0

     total cpu time spent up to now is        0.3 secs

     total energy              =    -150.47853452 Ry
     Harris-Foulkes estimate   =    -151.88824521 Ry
     estimated scf accuracy    <       1.78051972 Ry

     iteration #  2     ecut=    70.00 Ry     beta=0.70
     Davidson diagonalization with overlap
     ethr =  1.00E-02,  avg # of iterations =  5.2

     total cpu time spent up to now is        0.4 secs

     total energy              =    -150.12333096 Ry
     Harris-Foulkes estimate   =    -154.43291991 Ry
     estimated scf accuracy    <      15.23943412 Ry

     iteration #  3     ecut=    70.00 Ry     beta=0.70
     Davidson diagonalization with overlap
     ethr =  1.00E-02,  avg # of iterations =  4.0

     total cpu time spent up to now is        0.6 secs

     total energy              =    -151.48505876 Ry
     Harris-Foulkes estimate   =    -151.35545332 Ry
     estimated scf accuracy    <       0.48397004 Ry

     iteration #  4     ecut=    70.00 Ry     beta=0.70
     Davidson diagonalization with overlap
     ethr =  3.02E-03,  avg # of iterations =  1.9

     total cpu time spent up to now is        0.7 secs

     total energy              =    -151.13995531 Ry
     Harris-Foulkes estimate   =    -151.51322727 Ry
     estimated scf accuracy    <       1.24612117 Ry

     iteration #  5     ecut=    70.00 Ry     beta=0.70
     Davidson diagonalization with overlap
     ethr =  3.02E-03,  avg # of iterations =  2.6

     total cpu time spent up to now is        0.8 secs

     total energy              =    -151.25093248 Ry
     Harris-Foulkes estimate   =    -151.26415511 Ry
     estimated scf accuracy    <       0.08619177 Ry

     iteration #  6     ecut=    70.00 Ry     beta=0.70
     Davidson diagonalization with overlap
     ethr =  5.39E-04,  avg # of iterations =  1.1

     total cpu time spent up to now is        0.9 secs

     total energy              =    -151.24483554 Ry
     Harris-Foulkes estimate   =    -151.25214108 Ry
     estimated scf accuracy    <       0.05152919 Ry

     iteration #  7     ecut=    70.00 Ry     beta=0.70
     Davidson diagonalization with overlap
     ethr =  3.22E-04,  avg # of iterations =  1.0

     total cpu time spent up to now is        0.9 secs

     total energy              =    -151.24467402 Ry
     Harris-Foulkes estimate   =    -151.24570820 Ry
     estimated scf accuracy    <       0.03099295 Ry

     iteration #  8     ecut=    70.00 Ry     beta=0.70
     Davidson diagonalization with overlap
     ethr =  1.94E-04,  avg # of iterations =  1.0

     total cpu time spent up to now is        1.0 secs

     total energy              =    -151.24509207 Ry
     Harris-Foulkes estimate   =    -151.24482018 Ry
     estimated scf accuracy    <       0.02786769 Ry

     iteration #  9     ecut=    70.00 Ry     beta=0.70
     Davidson diagonalization with overlap
     ethr =  1.74E-04,  avg # of iterations =  1.0

     total cpu time spent up to now is        1.1 secs

     total energy              =    -151.24278474 Ry
     Harris-Foulkes estimate   =    -151.24511928 Ry
     estimated scf accuracy    <       0.02758115 Ry

     iteration # 10     ecut=    70.00 Ry     beta=0.70
     Davidson diagonalization with overlap
     ethr =  1.72E-04,  avg # of iterations =  1.0

     total cpu time spent up to now is        1.2 secs

     total energy              =    -151.23048556 Ry
     Harris-Foulkes estimate   =    -151.24290636 Ry
     estimated scf accuracy    <       0.02121321 Ry

     iteration # 11     ecut=    70.00 Ry     beta=0.70
     Davidson diagonalization with overlap
     ethr =  1.33E-04,  avg # of iterations =  2.6

     total cpu time spent up to now is        1.3 secs

     total energy              =    -151.25367586 Ry
     Harris-Foulkes estimate   =    -151.25285487 Ry
     estimated scf accuracy    <       0.00139076 Ry

     iteration # 12     ecut=    70.00 Ry     beta=0.70
     Davidson diagonalization with overlap
     ethr =  8.69E-06,  avg # of iterations =  4.1

     total cpu time spent up to now is        1.4 secs

     total energy              =    -151.36834174 Ry
     Harris-Foulkes estimate   =    -151.39597936 Ry
     estimated scf accuracy    <       0.08063095 Ry

     iteration # 13     ecut=    70.00 Ry     beta=0.70
     Davidson diagonalization with overlap
     ethr =  8.69E-06,  avg # of iterations =  3.7

     total cpu time spent up to now is        1.5 secs

     total energy              =    -151.36009006 Ry
     Harris-Foulkes estimate   =    -151.40706954 Ry
     estimated scf accuracy    <       0.06640761 Ry

     iteration # 14     ecut=    70.00 Ry     beta=0.70
     Davidson diagonalization with overlap
     ethr =  8.69E-06,  avg # of iterations =  4.1

     total cpu time spent up to now is        1.7 secs

     total energy              =    -151.35933239 Ry
     Harris-Foulkes estimate   =    -151.39824819 Ry
     estimated scf accuracy    <       0.06028066 Ry

     iteration # 15     ecut=    70.00 Ry     beta=0.70
     Davidson diagonalization with overlap
     ethr =  8.69E-06,  avg # of iterations =  4.0

     total cpu time spent up to now is        1.8 secs

     total energy              =    -151.41689207 Ry
     Harris-Foulkes estimate   =    -151.39953613 Ry
     estimated scf accuracy    <       0.04465341 Ry

     iteration # 16     ecut=    70.00 Ry     beta=0.70
     Davidson diagonalization with overlap
     ethr =  8.69E-06,  avg # of iterations =  4.2

     total cpu time spent up to now is        1.9 secs

     total energy              =    -151.62517310 Ry
     Harris-Foulkes estimate   =    -151.66037149 Ry
     estimated scf accuracy    <       0.67565942 Ry

     iteration # 17     ecut=    70.00 Ry     beta=0.70
     Davidson diagonalization with overlap
     ethr =  8.69E-06,  avg # of iterations =  3.5

     total cpu time spent up to now is        2.0 secs

     total energy              =    -151.63896329 Ry
     Harris-Foulkes estimate   =    -151.63973634 Ry
     estimated scf accuracy    <       0.60009202 Ry

     iteration # 18     ecut=    70.00 Ry     beta=0.70
     Davidson diagonalization with overlap
     ethr =  8.69E-06,  avg # of iterations =  1.0

     total cpu time spent up to now is        2.1 secs

     total energy              =    -151.64092869 Ry
     Harris-Foulkes estimate   =    -151.63896623 Ry
     estimated scf accuracy    <       0.59733961 Ry

     iteration # 19     ecut=    70.00 Ry     beta=0.70
     Davidson diagonalization with overlap
     ethr =  8.69E-06,  avg # of iterations =  1.0

     total cpu time spent up to now is        2.2 secs

     total energy              =    -151.60633969 Ry
     Harris-Foulkes estimate   =    -151.64093057 Ry
     estimated scf accuracy    <       0.60189921 Ry

     iteration # 20     ecut=    70.00 Ry     beta=0.70
     Davidson diagonalization with overlap
     ethr =  8.69E-06,  avg # of iterations =  2.8

     total cpu time spent up to now is        2.3 secs

     total energy              =    -151.61894175 Ry
     Harris-Foulkes estimate   =    -151.60738605 Ry
     estimated scf accuracy    <       0.48886232 Ry

     iteration # 21     ecut=    70.00 Ry     beta=0.70
     Davidson diagonalization with overlap
     ethr =  8.69E-06,  avg # of iterations =  2.3

     total cpu time spent up to now is        2.4 secs

     total energy              =    -151.62122552 Ry
     Harris-Foulkes estimate   =    -151.61910177 Ry
     estimated scf accuracy    <       0.53041114 Ry

     iteration # 22     ecut=    70.00 Ry     beta=0.70
     Davidson diagonalization with overlap
     ethr =  8.69E-06,  avg # of iterations =  1.0

     total cpu time spent up to now is        2.5 secs

     total energy              =    -151.67057027 Ry
     Harris-Foulkes estimate   =    -151.62124563 Ry
     estimated scf accuracy    <       0.53982993 Ry

     iteration # 23     ecut=    70.00 Ry     beta=0.70
     Davidson diagonalization with overlap
     ethr =  8.69E-06,  avg # of iterations =  2.8

     total cpu time spent up to now is        2.6 secs

     total energy              =    -151.59137656 Ry
     Harris-Foulkes estimate   =    -151.67265369 Ry
     estimated scf accuracy    <       0.70425828 Ry

     iteration # 24     ecut=    70.00 Ry     beta=0.70
     Davidson diagonalization with overlap
     ethr =  8.69E-06,  avg # of iterations =  3.4

     total cpu time spent up to now is        2.7 secs

     total energy              =    -151.45308089 Ry
     Harris-Foulkes estimate   =    -151.59614854 Ry
     estimated scf accuracy    <       0.45254668 Ry

     iteration # 25     ecut=    70.00 Ry     beta=0.70
     Davidson diagonalization with overlap
     ethr =  8.69E-06,  avg # of iterations =  4.2

     total cpu time spent up to now is        2.9 secs

     total energy              =    -151.50104094 Ry
     Harris-Foulkes estimate   =    -151.49773486 Ry
     estimated scf accuracy    <       0.00695496 Ry

     iteration # 26     ecut=    70.00 Ry     beta=0.70
     Davidson diagonalization with overlap
     ethr =  8.69E-06,  avg # of iterations =  3.4

     total cpu time spent up to now is        3.0 secs

     total energy              =    -151.49610690 Ry
     Harris-Foulkes estimate   =    -151.50152821 Ry
     estimated scf accuracy    <       0.01787845 Ry

     iteration # 27     ecut=    70.00 Ry     beta=0.70
     Davidson diagonalization with overlap
     ethr =  8.69E-06,  avg # of iterations =  3.1

     total cpu time spent up to now is        3.1 secs

     total energy              =    -151.49742937 Ry
     Harris-Foulkes estimate   =    -151.49802338 Ry
     estimated scf accuracy    <       0.00243417 Ry

     iteration # 28     ecut=    70.00 Ry     beta=0.70
     Davidson diagonalization with overlap
     ethr =  8.69E-06,  avg # of iterations =  3.6

     total cpu time spent up to now is        3.2 secs

     total energy              =    -151.49823362 Ry
     Harris-Foulkes estimate   =    -151.50023291 Ry
     estimated scf accuracy    <       0.01923127 Ry

     iteration # 29     ecut=    70.00 Ry     beta=0.70
     Davidson diagonalization with overlap
     ethr =  8.69E-06,  avg # of iterations =  2.7

     total cpu time spent up to now is        3.3 secs

     total energy              =    -151.49865045 Ry
     Harris-Foulkes estimate   =    -151.49849032 Ry
     estimated scf accuracy    <       0.00897516 Ry

     iteration # 30     ecut=    70.00 Ry     beta=0.70
     Davidson diagonalization with overlap
     ethr =  8.69E-06,  avg # of iterations =  1.0

     total cpu time spent up to now is        3.4 secs

     total energy              =    -151.49734335 Ry
     Harris-Foulkes estimate   =    -151.49865501 Ry
     estimated scf accuracy    <       0.00930808 Ry

     iteration # 31     ecut=    70.00 Ry     beta=0.70
     Davidson diagonalization with overlap
     ethr =  8.69E-06,  avg # of iterations =  2.5

     total cpu time spent up to now is        3.5 secs

     total energy              =    -151.49654619 Ry
     Harris-Foulkes estimate   =    -151.49758727 Ry
     estimated scf accuracy    <       0.00257797 Ry

     iteration # 32     ecut=    70.00 Ry     beta=0.70
     Davidson diagonalization with overlap
     ethr =  8.69E-06,  avg # of iterations =  2.9

     total cpu time spent up to now is        3.6 secs

     total energy              =    -151.49707303 Ry
     Harris-Foulkes estimate   =    -151.49737186 Ry
     estimated scf accuracy    <       0.00111166 Ry

     iteration # 33     ecut=    70.00 Ry     beta=0.70
     Davidson diagonalization with overlap
     ethr =  6.95E-06,  avg # of iterations =  2.5

     total cpu time spent up to now is        3.7 secs

     total energy              =    -151.49720803 Ry
     Harris-Foulkes estimate   =    -151.49720773 Ry
     estimated scf accuracy    <       0.00000009 Ry

     iteration # 34     ecut=    70.00 Ry     beta=0.70
     Davidson diagonalization with overlap
     ethr =  5.64E-10,  avg # of iterations =  6.6

     total cpu time spent up to now is        3.9 secs

     total energy              =    -151.53539387 Ry
     Harris-Foulkes estimate   =    -151.53554976 Ry
     estimated scf accuracy    <       0.04039038 Ry

     iteration # 35     ecut=    70.00 Ry     beta=0.70
     Davidson diagonalization with overlap
     ethr =  5.64E-10,  avg # of iterations =  4.3

     total cpu time spent up to now is        4.0 secs

     total energy              =    -151.53529567 Ry
     Harris-Foulkes estimate   =    -151.53539477 Ry
     estimated scf accuracy    <       0.03920221 Ry

     iteration # 36     ecut=    70.00 Ry     beta=0.70
     Davidson diagonalization with overlap
     ethr =  5.64E-10,  avg # of iterations =  4.3

     total cpu time spent up to now is        4.1 secs

     total energy              =    -151.53531971 Ry
     Harris-Foulkes estimate   =    -151.53529601 Ry
     estimated scf accuracy    <       0.03849466 Ry

     iteration # 37     ecut=    70.00 Ry     beta=0.70
     Davidson diagonalization with overlap
     ethr =  5.64E-10,  avg # of iterations =  3.1

     total cpu time spent up to now is        4.2 secs

     total energy              =    -151.53532209 Ry
     Harris-Foulkes estimate   =    -151.53531973 Ry
     estimated scf accuracy    <       0.03864503 Ry

     iteration # 38     ecut=    70.00 Ry     beta=0.70
     Davidson diagonalization with overlap
     ethr =  5.64E-10,  avg # of iterations =  1.0

     total cpu time spent up to now is        4.3 secs

     total energy              =    -151.53531467 Ry
     Harris-Foulkes estimate   =    -151.53532209 Ry
     estimated scf accuracy    <       0.03865737 Ry

     iteration # 39     ecut=    70.00 Ry     beta=0.70
     Davidson diagonalization with overlap
     ethr =  5.64E-10,  avg # of iterations =  1.0

     total cpu time spent up to now is        4.4 secs

     total energy              =    -151.53531672 Ry
     Harris-Foulkes estimate   =    -151.53531467 Ry
     estimated scf accuracy    <       0.03863691 Ry

     iteration # 40     ecut=    70.00 Ry     beta=0.70
     Davidson diagonalization with overlap
     ethr =  5.64E-10,  avg # of iterations =  1.0

     total cpu time spent up to now is        4.5 secs

     total energy              =    -151.53529968 Ry
     Harris-Foulkes estimate   =    -151.53531672 Ry
     estimated scf accuracy    <       0.03864661 Ry

     iteration # 41     ecut=    70.00 Ry     beta=0.70
     Davidson diagonalization with overlap
     ethr =  5.64E-10,  avg # of iterations =  2.8

     total cpu time spent up to now is        4.6 secs

     total energy              =    -151.53528998 Ry
     Harris-Foulkes estimate   =    -151.53529970 Ry
     estimated scf accuracy    <       0.03848877 Ry

     iteration # 42     ecut=    70.00 Ry     beta=0.70
     Davidson diagonalization with overlap
     ethr =  5.64E-10,  avg # of iterations =  1.5

     total cpu time spent up to now is        4.7 secs

     total energy              =    -151.52679010 Ry
     Harris-Foulkes estimate   =    -151.53528999 Ry
     estimated scf accuracy    <       0.03844466 Ry

     iteration # 43     ecut=    70.00 Ry     beta=0.70
     Davidson diagonalization with overlap
     ethr =  5.64E-10,  avg # of iterations =  7.8

     total cpu time spent up to now is        4.9 secs

     total energy              =    -151.53028878 Ry
     Harris-Foulkes estimate   =    -151.53033076 Ry
     estimated scf accuracy    <       0.00007775 Ry

     iteration # 44     ecut=    70.00 Ry     beta=0.70
     Davidson diagonalization with overlap
     ethr =  5.64E-10,  avg # of iterations =  5.4

     total cpu time spent up to now is        5.1 secs

     total energy              =    -151.53027378 Ry
     Harris-Foulkes estimate   =    -151.53035837 Ry
     estimated scf accuracy    <       0.00030550 Ry

     iteration # 45     ecut=    70.00 Ry     beta=0.70
     Davidson diagonalization with overlap
     ethr =  5.64E-10,  avg # of iterations =  5.3

     total cpu time spent up to now is        5.2 secs

     total energy              =    -151.53032018 Ry
     Harris-Foulkes estimate   =    -151.53032516 Ry
     estimated scf accuracy    <       0.00002579 Ry

     iteration # 46     ecut=    70.00 Ry     beta=0.70
     Davidson diagonalization with overlap
     ethr =  5.64E-10,  avg # of iterations =  4.4

     total cpu time spent up to now is        5.4 secs

     total energy              =    -151.53032196 Ry
     Harris-Foulkes estimate   =    -151.53032209 Ry
     estimated scf accuracy    <       0.00000055 Ry

     iteration # 47     ecut=    70.00 Ry     beta=0.70
     Davidson diagonalization with overlap
     ethr =  5.64E-10,  avg # of iterations =  3.4

     total cpu time spent up to now is        5.5 secs

     End of self-consistent calculation

          k = 0.0000 0.0000 0.0000 (  4945 PWs)   bands (ev):

   -78.7591 -45.4563 -45.4563 -45.4563 -15.5973  -2.4775  -0.9760  -0.9760

          k = 0.0000 0.0000 0.2500 (  4957 PWs)   bands (ev):

   -78.7591 -45.4564 -45.4564 -45.4562 -15.5859  -2.5260  -0.9321  -0.9321

          k = 0.0000 0.0000-0.5000 (  4950 PWs)   bands (ev):

   -78.7591 -45.4563 -45.4563 -45.4563 -15.5745  -2.6018  -0.8871  -0.8871

          k = 0.0000 0.2500 0.2500 (  4963 PWs)   bands (ev):

   -78.7591 -45.4567 -45.4567 -45.4561 -15.5754  -2.3377  -1.2756  -0.8954

          k = 0.0000 0.2500-0.5000 (  4982 PWs)   bands (ev):

   -78.7591 -45.4570 -45.4569 -45.4568 -15.5647  -2.2210  -1.2829  -0.8579

          k = 0.0000-0.5000-0.5000 (  4972 PWs)   bands (ev):

   -78.7591 -45.4568 -45.4568 -45.4563 -15.5550  -1.5736  -1.5736  -0.8277

          k = 0.2500 0.2500 0.2500 (  4953 PWs)   bands (ev):

   -78.7591 -45.4566 -45.4563 -45.4563 -15.5654  -2.0961  -1.1798  -1.1798

          k = 0.2500 0.2500-0.5000 (  4930 PWs)   bands (ev):

   -78.7591 -45.4563 -45.4558 -45.4556 -15.5555  -1.8937  -1.2601  -1.0779

          k = 0.2500-0.5000-0.5000 (  4936 PWs)   bands (ev):

   -78.7591 -45.4568 -45.4558 -45.4558 -15.5461  -1.4280  -1.4280  -1.0584

          k =-0.5000-0.5000-0.5000 (  4896 PWs)   bands (ev):

   -78.7591 -45.4555 -45.4555 -45.4555 -15.5373  -1.2652  -1.2652  -1.2652

     highest occupied level (ev):    -0.8277

!    total energy              =    -151.53032202 Ry
     Harris-Foulkes estimate   =    -151.53032202 Ry
     estimated scf accuracy    <          4.1E-10 Ry

     The total energy is the sum of the following terms:

     one-electron contribution =    -128.99524230 Ry
     hartree contribution      =      61.79104861 Ry
     xc contribution           =     -23.61834713 Ry
     ewald contribution        =     -60.70778120 Ry

     convergence has been achieved in  47 iterations

     Forces acting on atoms (cartesian axes, Ry/au):

     atom    1 type  1   force =     0.00000000    0.00000000    0.00000000
     atom    2 type  2   force =     0.00000000    0.00000000    0.00000000

     Total force =     0.000000     Total SCF correction =     0.000000


     Computing stress (Cartesian axis) and pressure

          total   stress  (Ry/bohr**3)                   (kbar)     P= -122.62
  -0.00083353   0.00000000   0.00000000       -122.62      0.00      0.00
   0.00000000  -0.00083353   0.00000000          0.00   -122.62      0.00
   0.00000000   0.00000000  -0.00083353          0.00      0.00   -122.62


     Writing output data file diamond.7.9414.70.4.save
 
     init_run     :      0.09s CPU      0.09s WALL (       1 calls)
     electrons    :      5.16s CPU      5.30s WALL (       1 calls)
     forces       :      0.02s CPU      0.02s WALL (       1 calls)
     stress       :      0.05s CPU      0.05s WALL (       1 calls)

     Called by init_run:
     wfcinit      :      0.04s CPU      0.04s WALL (       1 calls)
     potinit      :      0.01s CPU      0.01s WALL (       1 calls)

     Called by electrons:
     c_bands      :      4.16s CPU      4.28s WALL (      47 calls)
     sum_band     :      0.71s CPU      0.72s WALL (      47 calls)
     v_of_rho     :      0.22s CPU      0.23s WALL (      48 calls)
     mix_rho      :      0.06s CPU      0.06s WALL (      47 calls)

     Called by c_bands:
     init_us_2    :      0.15s CPU      0.14s WALL (     970 calls)
     cegterg      :      3.82s CPU      3.94s WALL (     470 calls)

     Called by sum_band:

     Called by *egterg:
     h_psi        :      3.28s CPU      3.38s WALL (    1871 calls)
     g_psi        :      0.01s CPU      0.01s WALL (    1391 calls)
     cdiaghg      :      0.27s CPU      0.27s WALL (    1861 calls)

     Called by h_psi:
     h_psi:pot    :      3.27s CPU      3.37s WALL (    1871 calls)
     h_psi:calbec :      0.12s CPU      0.11s WALL (    1871 calls)
     vloc_psi     :      3.11s CPU      3.20s WALL (    1871 calls)
     add_vuspsi   :      0.03s CPU      0.05s WALL (    1871 calls)

     General routines
     calbec       :      0.12s CPU      0.10s WALL (    1921 calls)
     fft          :      0.12s CPU      0.12s WALL (     552 calls)
     fftw         :      3.55s CPU      3.53s WALL (   24228 calls)
     davcio       :      0.00s CPU      0.00s WALL (      10 calls)
 
     Parallel routines
     fft_scatter  :      0.61s CPU      0.72s WALL (   24780 calls)
 
     PWSCF        :     5.46s CPU         5.62s WALL

 
   This run was terminated on:  15:56:16  19Apr2018            

=------------------------------------------------------------------------------=
   JOB DONE.
=------------------------------------------------------------------------------=
