
     Program PWSCF v.6.1 (svn rev. 13369) starts on 19Apr2018 at 18:11:50 

     This program is part of the open-source Quantum ESPRESSO suite
     for quantum simulation of materials; please cite
         "P. Giannozzi et al., J. Phys.:Condens. Matter 21 395502 (2009);
          URL http://www.quantum-espresso.org", 
     in publications or presentations arising from this work. More details at
     http://www.quantum-espresso.org/quote

     Parallel version (MPI), running on     8 processors
     R & G space division:  proc/nbgrp/npool/nimage =       8
     Waiting for input...
     Reading input from standard input

     Current dimensions of program PWSCF are:
     Max number of different atomic species (ntypx) = 10
     Max number of k-points (npk) =  40000
     Max angular momentum in pseudopotentials (lmaxx) =  3

     Subspace diagonalization in iterative solution of the eigenvalue problem:
     a serial algorithm will be used

 
     Parallelization info
     --------------------
     sticks:   dense  smooth     PW     G-vecs:    dense   smooth      PW
     Min          76      76     23                 1260     1260     209
     Max          77      77     24                 1261     1261     212
     Sum         613     613    187                10081    10081    1687
 


     bravais-lattice index     =            2
     lattice parameter (alat)  =       8.0050  a.u.
     unit-cell volume          =     128.2402 (a.u.)^3
     number of atoms/cell      =            2
     number of atomic types    =            2
     number of electrons       =        16.00
     number of Kohn-Sham states=            8
     kinetic-energy cutoff     =      70.0000  Ry
     charge density cutoff     =     280.0000  Ry
     convergence threshold     =      1.0E-08
     mixing beta               =       0.7000
     number of iterations used =            8  plain     mixing
     Exchange-correlation      = PBE ( 1  4  3  4 0 0)

     celldm(1)=   8.005000  celldm(2)=   0.000000  celldm(3)=   0.000000
     celldm(4)=   0.000000  celldm(5)=   0.000000  celldm(6)=   0.000000

     crystal axes: (cart. coord. in units of alat)
               a(1) = (  -0.500000   0.000000   0.500000 )  
               a(2) = (   0.000000   0.500000   0.500000 )  
               a(3) = (  -0.500000   0.500000   0.000000 )  

     reciprocal axes: (cart. coord. in units 2 pi/alat)
               b(1) = ( -1.000000 -1.000000  1.000000 )  
               b(2) = (  1.000000  1.000000  1.000000 )  
               b(3) = ( -1.000000  1.000000 -1.000000 )  


     PseudoPot. # 1 for Mg read from file:
     ../pseudo/Mg.pbe.UPF
     MD5 check sum: 4c04d8c6e0476e83eaecaf72fa8acc4d
     Pseudo is Norm-conserving, Zval = 10.0
     Generated using ONCVPSP code by D. R. Hamann
     Using radial grid of 1510 points,  4 beta functions with: 
                l(1) =   0
                l(2) =   0
                l(3) =   1
                l(4) =   1

     PseudoPot. # 2 for O  read from file:
     ../pseudo/O.pbe.UPF
     MD5 check sum: 3e3f909f7470e8921608ab6b1f57bbae
     Pseudo is Norm-conserving + core correction, Zval =  6.0
     Generated using ONCVPSP code by D. R. Hamann
     Using radial grid of  936 points,  5 beta functions with: 
                l(1) =   0
                l(2) =   0
                l(3) =   1
                l(4) =   1
                l(5) =   2

     atomic species   valence    mass     pseudopotential
        Mg            10.00    24.30500     Mg( 1.00)
        O              6.00    15.99940     O ( 1.00)

     48 Sym. Ops., with inversion, found



   Cartesian axes

     site n.     atom                  positions (alat units)
         1           Mg  tau(   1) = (   0.0000000   0.0000000   0.0000000  )
         2           O   tau(   2) = (   0.5000000   0.5000000   0.5000000  )

     number of k points=     8
                       cart. coord. in units 2pi/alat
        k(    1) = (   0.0000000   0.0000000   0.0000000), wk =   0.0312500
        k(    2) = (  -0.2500000   0.2500000  -0.2500000), wk =   0.2500000
        k(    3) = (   0.5000000  -0.5000000   0.5000000), wk =   0.1250000
        k(    4) = (   0.0000000   0.5000000   0.0000000), wk =   0.1875000
        k(    5) = (   0.7500000  -0.2500000   0.7500000), wk =   0.7500000
        k(    6) = (   0.5000000   0.0000000   0.5000000), wk =   0.3750000
        k(    7) = (   0.0000000  -1.0000000   0.0000000), wk =   0.0937500
        k(    8) = (  -0.5000000  -1.0000000   0.0000000), wk =   0.1875000

     Dense  grid:    10081 G-vectors     FFT dimensions: (  32,  32,  32)

     Estimated max dynamical RAM per process >       1.14MB

     Estimated total allocated dynamical RAM >       9.13MB

     Check: negative/imaginary core charge=   -0.000008    0.000000

     Initial potential from superposition of free atoms

     starting charge   15.99920, renormalised to   16.00000
     Starting wfc are    9 randomized atomic wfcs

     total cpu time spent up to now is        0.1 secs

     per-process dynamical memory:    31.8 Mb

     Self-consistent Calculation

     iteration #  1     ecut=    70.00 Ry     beta=0.70
     Davidson diagonalization with overlap
     ethr =  1.00E-02,  avg # of iterations =  2.0

     total cpu time spent up to now is        0.2 secs

     total energy              =    -151.93109378 Ry
     Harris-Foulkes estimate   =    -152.21072552 Ry
     estimated scf accuracy    <       0.38882227 Ry

     iteration #  2     ecut=    70.00 Ry     beta=0.70
     Davidson diagonalization with overlap
     ethr =  2.43E-03,  avg # of iterations =  2.4

     total cpu time spent up to now is        0.2 secs

     total energy              =    -152.02946870 Ry
     Harris-Foulkes estimate   =    -152.19558586 Ry
     estimated scf accuracy    <       0.34164953 Ry

     iteration #  3     ecut=    70.00 Ry     beta=0.70
     Davidson diagonalization with overlap
     ethr =  2.14E-03,  avg # of iterations =  2.0

     total cpu time spent up to now is        0.2 secs

     total energy              =    -152.09688847 Ry
     Harris-Foulkes estimate   =    -152.09702521 Ry
     estimated scf accuracy    <       0.00160400 Ry

     iteration #  4     ecut=    70.00 Ry     beta=0.70
     Davidson diagonalization with overlap
     ethr =  1.00E-05,  avg # of iterations =  2.0

     total cpu time spent up to now is        0.2 secs

     total energy              =    -152.09722181 Ry
     Harris-Foulkes estimate   =    -152.09723161 Ry
     estimated scf accuracy    <       0.00002526 Ry

     iteration #  5     ecut=    70.00 Ry     beta=0.70
     Davidson diagonalization with overlap
     ethr =  1.58E-07,  avg # of iterations =  1.1

     total cpu time spent up to now is        0.2 secs

     total energy              =    -152.09722333 Ry
     Harris-Foulkes estimate   =    -152.09722306 Ry
     estimated scf accuracy    <       0.00000269 Ry

     iteration #  6     ecut=    70.00 Ry     beta=0.70
     Davidson diagonalization with overlap
     ethr =  1.68E-08,  avg # of iterations =  2.0

     total cpu time spent up to now is        0.3 secs

     total energy              =    -152.09722378 Ry
     Harris-Foulkes estimate   =    -152.09722391 Ry
     estimated scf accuracy    <       0.00000031 Ry

     iteration #  7     ecut=    70.00 Ry     beta=0.70
     Davidson diagonalization with overlap
     ethr =  1.94E-09,  avg # of iterations =  2.0

     total cpu time spent up to now is        0.3 secs

     total energy              =    -152.09722378 Ry
     Harris-Foulkes estimate   =    -152.09722381 Ry
     estimated scf accuracy    <       0.00000005 Ry

     iteration #  8     ecut=    70.00 Ry     beta=0.70
     Davidson diagonalization with overlap
     ethr =  2.91E-10,  avg # of iterations =  2.0

     total cpu time spent up to now is        0.3 secs

     End of self-consistent calculation

          k = 0.0000 0.0000 0.0000 (  1243 PWs)   bands (ev):

   -64.6083 -31.3402 -31.3402 -31.3402  -9.2455   7.8641   7.8641   7.8641

          k =-0.2500 0.2500-0.2500 (  1278 PWs)   bands (ev):

   -64.6044 -31.3820 -31.3466 -31.3466  -8.6602   5.2513   7.5392   7.5392

          k = 0.5000-0.5000 0.5000 (  1260 PWs)   bands (ev):

   -64.6004 -31.4189 -31.3502 -31.3502  -7.9711   3.3415   7.2417   7.2417

          k = 0.0000 0.5000 0.0000 (  1283 PWs)   bands (ev):

   -64.6031 -31.3783 -31.3567 -31.3567  -8.5059   5.2841   7.1477   7.1477

          k = 0.7500-0.2500 0.7500 (  1264 PWs)   bands (ev):

   -64.5991 -31.4034 -31.3703 -31.3599  -7.8707   4.1361   6.0048   6.8789

          k = 0.5000 0.0000 0.5000 (  1278 PWs)   bands (ev):

   -64.6004 -31.3975 -31.3734 -31.3510  -8.0506   4.4373   5.9252   7.2402

          k = 0.0000-1.0000 0.0000 (  1266 PWs)   bands (ev):

   -64.5978 -31.4081 -31.3692 -31.3692  -7.7513   3.8895   6.5503   6.5503

          k =-0.5000-1.0000 0.0000 (  1256 PWs)   bands (ev):

   -64.5978 -31.3886 -31.3886 -31.3691  -7.6912   4.9910   4.9910   6.1369

     highest occupied level (ev):     7.8641

!    total energy              =    -152.09722379 Ry
     Harris-Foulkes estimate   =    -152.09722379 Ry
     estimated scf accuracy    <          2.2E-09 Ry

     The total energy is the sum of the following terms:

     one-electron contribution =     -75.17106688 Ry
     hartree contribution      =      41.78231699 Ry
     xc contribution           =     -24.47871896 Ry
     ewald contribution        =     -94.22975494 Ry

     convergence has been achieved in   8 iterations

     Forces acting on atoms (cartesian axes, Ry/au):

     atom    1 type  1   force =     0.00000000    0.00000000    0.00000000
     atom    2 type  2   force =    -0.00000000   -0.00000000   -0.00000000

     Total force =     0.000000     Total SCF correction =     0.000000


     Computing stress (Cartesian axis) and pressure

          total   stress  (Ry/bohr**3)                   (kbar)     P=  -46.43
  -0.00031565  -0.00000000  -0.00000000        -46.43     -0.00     -0.00
  -0.00000000  -0.00031565   0.00000000         -0.00    -46.43      0.00
  -0.00000000   0.00000000  -0.00031565         -0.00      0.00    -46.43


     Writing output data file diamond.8.005.70.4.save
 
     init_run     :      0.02s CPU      0.03s WALL (       1 calls)
     electrons    :      0.16s CPU      0.17s WALL (       1 calls)
     forces       :      0.01s CPU      0.01s WALL (       1 calls)
     stress       :      0.02s CPU      0.02s WALL (       1 calls)

     Called by init_run:
     wfcinit      :      0.01s CPU      0.01s WALL (       1 calls)
     potinit      :      0.00s CPU      0.00s WALL (       1 calls)

     Called by electrons:
     c_bands      :      0.12s CPU      0.13s WALL (       8 calls)
     sum_band     :      0.02s CPU      0.02s WALL (       8 calls)
     v_of_rho     :      0.01s CPU      0.01s WALL (       9 calls)
     mix_rho      :      0.00s CPU      0.00s WALL (       8 calls)

     Called by c_bands:
     init_us_2    :      0.00s CPU      0.01s WALL (     152 calls)
     cegterg      :      0.12s CPU      0.12s WALL (      64 calls)

     Called by sum_band:

     Called by *egterg:
     h_psi        :      0.08s CPU      0.09s WALL (     196 calls)
     g_psi        :      0.00s CPU      0.00s WALL (     124 calls)
     cdiaghg      :      0.02s CPU      0.02s WALL (     188 calls)

     Called by h_psi:
     h_psi:pot    :      0.08s CPU      0.09s WALL (     196 calls)
     h_psi:calbec :      0.01s CPU      0.01s WALL (     196 calls)
     vloc_psi     :      0.07s CPU      0.08s WALL (     196 calls)
     add_vuspsi   :      0.00s CPU      0.00s WALL (     196 calls)

     General routines
     calbec       :      0.01s CPU      0.01s WALL (     236 calls)
     fft          :      0.00s CPU      0.01s WALL (     123 calls)
     fftw         :      0.08s CPU      0.09s WALL (    3244 calls)
     davcio       :      0.00s CPU      0.00s WALL (       8 calls)
 
     Parallel routines
     fft_scatter  :      0.03s CPU      0.04s WALL (    3367 calls)
 
     PWSCF        :     0.33s CPU         0.38s WALL

 
   This run was terminated on:  18:11:50  19Apr2018            

=------------------------------------------------------------------------------=
   JOB DONE.
=------------------------------------------------------------------------------=
