
     Program PWSCF v.6.1 (svn rev. 13369) starts on 19Apr2018 at 16:53:12 

     This program is part of the open-source Quantum ESPRESSO suite
     for quantum simulation of materials; please cite
         "P. Giannozzi et al., J. Phys.:Condens. Matter 21 395502 (2009);
          URL http://www.quantum-espresso.org", 
     in publications or presentations arising from this work. More details at
     http://www.quantum-espresso.org/quote

     Parallel version (MPI), running on     8 processors
     R & G space division:  proc/nbgrp/npool/nimage =       8
     Waiting for input...
     Reading input from standard input

     Current dimensions of program PWSCF are:
     Max number of different atomic species (ntypx) = 10
     Max number of k-points (npk) =  40000
     Max angular momentum in pseudopotentials (lmaxx) =  3

     Subspace diagonalization in iterative solution of the eigenvalue problem:
     a serial algorithm will be used

 
     Parallelization info
     --------------------
     sticks:   dense  smooth     PW     G-vecs:    dense   smooth      PW
     Min         139     139     42                 3543     3543     578
     Max         140     140     44                 3546     3546     579
     Sum        1117    1117    341                28353    28353    4625
 


     bravais-lattice index     =            8
     lattice parameter (alat)  =       7.1000  a.u.
     unit-cell volume          =     357.9110 (a.u.)^3
     number of atoms/cell      =            2
     number of atomic types    =            2
     number of electrons       =        16.00
     number of Kohn-Sham states=            8
     kinetic-energy cutoff     =      70.0000  Ry
     charge density cutoff     =     280.0000  Ry
     convergence threshold     =      1.0E-08
     mixing beta               =       0.7000
     number of iterations used =            8  plain     mixing
     Exchange-correlation      = PBE ( 1  4  3  4 0 0)

     celldm(1)=   7.100000  celldm(2)=   1.000000  celldm(3)=   1.000000
     celldm(4)=   0.000000  celldm(5)=   0.000000  celldm(6)=   0.000000

     crystal axes: (cart. coord. in units of alat)
               a(1) = (   1.000000   0.000000   0.000000 )  
               a(2) = (   0.000000   1.000000   0.000000 )  
               a(3) = (   0.000000   0.000000   1.000000 )  

     reciprocal axes: (cart. coord. in units 2 pi/alat)
               b(1) = (  1.000000  0.000000  0.000000 )  
               b(2) = (  0.000000  1.000000  0.000000 )  
               b(3) = (  0.000000  0.000000  1.000000 )  


     PseudoPot. # 1 for Mg read from file:
     ../pseudo/Mg.pbe.UPF
     MD5 check sum: 4c04d8c6e0476e83eaecaf72fa8acc4d
     Pseudo is Norm-conserving, Zval = 10.0
     Generated using ONCVPSP code by D. R. Hamann
     Using radial grid of 1510 points,  4 beta functions with: 
                l(1) =   0
                l(2) =   0
                l(3) =   1
                l(4) =   1

     PseudoPot. # 2 for O  read from file:
     ../pseudo/O.pbe.UPF
     MD5 check sum: 3e3f909f7470e8921608ab6b1f57bbae
     Pseudo is Norm-conserving + core correction, Zval =  6.0
     Generated using ONCVPSP code by D. R. Hamann
     Using radial grid of  936 points,  5 beta functions with: 
                l(1) =   0
                l(2) =   0
                l(3) =   1
                l(4) =   1
                l(5) =   2

     atomic species   valence    mass     pseudopotential
        Mg            10.00    24.30500     Mg( 1.00)
        O              6.00    15.99940     O ( 1.00)

     48 Sym. Ops., with inversion, found



   Cartesian axes

     site n.     atom                  positions (alat units)
         1           Mg  tau(   1) = (   0.0000000   0.0000000   0.0000000  )
         2           O   tau(   2) = (   0.5000000   0.5000000   0.5000000  )

     number of k points=    10
                       cart. coord. in units 2pi/alat
        k(    1) = (   0.0000000   0.0000000   0.0000000), wk =   0.0312500
        k(    2) = (   0.0000000   0.0000000   0.2500000), wk =   0.1875000
        k(    3) = (   0.0000000   0.0000000  -0.5000000), wk =   0.0937500
        k(    4) = (   0.0000000   0.2500000   0.2500000), wk =   0.3750000
        k(    5) = (   0.0000000   0.2500000  -0.5000000), wk =   0.3750000
        k(    6) = (   0.0000000  -0.5000000  -0.5000000), wk =   0.0937500
        k(    7) = (   0.2500000   0.2500000   0.2500000), wk =   0.2500000
        k(    8) = (   0.2500000   0.2500000  -0.5000000), wk =   0.3750000
        k(    9) = (   0.2500000  -0.5000000  -0.5000000), wk =   0.1875000
        k(   10) = (  -0.5000000  -0.5000000  -0.5000000), wk =   0.0312500

     Dense  grid:    28353 G-vectors     FFT dimensions: (  40,  40,  40)

     Estimated max dynamical RAM per process >       3.01MB

     Estimated total allocated dynamical RAM >      24.07MB

     Check: negative/imaginary core charge=   -0.000004    0.000000

     Initial potential from superposition of free atoms

     starting charge   15.99920, renormalised to   16.00000
     Starting wfc are    9 randomized atomic wfcs

     total cpu time spent up to now is        0.2 secs

     per-process dynamical memory:    28.8 Mb

     Self-consistent Calculation

     iteration #  1     ecut=    70.00 Ry     beta=0.70
     Davidson diagonalization with overlap
     ethr =  1.00E-02,  avg # of iterations =  2.0

     total cpu time spent up to now is        0.3 secs

     total energy              =    -150.87872829 Ry
     Harris-Foulkes estimate   =    -151.92665460 Ry
     estimated scf accuracy    <       1.34411356 Ry

     iteration #  2     ecut=    70.00 Ry     beta=0.70
     Davidson diagonalization with overlap
     ethr =  8.40E-03,  avg # of iterations =  3.9

     total cpu time spent up to now is        0.3 secs

     total energy              =    -150.48820297 Ry
     Harris-Foulkes estimate   =    -153.26776857 Ry
     estimated scf accuracy    <       9.24711799 Ry

     iteration #  3     ecut=    70.00 Ry     beta=0.70
     Davidson diagonalization with overlap
     ethr =  8.40E-03,  avg # of iterations =  3.8

     total cpu time spent up to now is        0.4 secs

     total energy              =    -151.45089518 Ry
     Harris-Foulkes estimate   =    -151.50259864 Ry
     estimated scf accuracy    <       0.09228623 Ry

     iteration #  4     ecut=    70.00 Ry     beta=0.70
     Davidson diagonalization with overlap
     ethr =  5.77E-04,  avg # of iterations =  2.6

     total cpu time spent up to now is        0.5 secs

     total energy              =    -151.47466353 Ry
     Harris-Foulkes estimate   =    -151.49623338 Ry
     estimated scf accuracy    <       0.04918381 Ry

     iteration #  5     ecut=    70.00 Ry     beta=0.70
     Davidson diagonalization with overlap
     ethr =  3.07E-04,  avg # of iterations =  2.3

     total cpu time spent up to now is        0.6 secs

     total energy              =    -151.48478335 Ry
     Harris-Foulkes estimate   =    -151.48486941 Ry
     estimated scf accuracy    <       0.00113267 Ry

     iteration #  6     ecut=    70.00 Ry     beta=0.70
     Davidson diagonalization with overlap
     ethr =  7.08E-06,  avg # of iterations =  1.6

     total cpu time spent up to now is        0.6 secs

     total energy              =    -151.48446376 Ry
     Harris-Foulkes estimate   =    -151.48485047 Ry
     estimated scf accuracy    <       0.00092589 Ry

     iteration #  7     ecut=    70.00 Ry     beta=0.70
     Davidson diagonalization with overlap
     ethr =  5.79E-06,  avg # of iterations =  2.2

     total cpu time spent up to now is        0.7 secs

     total energy              =    -151.48465598 Ry
     Harris-Foulkes estimate   =    -151.48466076 Ry
     estimated scf accuracy    <       0.00001462 Ry

     iteration #  8     ecut=    70.00 Ry     beta=0.70
     Davidson diagonalization with overlap
     ethr =  9.14E-08,  avg # of iterations =  3.7

     total cpu time spent up to now is        0.7 secs

     total energy              =    -151.58865009 Ry
     Harris-Foulkes estimate   =    -151.58963904 Ry
     estimated scf accuracy    <       0.05148624 Ry

     iteration #  9     ecut=    70.00 Ry     beta=0.70
     Davidson diagonalization with overlap
     ethr =  9.14E-08,  avg # of iterations =  3.2

     total cpu time spent up to now is        0.8 secs

     total energy              =    -151.58700290 Ry
     Harris-Foulkes estimate   =    -151.58866333 Ry
     estimated scf accuracy    <       0.04723933 Ry

     iteration # 10     ecut=    70.00 Ry     beta=0.70
     Davidson diagonalization with overlap
     ethr =  9.14E-08,  avg # of iterations =  4.8

     total cpu time spent up to now is        0.9 secs

     total energy              =    -151.70159120 Ry
     Harris-Foulkes estimate   =    -151.70203964 Ry
     estimated scf accuracy    <       0.21954926 Ry

     iteration # 11     ecut=    70.00 Ry     beta=0.70
     Davidson diagonalization with overlap
     ethr =  9.14E-08,  avg # of iterations =  2.2

     total cpu time spent up to now is        1.0 secs

     total energy              =    -151.69651901 Ry
     Harris-Foulkes estimate   =    -151.70159255 Ry
     estimated scf accuracy    <       0.21687125 Ry

     iteration # 12     ecut=    70.00 Ry     beta=0.70
     Davidson diagonalization with overlap
     ethr =  9.14E-08,  avg # of iterations =  3.7

     total cpu time spent up to now is        1.0 secs

     total energy              =    -151.69641962 Ry
     Harris-Foulkes estimate   =    -151.69662962 Ry
     estimated scf accuracy    <       0.19071601 Ry

     iteration # 13     ecut=    70.00 Ry     beta=0.70
     Davidson diagonalization with overlap
     ethr =  9.14E-08,  avg # of iterations =  1.0

     total cpu time spent up to now is        1.1 secs

     total energy              =    -151.70727646 Ry
     Harris-Foulkes estimate   =    -151.69641977 Ry
     estimated scf accuracy    <       0.18991659 Ry

     iteration # 14     ecut=    70.00 Ry     beta=0.70
     Davidson diagonalization with overlap
     ethr =  9.14E-08,  avg # of iterations =  4.0

     total cpu time spent up to now is        1.2 secs

     total energy              =    -151.70313410 Ry
     Harris-Foulkes estimate   =    -151.70781849 Ry
     estimated scf accuracy    <       0.24937288 Ry

     iteration # 15     ecut=    70.00 Ry     beta=0.70
     Davidson diagonalization with overlap
     ethr =  9.14E-08,  avg # of iterations =  3.6

     total cpu time spent up to now is        1.3 secs

     total energy              =    -151.68880645 Ry
     Harris-Foulkes estimate   =    -151.70321395 Ry
     estimated scf accuracy    <       0.22555256 Ry

     iteration # 16     ecut=    70.00 Ry     beta=0.70
     Davidson diagonalization with overlap
     ethr =  9.14E-08,  avg # of iterations =  4.2

     total cpu time spent up to now is        1.3 secs

     total energy              =    -151.91168129 Ry
     Harris-Foulkes estimate   =    -151.68970280 Ry
     estimated scf accuracy    <       0.15367242 Ry

     iteration # 17     ecut=    70.00 Ry     beta=0.70
     Davidson diagonalization with overlap
     ethr =  9.14E-08,  avg # of iterations =  5.2

     total cpu time spent up to now is        1.5 secs

     total energy              =    -151.98591142 Ry
     Harris-Foulkes estimate   =    -152.03233223 Ry
     estimated scf accuracy    <       1.46452471 Ry

     iteration # 18     ecut=    70.00 Ry     beta=0.70
     Davidson diagonalization with overlap
     ethr =  9.14E-08,  avg # of iterations =  3.9

     total cpu time spent up to now is        1.6 secs

     total energy              =    -151.47812800 Ry
     Harris-Foulkes estimate   =    -151.98649182 Ry
     estimated scf accuracy    <       1.32615628 Ry

     iteration # 19     ecut=    70.00 Ry     beta=0.70
     Davidson diagonalization with overlap
     ethr =  9.14E-08,  avg # of iterations =  6.0

     total cpu time spent up to now is        1.7 secs

     total energy              =    -151.66649199 Ry
     Harris-Foulkes estimate   =    -151.66507757 Ry
     estimated scf accuracy    <       0.01396608 Ry

     iteration # 20     ecut=    70.00 Ry     beta=0.70
     Davidson diagonalization with overlap
     ethr =  9.14E-08,  avg # of iterations =  4.1

     total cpu time spent up to now is        1.8 secs

     total energy              =    -151.66696438 Ry
     Harris-Foulkes estimate   =    -151.66671306 Ry
     estimated scf accuracy    <       0.02528709 Ry

     iteration # 21     ecut=    70.00 Ry     beta=0.70
     Davidson diagonalization with overlap
     ethr =  9.14E-08,  avg # of iterations =  3.0

     total cpu time spent up to now is        1.8 secs

     total energy              =    -151.66130216 Ry
     Harris-Foulkes estimate   =    -151.66697568 Ry
     estimated scf accuracy    <       0.02766255 Ry

     iteration # 22     ecut=    70.00 Ry     beta=0.70
     Davidson diagonalization with overlap
     ethr =  9.14E-08,  avg # of iterations =  4.6

     total cpu time spent up to now is        1.9 secs

     total energy              =    -151.66300610 Ry
     Harris-Foulkes estimate   =    -151.66299528 Ry
     estimated scf accuracy    <       0.00234481 Ry

     iteration # 23     ecut=    70.00 Ry     beta=0.70
     Davidson diagonalization with overlap
     ethr =  9.14E-08,  avg # of iterations =  1.7

     total cpu time spent up to now is        2.0 secs

     total energy              =    -151.66307466 Ry
     Harris-Foulkes estimate   =    -151.66300699 Ry
     estimated scf accuracy    <       0.00235504 Ry

     iteration # 24     ecut=    70.00 Ry     beta=0.70
     Davidson diagonalization with overlap
     ethr =  9.14E-08,  avg # of iterations =  2.8

     total cpu time spent up to now is        2.0 secs

     total energy              =    -151.66211429 Ry
     Harris-Foulkes estimate   =    -151.66307731 Ry
     estimated scf accuracy    <       0.00278251 Ry

     iteration # 25     ecut=    70.00 Ry     beta=0.70
     Davidson diagonalization with overlap
     ethr =  9.14E-08,  avg # of iterations =  4.3

     total cpu time spent up to now is        2.1 secs

     total energy              =    -151.66259498 Ry
     Harris-Foulkes estimate   =    -151.66268322 Ry
     estimated scf accuracy    <       0.00024420 Ry

     iteration # 26     ecut=    70.00 Ry     beta=0.70
     Davidson diagonalization with overlap
     ethr =  9.14E-08,  avg # of iterations =  3.7

     total cpu time spent up to now is        2.2 secs

     total energy              =    -151.66264162 Ry
     Harris-Foulkes estimate   =    -151.66265102 Ry
     estimated scf accuracy    <       0.00003403 Ry

     iteration # 27     ecut=    70.00 Ry     beta=0.70
     Davidson diagonalization with overlap
     ethr =  9.14E-08,  avg # of iterations =  2.7

     total cpu time spent up to now is        2.3 secs

     End of self-consistent calculation

          k = 0.0000 0.0000 0.0000 (  3575 PWs)   bands (ev):

   -76.7476 -43.4403 -43.4403 -43.4403 -14.3236  -0.9519   0.3999   0.3999

          k = 0.0000 0.0000 0.2500 (  3539 PWs)   bands (ev):

   -76.7476 -43.4408 -43.4397 -43.4397 -14.2861  -1.3855   0.4722   0.4722

          k = 0.0000 0.0000-0.5000 (  3546 PWs)   bands (ev):

   -76.7475 -43.4415 -43.4405 -43.4405 -14.2479  -1.7296   0.5468   0.5468

          k = 0.0000 0.2500 0.2500 (  3553 PWs)   bands (ev):

   -76.7475 -43.4411 -43.4409 -43.4403 -14.2522  -1.2334  -0.1316   0.5353

          k = 0.0000 0.2500-0.5000 (  3552 PWs)   bands (ev):

   -76.7475 -43.4413 -43.4412 -43.4408 -14.2177  -1.2851  -0.1396   0.6003

          k = 0.0000-0.5000-0.5000 (  3532 PWs)   bands (ev):

   -76.7475 -43.4417 -43.4417 -43.4393 -14.1871  -0.6199  -0.6199   0.6558

          k = 0.2500 0.2500 0.2500 (  3560 PWs)   bands (ev):

   -76.7475 -43.4414 -43.4414 -43.4410 -14.2210  -0.9938   0.0258   0.0258

          k = 0.2500 0.2500-0.5000 (  3548 PWs)   bands (ev):

   -76.7475 -43.4416 -43.4411 -43.4411 -14.1893  -0.9049  -0.1030   0.1986

          k = 0.2500-0.5000-0.5000 (  3520 PWs)   bands (ev):

   -76.7475 -43.4408 -43.4408 -43.4406 -14.1606  -0.3940  -0.3940   0.2344

          k =-0.5000-0.5000-0.5000 (  3544 PWs)   bands (ev):

   -76.7474 -43.4418 -43.4418 -43.4418 -14.1337  -0.1312  -0.1312  -0.1312

     highest occupied level (ev):     0.6558

!    total energy              =    -151.66264572 Ry
     Harris-Foulkes estimate   =    -151.66264572 Ry
     estimated scf accuracy    <          2.3E-09 Ry

     The total energy is the sum of the following terms:

     one-electron contribution =    -116.71418027 Ry
     hartree contribution      =      56.67392536 Ry
     xc contribution           =     -23.72031002 Ry
     ewald contribution        =     -67.90208079 Ry

     convergence has been achieved in  27 iterations

     Forces acting on atoms (cartesian axes, Ry/au):

     atom    1 type  1   force =     0.00000000    0.00000000    0.00000000
     atom    2 type  2   force =     0.00000000    0.00000000    0.00000000

     Total force =     0.000000     Total SCF correction =     0.000000


     Computing stress (Cartesian axis) and pressure

          total   stress  (Ry/bohr**3)                   (kbar)     P= -193.24
  -0.00131365   0.00000000   0.00000000       -193.24      0.00      0.00
   0.00000000  -0.00131365   0.00000000          0.00   -193.24      0.00
   0.00000000   0.00000000  -0.00131365          0.00      0.00   -193.24


     Writing output data file diamond.7.1.70.4.save
 
     init_run     :      0.06s CPU      0.07s WALL (       1 calls)
     electrons    :      2.02s CPU      2.08s WALL (       1 calls)
     forces       :      0.01s CPU      0.02s WALL (       1 calls)
     stress       :      0.04s CPU      0.04s WALL (       1 calls)

     Called by init_run:
     wfcinit      :      0.02s CPU      0.02s WALL (       1 calls)
     potinit      :      0.01s CPU      0.01s WALL (       1 calls)

     Called by electrons:
     c_bands      :      1.66s CPU      1.70s WALL (      27 calls)
     sum_band     :      0.24s CPU      0.25s WALL (      27 calls)
     v_of_rho     :      0.09s CPU      0.09s WALL (      28 calls)
     mix_rho      :      0.02s CPU      0.03s WALL (      27 calls)

     Called by c_bands:
     init_us_2    :      0.07s CPU      0.06s WALL (     570 calls)
     cegterg      :      1.51s CPU      1.56s WALL (     270 calls)

     Called by sum_band:

     Called by *egterg:
     h_psi        :      1.16s CPU      1.20s WALL (    1188 calls)
     g_psi        :      0.01s CPU      0.01s WALL (     908 calls)
     cdiaghg      :      0.16s CPU      0.16s WALL (    1178 calls)

     Called by h_psi:
     h_psi:pot    :      1.16s CPU      1.19s WALL (    1188 calls)
     h_psi:calbec :      0.07s CPU      0.07s WALL (    1188 calls)
     vloc_psi     :      1.06s CPU      1.09s WALL (    1188 calls)
     add_vuspsi   :      0.03s CPU      0.03s WALL (    1188 calls)

     General routines
     calbec       :      0.07s CPU      0.07s WALL (    1238 calls)
     fft          :      0.04s CPU      0.04s WALL (     332 calls)
     fftw         :      1.15s CPU      1.15s WALL (   15442 calls)
     davcio       :      0.00s CPU      0.00s WALL (      10 calls)
 
     Parallel routines
     fft_scatter  :      0.35s CPU      0.39s WALL (   15774 calls)
 
     PWSCF        :     2.32s CPU         2.41s WALL

 
   This run was terminated on:  16:53:15  19Apr2018            

=------------------------------------------------------------------------------=
   JOB DONE.
=------------------------------------------------------------------------------=
