
     Program PWSCF v.6.1 (svn rev. 13369) starts on 19Apr2018 at 16:10:12 

     This program is part of the open-source Quantum ESPRESSO suite
     for quantum simulation of materials; please cite
         "P. Giannozzi et al., J. Phys.:Condens. Matter 21 395502 (2009);
          URL http://www.quantum-espresso.org", 
     in publications or presentations arising from this work. More details at
     http://www.quantum-espresso.org/quote

     Parallel version (MPI), running on     8 processors
     R & G space division:  proc/nbgrp/npool/nimage =       8
     Waiting for input...
     Reading input from standard input

     Current dimensions of program PWSCF are:
     Max number of different atomic species (ntypx) = 10
     Max number of k-points (npk) =  40000
     Max angular momentum in pseudopotentials (lmaxx) =  3

     Subspace diagonalization in iterative solution of the eigenvalue problem:
     a serial algorithm will be used

 
     Parallelization info
     --------------------
     sticks:   dense  smooth     PW     G-vecs:    dense   smooth      PW
     Min         164     164     48                 4516     4516     716
     Max         165     165     49                 4521     4521     719
     Sum        1313    1313    385                36137    36137    5743
 


     bravais-lattice index     =            8
     lattice parameter (alat)  =       7.7000  a.u.
     unit-cell volume          =     456.5330 (a.u.)^3
     number of atoms/cell      =            2
     number of atomic types    =            2
     number of electrons       =        16.00
     number of Kohn-Sham states=            8
     kinetic-energy cutoff     =      70.0000  Ry
     charge density cutoff     =     280.0000  Ry
     convergence threshold     =      1.0E-08
     mixing beta               =       0.7000
     number of iterations used =            8  plain     mixing
     Exchange-correlation      = PBE ( 1  4  3  4 0 0)

     celldm(1)=   7.700000  celldm(2)=   1.000000  celldm(3)=   1.000000
     celldm(4)=   0.000000  celldm(5)=   0.000000  celldm(6)=   0.000000

     crystal axes: (cart. coord. in units of alat)
               a(1) = (   1.000000   0.000000   0.000000 )  
               a(2) = (   0.000000   1.000000   0.000000 )  
               a(3) = (   0.000000   0.000000   1.000000 )  

     reciprocal axes: (cart. coord. in units 2 pi/alat)
               b(1) = (  1.000000  0.000000  0.000000 )  
               b(2) = (  0.000000  1.000000  0.000000 )  
               b(3) = (  0.000000  0.000000  1.000000 )  


     PseudoPot. # 1 for Mg read from file:
     ../pseudo/Mg.pbe.UPF
     MD5 check sum: 4c04d8c6e0476e83eaecaf72fa8acc4d
     Pseudo is Norm-conserving, Zval = 10.0
     Generated using ONCVPSP code by D. R. Hamann
     Using radial grid of 1510 points,  4 beta functions with: 
                l(1) =   0
                l(2) =   0
                l(3) =   1
                l(4) =   1

     PseudoPot. # 2 for O  read from file:
     ../pseudo/O.pbe.UPF
     MD5 check sum: 3e3f909f7470e8921608ab6b1f57bbae
     Pseudo is Norm-conserving + core correction, Zval =  6.0
     Generated using ONCVPSP code by D. R. Hamann
     Using radial grid of  936 points,  5 beta functions with: 
                l(1) =   0
                l(2) =   0
                l(3) =   1
                l(4) =   1
                l(5) =   2

     atomic species   valence    mass     pseudopotential
        Mg            10.00    24.30500     Mg( 1.00)
        O              6.00    15.99940     O ( 1.00)

     48 Sym. Ops., with inversion, found



   Cartesian axes

     site n.     atom                  positions (alat units)
         1           Mg  tau(   1) = (   0.0000000   0.0000000   0.0000000  )
         2           O   tau(   2) = (   0.5000000   0.5000000   0.5000000  )

     number of k points=    10
                       cart. coord. in units 2pi/alat
        k(    1) = (   0.0000000   0.0000000   0.0000000), wk =   0.0312500
        k(    2) = (   0.0000000   0.0000000   0.2500000), wk =   0.1875000
        k(    3) = (   0.0000000   0.0000000  -0.5000000), wk =   0.0937500
        k(    4) = (   0.0000000   0.2500000   0.2500000), wk =   0.3750000
        k(    5) = (   0.0000000   0.2500000  -0.5000000), wk =   0.3750000
        k(    6) = (   0.0000000  -0.5000000  -0.5000000), wk =   0.0937500
        k(    7) = (   0.2500000   0.2500000   0.2500000), wk =   0.2500000
        k(    8) = (   0.2500000   0.2500000  -0.5000000), wk =   0.3750000
        k(    9) = (   0.2500000  -0.5000000  -0.5000000), wk =   0.1875000
        k(   10) = (  -0.5000000  -0.5000000  -0.5000000), wk =   0.0312500

     Dense  grid:    36137 G-vectors     FFT dimensions: (  45,  45,  45)

     Estimated max dynamical RAM per process >       3.96MB

     Estimated total allocated dynamical RAM >      31.68MB

     Check: negative/imaginary core charge=   -0.000004    0.000000

     Initial potential from superposition of free atoms

     starting charge   15.99920, renormalised to   16.00000
     Starting wfc are    9 randomized atomic wfcs

     total cpu time spent up to now is        0.2 secs

     per-process dynamical memory:    35.3 Mb

     Self-consistent Calculation

     iteration #  1     ecut=    70.00 Ry     beta=0.70
     Davidson diagonalization with overlap
     ethr =  1.00E-02,  avg # of iterations =  2.0

     total cpu time spent up to now is        0.3 secs

     total energy              =    -150.58373790 Ry
     Harris-Foulkes estimate   =    -151.89628156 Ry
     estimated scf accuracy    <       1.66465753 Ry

     iteration #  2     ecut=    70.00 Ry     beta=0.70
     Davidson diagonalization with overlap
     ethr =  1.00E-02,  avg # of iterations =  4.2

     total cpu time spent up to now is        0.4 secs

     total energy              =    -150.19098941 Ry
     Harris-Foulkes estimate   =    -153.98701464 Ry
     estimated scf accuracy    <      13.09569242 Ry

     iteration #  3     ecut=    70.00 Ry     beta=0.70
     Davidson diagonalization with overlap
     ethr =  1.00E-02,  avg # of iterations =  4.1

     total cpu time spent up to now is        0.6 secs

     total energy              =    -151.47563861 Ry
     Harris-Foulkes estimate   =    -151.43799654 Ry
     estimated scf accuracy    <       0.16694502 Ry

     iteration #  4     ecut=    70.00 Ry     beta=0.70
     Davidson diagonalization with overlap
     ethr =  1.04E-03,  avg # of iterations =  1.8

     total cpu time spent up to now is        0.6 secs

     total energy              =    -151.36813655 Ry
     Harris-Foulkes estimate   =    -151.48303664 Ry
     estimated scf accuracy    <       0.36078771 Ry

     iteration #  5     ecut=    70.00 Ry     beta=0.70
     Davidson diagonalization with overlap
     ethr =  1.04E-03,  avg # of iterations =  2.6

     total cpu time spent up to now is        0.7 secs

     total energy              =    -151.40501975 Ry
     Harris-Foulkes estimate   =    -151.40755447 Ry
     estimated scf accuracy    <       0.01411607 Ry

     iteration #  6     ecut=    70.00 Ry     beta=0.70
     Davidson diagonalization with overlap
     ethr =  8.82E-05,  avg # of iterations =  1.3

     total cpu time spent up to now is        0.8 secs

     total energy              =    -151.40354816 Ry
     Harris-Foulkes estimate   =    -151.40545473 Ry
     estimated scf accuracy    <       0.00646990 Ry

     iteration #  7     ecut=    70.00 Ry     beta=0.70
     Davidson diagonalization with overlap
     ethr =  4.04E-05,  avg # of iterations =  2.1

     total cpu time spent up to now is        0.9 secs

     total energy              =    -151.40394537 Ry
     Harris-Foulkes estimate   =    -151.40421063 Ry
     estimated scf accuracy    <       0.00074209 Ry

     iteration #  8     ecut=    70.00 Ry     beta=0.70
     Davidson diagonalization with overlap
     ethr =  4.64E-06,  avg # of iterations =  2.1

     total cpu time spent up to now is        1.0 secs

     total energy              =    -151.40397630 Ry
     Harris-Foulkes estimate   =    -151.40401953 Ry
     estimated scf accuracy    <       0.00010199 Ry

     iteration #  9     ecut=    70.00 Ry     beta=0.70
     Davidson diagonalization with overlap
     ethr =  6.37E-07,  avg # of iterations =  2.0

     total cpu time spent up to now is        1.1 secs

     total energy              =    -151.40398223 Ry
     Harris-Foulkes estimate   =    -151.40398376 Ry
     estimated scf accuracy    <       0.00000532 Ry

     iteration # 10     ecut=    70.00 Ry     beta=0.70
     Davidson diagonalization with overlap
     ethr =  3.33E-08,  avg # of iterations =  5.3

     total cpu time spent up to now is        1.2 secs

     total energy              =    -151.57282140 Ry
     Harris-Foulkes estimate   =    -151.57229067 Ry
     estimated scf accuracy    <       0.29357264 Ry

     iteration # 11     ecut=    70.00 Ry     beta=0.70
     Davidson diagonalization with overlap
     ethr =  3.33E-08,  avg # of iterations =  2.5

     total cpu time spent up to now is        1.3 secs

     total energy              =    -151.57212680 Ry
     Harris-Foulkes estimate   =    -151.57282224 Ry
     estimated scf accuracy    <       0.29616374 Ry

     iteration # 12     ecut=    70.00 Ry     beta=0.70
     Davidson diagonalization with overlap
     ethr =  3.33E-08,  avg # of iterations =  2.5

     total cpu time spent up to now is        1.4 secs

     total energy              =    -151.56638654 Ry
     Harris-Foulkes estimate   =    -151.57212816 Ry
     estimated scf accuracy    <       0.29284313 Ry

     iteration # 13     ecut=    70.00 Ry     beta=0.70
     Davidson diagonalization with overlap
     ethr =  3.33E-08,  avg # of iterations =  4.6

     total cpu time spent up to now is        1.5 secs

     total energy              =    -151.65796671 Ry
     Harris-Foulkes estimate   =    -151.65177770 Ry
     estimated scf accuracy    <       0.54500381 Ry

     iteration # 14     ecut=    70.00 Ry     beta=0.70
     Davidson diagonalization with overlap
     ethr =  3.33E-08,  avg # of iterations =  3.8

     total cpu time spent up to now is        1.6 secs

     total energy              =    -151.65783604 Ry
     Harris-Foulkes estimate   =    -151.65803149 Ry
     estimated scf accuracy    <       0.57777474 Ry

     iteration # 15     ecut=    70.00 Ry     beta=0.70
     Davidson diagonalization with overlap
     ethr =  3.33E-08,  avg # of iterations =  1.0

     total cpu time spent up to now is        1.7 secs

     total energy              =    -151.66232087 Ry
     Harris-Foulkes estimate   =    -151.65783610 Ry
     estimated scf accuracy    <       0.57702420 Ry

     iteration # 16     ecut=    70.00 Ry     beta=0.70
     Davidson diagonalization with overlap
     ethr =  3.33E-08,  avg # of iterations =  3.6

     total cpu time spent up to now is        1.8 secs

     total energy              =    -151.66847740 Ry
     Harris-Foulkes estimate   =    -151.66235080 Ry
     estimated scf accuracy    <       0.59976318 Ry

     iteration # 17     ecut=    70.00 Ry     beta=0.70
     Davidson diagonalization with overlap
     ethr =  3.33E-08,  avg # of iterations =  3.7

     total cpu time spent up to now is        2.0 secs

     total energy              =    -151.67662102 Ry
     Harris-Foulkes estimate   =    -151.66853123 Ry
     estimated scf accuracy    <       0.63067397 Ry

     iteration # 18     ecut=    70.00 Ry     beta=0.70
     Davidson diagonalization with overlap
     ethr =  3.33E-08,  avg # of iterations =  3.9

     total cpu time spent up to now is        2.1 secs

     total energy              =    -151.56000835 Ry
     Harris-Foulkes estimate   =    -151.67669529 Ry
     estimated scf accuracy    <       0.66759015 Ry

     iteration # 19     ecut=    70.00 Ry     beta=0.70
     Davidson diagonalization with overlap
     ethr =  3.33E-08,  avg # of iterations =  5.8

     total cpu time spent up to now is        2.3 secs

     total energy              =    -151.58559595 Ry
     Harris-Foulkes estimate   =    -151.58388640 Ry
     estimated scf accuracy    <       0.13045312 Ry

     iteration # 20     ecut=    70.00 Ry     beta=0.70
     Davidson diagonalization with overlap
     ethr =  3.33E-08,  avg # of iterations =  3.9

     total cpu time spent up to now is        2.4 secs

     total energy              =    -151.56472539 Ry
     Harris-Foulkes estimate   =    -151.58562579 Ry
     estimated scf accuracy    <       0.14239354 Ry

     iteration # 21     ecut=    70.00 Ry     beta=0.70
     Davidson diagonalization with overlap
     ethr =  3.33E-08,  avg # of iterations =  5.3

     total cpu time spent up to now is        2.5 secs

     total energy              =    -151.55999043 Ry
     Harris-Foulkes estimate   =    -151.56903577 Ry
     estimated scf accuracy    <       0.03169422 Ry

     iteration # 22     ecut=    70.00 Ry     beta=0.70
     Davidson diagonalization with overlap
     ethr =  3.33E-08,  avg # of iterations =  5.6

     total cpu time spent up to now is        2.7 secs

     total energy              =    -151.56492755 Ry
     Harris-Foulkes estimate   =    -151.56517715 Ry
     estimated scf accuracy    <       0.00204388 Ry

     iteration # 23     ecut=    70.00 Ry     beta=0.70
     Davidson diagonalization with overlap
     ethr =  3.33E-08,  avg # of iterations =  4.1

     total cpu time spent up to now is        2.8 secs

     total energy              =    -151.56587666 Ry
     Harris-Foulkes estimate   =    -151.56496550 Ry
     estimated scf accuracy    <       0.00077124 Ry

     iteration # 24     ecut=    70.00 Ry     beta=0.70
     Davidson diagonalization with overlap
     ethr =  3.33E-08,  avg # of iterations =  5.0

     total cpu time spent up to now is        3.0 secs

     total energy              =    -151.56696889 Ry
     Harris-Foulkes estimate   =    -151.56714933 Ry
     estimated scf accuracy    <       0.01740507 Ry

     iteration # 25     ecut=    70.00 Ry     beta=0.70
     Davidson diagonalization with overlap
     ethr =  3.33E-08,  avg # of iterations =  3.6

     total cpu time spent up to now is        3.1 secs

     total energy              =    -151.56570970 Ry
     Harris-Foulkes estimate   =    -151.56697134 Ry
     estimated scf accuracy    <       0.01620142 Ry

     iteration # 26     ecut=    70.00 Ry     beta=0.70
     Davidson diagonalization with overlap
     ethr =  3.33E-08,  avg # of iterations =  4.5

     total cpu time spent up to now is        3.2 secs

     total energy              =    -151.56385680 Ry
     Harris-Foulkes estimate   =    -151.56586188 Ry
     estimated scf accuracy    <       0.00802131 Ry

     iteration # 27     ecut=    70.00 Ry     beta=0.70
     Davidson diagonalization with overlap
     ethr =  3.33E-08,  avg # of iterations =  4.9

     total cpu time spent up to now is        3.3 secs

     total energy              =    -151.56475603 Ry
     Harris-Foulkes estimate   =    -151.56475796 Ry
     estimated scf accuracy    <       0.00000838 Ry

     iteration # 28     ecut=    70.00 Ry     beta=0.70
     Davidson diagonalization with overlap
     ethr =  3.33E-08,  avg # of iterations =  1.7

     total cpu time spent up to now is        3.4 secs

     total energy              =    -151.56475555 Ry
     Harris-Foulkes estimate   =    -151.56475632 Ry
     estimated scf accuracy    <       0.00000275 Ry

     iteration # 29     ecut=    70.00 Ry     beta=0.70
     Davidson diagonalization with overlap
     ethr =  1.72E-08,  avg # of iterations =  2.6

     total cpu time spent up to now is        3.5 secs

     total energy              =    -151.56475604 Ry
     Harris-Foulkes estimate   =    -151.56475608 Ry
     estimated scf accuracy    <       0.00000015 Ry

     iteration # 30     ecut=    70.00 Ry     beta=0.70
     Davidson diagonalization with overlap
     ethr =  9.61E-10,  avg # of iterations =  2.8

     total cpu time spent up to now is        3.6 secs

     End of self-consistent calculation

          k = 0.0000 0.0000 0.0000 (  4553 PWs)   bands (ev):

   -78.2931 -44.9885 -44.9885 -44.9885 -15.2665  -2.1248  -0.6310  -0.6310

          k = 0.0000 0.0000 0.2500 (  4545 PWs)   bands (ev):

   -78.2931 -44.9888 -44.9884 -44.9884 -15.2504  -2.2453  -0.5801  -0.5801

          k = 0.0000 0.0000-0.5000 (  4484 PWs)   bands (ev):

   -78.2931 -44.9876 -44.9873 -44.9873 -15.2342  -2.3804  -0.5273  -0.5273

          k = 0.0000 0.2500 0.2500 (  4545 PWs)   bands (ev):

   -78.2931 -44.9889 -44.9886 -44.9885 -15.2356  -2.0632  -0.9863  -0.5369

          k = 0.0000 0.2500-0.5000 (  4486 PWs)   bands (ev):

   -78.2931 -44.9880 -44.9875 -44.9871 -15.2207  -1.9815  -0.9947  -0.4922

          k = 0.0000-0.5000-0.5000 (  4500 PWs)   bands (ev):

   -78.2931 -44.9886 -44.9886 -44.9872 -15.2071  -1.3319  -1.3319  -0.4566

          k = 0.2500 0.2500 0.2500 (  4485 PWs)   bands (ev):

   -78.2931 -44.9879 -44.9879 -44.9869 -15.2218  -1.8196  -0.8744  -0.8744

          k = 0.2500 0.2500-0.5000 (  4494 PWs)   bands (ev):

   -78.2931 -44.9885 -44.9876 -44.9876 -15.2079  -1.6405  -0.9687  -0.7547

          k = 0.2500-0.5000-0.5000 (  4524 PWs)   bands (ev):

   -78.2931 -44.9889 -44.9889 -44.9882 -15.1950  -1.1653  -1.1653  -0.7315

          k =-0.5000-0.5000-0.5000 (  4632 PWs)   bands (ev):

   -78.2931 -44.9908 -44.9908 -44.9908 -15.1828  -0.9768  -0.9768  -0.9768

     highest occupied level (ev):    -0.4566

!    total energy              =    -151.56475605 Ry
     Harris-Foulkes estimate   =    -151.56475606 Ry
     estimated scf accuracy    <          5.1E-09 Ry

     The total energy is the sum of the following terms:

     one-electron contribution =    -125.70084714 Ry
     hartree contribution      =      60.38835070 Ry
     xc contribution           =     -23.64125006 Ry
     ewald contribution        =     -62.61100956 Ry

     convergence has been achieved in  30 iterations

     Forces acting on atoms (cartesian axes, Ry/au):

     atom    1 type  1   force =     0.00000000    0.00000000    0.00000000
     atom    2 type  2   force =     0.00000000    0.00000000    0.00000000

     Total force =     0.000000     Total SCF correction =     0.000000


     Computing stress (Cartesian axis) and pressure

          total   stress  (Ry/bohr**3)                   (kbar)     P= -141.47
  -0.00096167   0.00000000   0.00000000       -141.47      0.00      0.00
   0.00000000  -0.00096167   0.00000000          0.00   -141.47      0.00
   0.00000000   0.00000000  -0.00096167          0.00      0.00   -141.47


     Writing output data file diamond.7.7.70.4.save
 
     init_run     :      0.08s CPU      0.09s WALL (       1 calls)
     electrons    :      3.31s CPU      3.38s WALL (       1 calls)
     forces       :      0.02s CPU      0.02s WALL (       1 calls)
     stress       :      0.05s CPU      0.05s WALL (       1 calls)

     Called by init_run:
     wfcinit      :      0.03s CPU      0.04s WALL (       1 calls)
     potinit      :      0.01s CPU      0.01s WALL (       1 calls)

     Called by electrons:
     c_bands      :      2.68s CPU      2.73s WALL (      30 calls)
     sum_band     :      0.44s CPU      0.45s WALL (      30 calls)
     v_of_rho     :      0.15s CPU      0.16s WALL (      31 calls)
     mix_rho      :      0.04s CPU      0.04s WALL (      30 calls)

     Called by c_bands:
     init_us_2    :      0.09s CPU      0.08s WALL (     630 calls)
     cegterg      :      2.48s CPU      2.53s WALL (     300 calls)

     Called by sum_band:

     Called by *egterg:
     h_psi        :      2.07s CPU      2.11s WALL (    1339 calls)
     g_psi        :      0.01s CPU      0.02s WALL (    1029 calls)
     cdiaghg      :      0.17s CPU      0.17s WALL (    1329 calls)

     Called by h_psi:
     h_psi:pot    :      2.06s CPU      2.10s WALL (    1339 calls)
     h_psi:calbec :      0.09s CPU      0.08s WALL (    1339 calls)
     vloc_psi     :      1.93s CPU      1.97s WALL (    1339 calls)
     add_vuspsi   :      0.04s CPU      0.04s WALL (    1339 calls)

     General routines
     calbec       :      0.09s CPU      0.08s WALL (    1389 calls)
     fft          :      0.07s CPU      0.07s WALL (     365 calls)
     fftw         :      2.17s CPU      2.12s WALL (   16758 calls)
     davcio       :      0.00s CPU      0.00s WALL (      10 calls)
 
     Parallel routines
     fft_scatter  :      0.52s CPU      0.56s WALL (   17123 calls)
 
     PWSCF        :     3.64s CPU         3.75s WALL

 
   This run was terminated on:  16:10:15  19Apr2018            

=------------------------------------------------------------------------------=
   JOB DONE.
=------------------------------------------------------------------------------=
