
     Program PWSCF v.6.1 (svn rev. 13369) starts on 19Apr2018 at 16:53: 2 

     This program is part of the open-source Quantum ESPRESSO suite
     for quantum simulation of materials; please cite
         "P. Giannozzi et al., J. Phys.:Condens. Matter 21 395502 (2009);
          URL http://www.quantum-espresso.org", 
     in publications or presentations arising from this work. More details at
     http://www.quantum-espresso.org/quote

     Parallel version (MPI), running on     8 processors
     R & G space division:  proc/nbgrp/npool/nimage =       8
     Waiting for input...
     Reading input from standard input

     Current dimensions of program PWSCF are:
     Max number of different atomic species (ntypx) = 10
     Max number of k-points (npk) =  40000
     Max angular momentum in pseudopotentials (lmaxx) =  3

     Subspace diagonalization in iterative solution of the eigenvalue problem:
     a serial algorithm will be used

 
     Parallelization info
     --------------------
     sticks:   dense  smooth     PW     G-vecs:    dense   smooth      PW
     Min         129     129     38                 3103     3103     508
     Max         130     130     39                 3106     3106     510
     Sum        1033    1033    305                24837    24837    4067
 


     bravais-lattice index     =            8
     lattice parameter (alat)  =       6.8000  a.u.
     unit-cell volume          =     314.4320 (a.u.)^3
     number of atoms/cell      =            2
     number of atomic types    =            2
     number of electrons       =        16.00
     number of Kohn-Sham states=            8
     kinetic-energy cutoff     =      70.0000  Ry
     charge density cutoff     =     280.0000  Ry
     convergence threshold     =      1.0E-08
     mixing beta               =       0.7000
     number of iterations used =            8  plain     mixing
     Exchange-correlation      = PBE ( 1  4  3  4 0 0)

     celldm(1)=   6.800000  celldm(2)=   1.000000  celldm(3)=   1.000000
     celldm(4)=   0.000000  celldm(5)=   0.000000  celldm(6)=   0.000000

     crystal axes: (cart. coord. in units of alat)
               a(1) = (   1.000000   0.000000   0.000000 )  
               a(2) = (   0.000000   1.000000   0.000000 )  
               a(3) = (   0.000000   0.000000   1.000000 )  

     reciprocal axes: (cart. coord. in units 2 pi/alat)
               b(1) = (  1.000000  0.000000  0.000000 )  
               b(2) = (  0.000000  1.000000  0.000000 )  
               b(3) = (  0.000000  0.000000  1.000000 )  


     PseudoPot. # 1 for Mg read from file:
     ../pseudo/Mg.pbe.UPF
     MD5 check sum: 4c04d8c6e0476e83eaecaf72fa8acc4d
     Pseudo is Norm-conserving, Zval = 10.0
     Generated using ONCVPSP code by D. R. Hamann
     Using radial grid of 1510 points,  4 beta functions with: 
                l(1) =   0
                l(2) =   0
                l(3) =   1
                l(4) =   1

     PseudoPot. # 2 for O  read from file:
     ../pseudo/O.pbe.UPF
     MD5 check sum: 3e3f909f7470e8921608ab6b1f57bbae
     Pseudo is Norm-conserving + core correction, Zval =  6.0
     Generated using ONCVPSP code by D. R. Hamann
     Using radial grid of  936 points,  5 beta functions with: 
                l(1) =   0
                l(2) =   0
                l(3) =   1
                l(4) =   1
                l(5) =   2

     atomic species   valence    mass     pseudopotential
        Mg            10.00    24.30500     Mg( 1.00)
        O              6.00    15.99940     O ( 1.00)

     48 Sym. Ops., with inversion, found



   Cartesian axes

     site n.     atom                  positions (alat units)
         1           Mg  tau(   1) = (   0.0000000   0.0000000   0.0000000  )
         2           O   tau(   2) = (   0.5000000   0.5000000   0.5000000  )

     number of k points=    10
                       cart. coord. in units 2pi/alat
        k(    1) = (   0.0000000   0.0000000   0.0000000), wk =   0.0312500
        k(    2) = (   0.0000000   0.0000000   0.2500000), wk =   0.1875000
        k(    3) = (   0.0000000   0.0000000  -0.5000000), wk =   0.0937500
        k(    4) = (   0.0000000   0.2500000   0.2500000), wk =   0.3750000
        k(    5) = (   0.0000000   0.2500000  -0.5000000), wk =   0.3750000
        k(    6) = (   0.0000000  -0.5000000  -0.5000000), wk =   0.0937500
        k(    7) = (   0.2500000   0.2500000   0.2500000), wk =   0.2500000
        k(    8) = (   0.2500000   0.2500000  -0.5000000), wk =   0.3750000
        k(    9) = (   0.2500000  -0.5000000  -0.5000000), wk =   0.1875000
        k(   10) = (  -0.5000000  -0.5000000  -0.5000000), wk =   0.0312500

     Dense  grid:    24837 G-vectors     FFT dimensions: (  40,  40,  40)

     Estimated max dynamical RAM per process >       2.71MB

     Estimated total allocated dynamical RAM >      21.67MB

     Check: negative/imaginary core charge=   -0.000005    0.000000

     Initial potential from superposition of free atoms

     starting charge   15.99920, renormalised to   16.00000
     Starting wfc are    9 randomized atomic wfcs

     total cpu time spent up to now is        0.2 secs

     per-process dynamical memory:    38.2 Mb

     Self-consistent Calculation

     iteration #  1     ecut=    70.00 Ry     beta=0.70
     Davidson diagonalization with overlap
     ethr =  1.00E-02,  avg # of iterations =  1.9

     total cpu time spent up to now is        0.3 secs

     total energy              =    -151.04764177 Ry
     Harris-Foulkes estimate   =    -151.94857061 Ry
     estimated scf accuracy    <       1.16325302 Ry

     iteration #  2     ecut=    70.00 Ry     beta=0.70
     Davidson diagonalization with overlap
     ethr =  7.27E-03,  avg # of iterations =  3.7

     total cpu time spent up to now is        0.3 secs

     total energy              =    -150.78781086 Ry
     Harris-Foulkes estimate   =    -152.94280378 Ry
     estimated scf accuracy    <       6.87444772 Ry

     iteration #  3     ecut=    70.00 Ry     beta=0.70
     Davidson diagonalization with overlap
     ethr =  7.27E-03,  avg # of iterations =  3.6

     total cpu time spent up to now is        0.4 secs

     total energy              =    -151.58815288 Ry
     Harris-Foulkes estimate   =    -151.61231641 Ry
     estimated scf accuracy    <       0.03759462 Ry

     iteration #  4     ecut=    70.00 Ry     beta=0.70
     Davidson diagonalization with overlap
     ethr =  2.35E-04,  avg # of iterations =  3.1

     total cpu time spent up to now is        0.5 secs

     total energy              =    -151.59355927 Ry
     Harris-Foulkes estimate   =    -151.62873677 Ry
     estimated scf accuracy    <       0.10090988 Ry

     iteration #  5     ecut=    70.00 Ry     beta=0.70
     Davidson diagonalization with overlap
     ethr =  2.35E-04,  avg # of iterations =  2.5

     total cpu time spent up to now is        0.5 secs

     total energy              =    -151.60653629 Ry
     Harris-Foulkes estimate   =    -151.60673492 Ry
     estimated scf accuracy    <       0.00049276 Ry

     iteration #  6     ecut=    70.00 Ry     beta=0.70
     Davidson diagonalization with overlap
     ethr =  3.08E-06,  avg # of iterations =  3.0

     total cpu time spent up to now is        0.6 secs

     total energy              =    -151.60667205 Ry
     Harris-Foulkes estimate   =    -151.60676744 Ry
     estimated scf accuracy    <       0.00021116 Ry

     iteration #  7     ecut=    70.00 Ry     beta=0.70
     Davidson diagonalization with overlap
     ethr =  1.32E-06,  avg # of iterations =  3.2

     total cpu time spent up to now is        0.7 secs

     total energy              =    -151.62905025 Ry
     Harris-Foulkes estimate   =    -151.62935841 Ry
     estimated scf accuracy    <       0.00153796 Ry

     iteration #  8     ecut=    70.00 Ry     beta=0.70
     Davidson diagonalization with overlap
     ethr =  1.32E-06,  avg # of iterations =  2.4

     total cpu time spent up to now is        0.7 secs

     total energy              =    -151.62887660 Ry
     Harris-Foulkes estimate   =    -151.62910584 Ry
     estimated scf accuracy    <       0.00038791 Ry

     iteration #  9     ecut=    70.00 Ry     beta=0.70
     Davidson diagonalization with overlap
     ethr =  1.32E-06,  avg # of iterations =  3.4

     total cpu time spent up to now is        0.8 secs

     total energy              =    -151.62865643 Ry
     Harris-Foulkes estimate   =    -151.62957833 Ry
     estimated scf accuracy    <       0.00256502 Ry

     iteration # 10     ecut=    70.00 Ry     beta=0.70
     Davidson diagonalization with overlap
     ethr =  1.32E-06,  avg # of iterations =  3.4

     total cpu time spent up to now is        0.9 secs

     total energy              =    -151.62903899 Ry
     Harris-Foulkes estimate   =    -151.62902792 Ry
     estimated scf accuracy    <       0.00000073 Ry

     iteration # 11     ecut=    70.00 Ry     beta=0.70
     Davidson diagonalization with overlap
     ethr =  4.53E-09,  avg # of iterations =  5.3

     total cpu time spent up to now is        1.0 secs

     total energy              =    -151.72680623 Ry
     Harris-Foulkes estimate   =    -151.72808924 Ry
     estimated scf accuracy    <       0.06118336 Ry

     iteration # 12     ecut=    70.00 Ry     beta=0.70
     Davidson diagonalization with overlap
     ethr =  4.53E-09,  avg # of iterations =  4.0

     total cpu time spent up to now is        1.0 secs

     total energy              =    -151.72870908 Ry
     Harris-Foulkes estimate   =    -151.72683157 Ry
     estimated scf accuracy    <       0.05456626 Ry

     iteration # 13     ecut=    70.00 Ry     beta=0.70
     Davidson diagonalization with overlap
     ethr =  4.53E-09,  avg # of iterations =  4.5

     total cpu time spent up to now is        1.1 secs

     total energy              =    -151.72659661 Ry
     Harris-Foulkes estimate   =    -151.72876629 Ry
     estimated scf accuracy    <       0.06466396 Ry

     iteration # 14     ecut=    70.00 Ry     beta=0.70
     Davidson diagonalization with overlap
     ethr =  4.53E-09,  avg # of iterations =  4.6

     total cpu time spent up to now is        1.2 secs

     total energy              =    -151.72641508 Ry
     Harris-Foulkes estimate   =    -151.72666278 Ry
     estimated scf accuracy    <       0.05380964 Ry

     iteration # 15     ecut=    70.00 Ry     beta=0.70
     Davidson diagonalization with overlap
     ethr =  4.53E-09,  avg # of iterations =  3.4

     total cpu time spent up to now is        1.3 secs

     total energy              =    -151.72637074 Ry
     Harris-Foulkes estimate   =    -151.72641610 Ry
     estimated scf accuracy    <       0.05253117 Ry

     iteration # 16     ecut=    70.00 Ry     beta=0.70
     Davidson diagonalization with overlap
     ethr =  4.53E-09,  avg # of iterations =  1.9

     total cpu time spent up to now is        1.4 secs

     total energy              =    -151.72694882 Ry
     Harris-Foulkes estimate   =    -151.72637078 Ry
     estimated scf accuracy    <       0.05231123 Ry

     iteration # 17     ecut=    70.00 Ry     beta=0.70
     Davidson diagonalization with overlap
     ethr =  4.53E-09,  avg # of iterations =  3.8

     total cpu time spent up to now is        1.4 secs

     total energy              =    -151.72599067 Ry
     Harris-Foulkes estimate   =    -151.72695455 Ry
     estimated scf accuracy    <       0.05535433 Ry

     iteration # 18     ecut=    70.00 Ry     beta=0.70
     Davidson diagonalization with overlap
     ethr =  4.53E-09,  avg # of iterations =  3.9

     total cpu time spent up to now is        1.5 secs

     total energy              =    -151.72295617 Ry
     Harris-Foulkes estimate   =    -151.72600635 Ry
     estimated scf accuracy    <       0.05037128 Ry

     iteration # 19     ecut=    70.00 Ry     beta=0.70
     Davidson diagonalization with overlap
     ethr =  4.53E-09,  avg # of iterations =  4.6

     total cpu time spent up to now is        1.6 secs

     total energy              =    -151.71181040 Ry
     Harris-Foulkes estimate   =    -151.72313571 Ry
     estimated scf accuracy    <       0.03520549 Ry

     iteration # 20     ecut=    70.00 Ry     beta=0.70
     Davidson diagonalization with overlap
     ethr =  4.53E-09,  avg # of iterations =  5.5

     total cpu time spent up to now is        1.7 secs

     total energy              =    -151.71661782 Ry
     Harris-Foulkes estimate   =    -151.71662089 Ry
     estimated scf accuracy    <       0.00002970 Ry

     iteration # 21     ecut=    70.00 Ry     beta=0.70
     Davidson diagonalization with overlap
     ethr =  4.53E-09,  avg # of iterations =  3.1

     total cpu time spent up to now is        1.8 secs

     total energy              =    -151.71661170 Ry
     Harris-Foulkes estimate   =    -151.71661805 Ry
     estimated scf accuracy    <       0.00001670 Ry

     iteration # 22     ecut=    70.00 Ry     beta=0.70
     Davidson diagonalization with overlap
     ethr =  4.53E-09,  avg # of iterations =  3.7

     total cpu time spent up to now is        1.9 secs

     total energy              =    -151.71661480 Ry
     Harris-Foulkes estimate   =    -151.71661492 Ry
     estimated scf accuracy    <       0.00000097 Ry

     iteration # 23     ecut=    70.00 Ry     beta=0.70
     Davidson diagonalization with overlap
     ethr =  4.53E-09,  avg # of iterations =  1.0

     total cpu time spent up to now is        1.9 secs

     total energy              =    -151.71661464 Ry
     Harris-Foulkes estimate   =    -151.71661481 Ry
     estimated scf accuracy    <       0.00000064 Ry

     iteration # 24     ecut=    70.00 Ry     beta=0.70
     Davidson diagonalization with overlap
     ethr =  3.98E-09,  avg # of iterations =  2.3

     total cpu time spent up to now is        2.0 secs

     total energy              =    -151.71661470 Ry
     Harris-Foulkes estimate   =    -151.71661470 Ry
     estimated scf accuracy    <       0.00000002 Ry

     iteration # 25     ecut=    70.00 Ry     beta=0.70
     Davidson diagonalization with overlap
     ethr =  1.50E-10,  avg # of iterations =  1.2

     total cpu time spent up to now is        2.0 secs

     total energy              =    -151.71661469 Ry
     Harris-Foulkes estimate   =    -151.71661470 Ry
     estimated scf accuracy    <       0.00000002 Ry

     iteration # 26     ecut=    70.00 Ry     beta=0.70
     Davidson diagonalization with overlap
     ethr =  1.23E-10,  avg # of iterations =  2.8

     total cpu time spent up to now is        2.1 secs

     End of self-consistent calculation

          k = 0.0000 0.0000 0.0000 (  3071 PWs)   bands (ev):

   -75.7470 -42.4380 -42.4380 -42.4380 -13.7729  -0.1493   1.0405   1.0405

          k = 0.0000 0.0000 0.2500 (  3094 PWs)   bands (ev):

   -75.7470 -42.4412 -42.4381 -42.4381 -13.7158  -0.8473   1.1260   1.1260

          k = 0.0000 0.0000-0.5000 (  3082 PWs)   bands (ev):

   -75.7469 -42.4412 -42.4377 -42.4377 -13.6573  -1.3332   1.2150   1.2150

          k = 0.0000 0.2500 0.2500 (  3081 PWs)   bands (ev):

   -75.7469 -42.4400 -42.4396 -42.4374 -13.6647  -0.7143   0.3942   1.2025

          k = 0.0000 0.2500-0.5000 (  3114 PWs)   bands (ev):

   -75.7468 -42.4425 -42.4404 -42.4382 -13.6125  -0.8631   0.3917   1.2811

          k = 0.0000-0.5000-0.5000 (  3136 PWs)   bands (ev):

   -75.7468 -42.4430 -42.4430 -42.4388 -13.5668  -0.1817  -0.1817   1.3490

          k = 0.2500 0.2500 0.2500 (  3115 PWs)   bands (ev):

   -75.7468 -42.4408 -42.4404 -42.4404 -13.6181  -0.4792   0.5789   0.5789

          k = 0.2500 0.2500-0.5000 (  3130 PWs)   bands (ev):

   -75.7468 -42.4425 -42.4408 -42.4407 -13.5705  -0.4590   0.4350   0.7833

          k = 0.2500-0.5000-0.5000 (  3112 PWs)   bands (ev):

   -75.7467 -42.4421 -42.4421 -42.4397 -13.5277   0.0768   0.0768   0.8285

          k =-0.5000-0.5000-0.5000 (  3112 PWs)   bands (ev):

   -75.7467 -42.4419 -42.4419 -42.4419 -13.4878   0.3818   0.3818   0.3818

     highest occupied level (ev):     1.3490

!    total energy              =    -151.71661469 Ry
     Harris-Foulkes estimate   =    -151.71661469 Ry
     estimated scf accuracy    <          1.9E-09 Ry

     The total energy is the sum of the following terms:

     one-electron contribution =    -111.71630606 Ry
     hartree contribution      =      54.67059781 Ry
     xc contribution           =     -23.77314562 Ry
     ewald contribution        =     -70.89776083 Ry

     convergence has been achieved in  26 iterations

     Forces acting on atoms (cartesian axes, Ry/au):

     atom    1 type  1   force =     0.00000000    0.00000000    0.00000000
     atom    2 type  2   force =     0.00000000    0.00000000    0.00000000

     Total force =     0.000000     Total SCF correction =     0.000000


     Computing stress (Cartesian axis) and pressure

          total   stress  (Ry/bohr**3)                   (kbar)     P= -222.56
  -0.00151296   0.00000000   0.00000000       -222.56      0.00      0.00
   0.00000000  -0.00151296   0.00000000          0.00   -222.56      0.00
   0.00000000   0.00000000  -0.00151296          0.00      0.00   -222.56


     Writing output data file diamond.6.8.70.4.save
 
     init_run     :      0.05s CPU      0.06s WALL (       1 calls)
     electrons    :      1.85s CPU      1.91s WALL (       1 calls)
     forces       :      0.02s CPU      0.02s WALL (       1 calls)
     stress       :      0.03s CPU      0.04s WALL (       1 calls)

     Called by init_run:
     wfcinit      :      0.02s CPU      0.02s WALL (       1 calls)
     potinit      :      0.01s CPU      0.01s WALL (       1 calls)

     Called by electrons:
     c_bands      :      1.51s CPU      1.56s WALL (      26 calls)
     sum_band     :      0.22s CPU      0.23s WALL (      26 calls)
     v_of_rho     :      0.09s CPU      0.09s WALL (      27 calls)
     mix_rho      :      0.02s CPU      0.02s WALL (      26 calls)

     Called by c_bands:
     init_us_2    :      0.05s CPU      0.05s WALL (     550 calls)
     cegterg      :      1.39s CPU      1.44s WALL (     260 calls)

     Called by sum_band:

     Called by *egterg:
     h_psi        :      1.07s CPU      1.11s WALL (    1128 calls)
     g_psi        :      0.01s CPU      0.01s WALL (     858 calls)
     cdiaghg      :      0.15s CPU      0.15s WALL (    1118 calls)

     Called by h_psi:
     h_psi:pot    :      1.07s CPU      1.10s WALL (    1128 calls)
     h_psi:calbec :      0.07s CPU      0.06s WALL (    1128 calls)
     vloc_psi     :      0.97s CPU      1.01s WALL (    1128 calls)
     add_vuspsi   :      0.02s CPU      0.03s WALL (    1128 calls)

     General routines
     calbec       :      0.07s CPU      0.06s WALL (    1178 calls)
     fft          :      0.04s CPU      0.04s WALL (     321 calls)
     fftw         :      1.05s CPU      1.07s WALL (   14802 calls)
     davcio       :      0.00s CPU      0.00s WALL (      10 calls)
 
     Parallel routines
     fft_scatter  :      0.32s CPU      0.35s WALL (   15123 calls)
 
     PWSCF        :     2.13s CPU         2.23s WALL

 
   This run was terminated on:  16:53: 4  19Apr2018            

=------------------------------------------------------------------------------=
   JOB DONE.
=------------------------------------------------------------------------------=
