# Time   VAF(t)
0.000000  7.605517
0.019992  6.688475
0.039984  4.300796
0.059976  1.296049
0.079968  -1.435389
0.099960  -3.286130
0.119952  -4.035162
0.139944  -3.800956
0.159936  -2.920696
0.179928  -1.809707
0.199920  -0.833151
0.219912  -0.211072
0.239904  0.021477
0.259896  -0.013348
0.279888  -0.117733
0.299880  -0.116832
0.319872  0.067257
0.339864  0.393289
0.359856  0.732387
0.379848  0.933162
0.399840  0.890192
0.419832  0.587997
0.439824  0.105129
0.459816  -0.418611
0.479808  -0.833653
0.499800  -1.029404
0.519792  -0.965083
0.539784  -0.675662
0.559776  -0.254004
0.579768  0.182748
0.599760  0.530703
0.619752  0.729052
0.639744  0.773258
0.659736  0.707341
0.679728  0.598692
0.699720  0.506979
0.719712  0.460792
0.739704  0.450463
0.759696  0.437760
0.779688  0.376457
0.799680  0.233838
0.819672  0.004598
0.839664  -0.286385
0.859656  -0.591093
0.879648  -0.851509
0.899640  -1.014347
0.919632  -1.043325
0.939624  -0.926847
0.959616  -0.680452
0.979608  -0.344216
0.999600  0.024305
1.019592  0.361129
1.039584  0.609957
1.059576  0.735359
1.079568  0.729860
1.099560  0.612707
1.119552  0.421835
1.139544  0.202709
1.159536  -0.002242
1.179528  -0.161446
1.199520  -0.258837
1.219512  -0.294642
1.239504  -0.281997
1.259496  -0.240167
1.279488  -0.186585
1.299480  -0.131583
1.319472  -0.078166
1.339464  -0.025380
1.359456  0.027714
1.379448  0.079884
1.399440  0.127891
1.419432  0.167437
1.439424  0.193969
1.459416  0.203162
1.479408  0.191787
1.499400  0.159373
1.519392  0.109693
1.539384  0.050721
1.559376  -0.007138
1.579368  -0.053552
1.599360  -0.080734
1.619352  -0.085745
1.639344  -0.071988
1.659336  -0.048669
1.679328  -0.027816
1.699320  -0.020198
1.719312  -0.031850
1.739304  -0.062156
1.759296  -0.104016
1.779288  -0.145807
1.799280  -0.174272
1.819272  -0.178166
1.839264  -0.152213
1.859256  -0.099559
1.879248  -0.031111
1.899240  0.038258
1.919232  0.094723
1.939224  0.129308
1.959216  0.139343
1.979208  0.127629
1.999200  0.100197
2.019192  0.064058
2.039184  0.025794
2.059176  -0.008892
2.079168  -0.035076
2.099160  -0.048315
2.119152  -0.044728
2.139144  -0.021974
2.159136  0.019460
2.179128  0.074908
2.199120  0.134597
2.219112  0.184854
2.239104  0.211956
2.259096  0.206247
2.279088  0.164323
2.299080  0.089552
2.319072  -0.008129
2.339064  -0.112919
2.359056  -0.205541
2.379048  -0.268056
2.399040  -0.289439
2.419032  -0.268868
2.439024  -0.215018
2.459016  -0.141952
2.479008  -0.064297
2.499000  0.005598
2.518992  0.058203
2.538984  0.087316
2.558976  0.091711
2.578968  0.076656
2.598960  0.052852
2.618952  0.031999
2.638944  0.021588
2.658936  0.022989
2.678928  0.033217
2.698920  0.047432
2.718912  0.060337
2.738904  0.067086
2.758896  0.064665
2.778888  0.053409
2.798880  0.037156
2.818872  0.021440
2.838864  0.010432
2.858856  0.004955
2.878848  0.003083
2.898840  0.002304
2.918832  0.001325
2.938824  0.000115
2.958816  -0.001256
2.978808  -0.003635
2.998800  -0.009058
3.018792  -0.019992
3.038784  -0.037325
3.058776  -0.058490
3.078768  -0.077718
3.098760  -0.088476
3.118752  -0.086237
3.138744  -0.070120
3.158736  -0.042921
3.178728  -0.009907
3.198720  0.022696
3.218712  0.048982
3.238704  0.064403
3.258696  0.066676
3.278688  0.056069
3.298680  0.035091
3.318672  0.008169
3.338664  -0.018687
3.358656  -0.039176
3.378648  -0.048892
3.398640  -0.046622
3.418632  -0.033676
3.438624  -0.012434
3.458616  0.014353
3.478608  0.043059
3.498600  0.068762
3.518592  0.086384
3.538584  0.092759
3.558576  0.087670
3.578568  0.073071
3.598560  0.051745
3.618552  0.026541
3.638544  -0.000015
3.658536  -0.025764
3.678528  -0.048791
3.698520  -0.067464
3.718512  -0.080660
3.738504  -0.087896
3.758496  -0.088905
3.778488  -0.083059
3.798480  -0.069600
3.818472  -0.048618
3.838464  -0.021819
3.858456  0.007547
3.878448  0.035190
3.898440  0.056603
3.918432  0.067975
3.938424  0.066677
3.958416  0.051478
3.978408  0.023409
3.998400  -0.012772
4.018392  -0.048260
4.038384  -0.072499
4.058376  -0.077196
4.078368  -0.059802
4.098360  -0.024674
4.118352  0.018490
4.138344  0.057943
4.158336  0.083766
4.178328  0.090931
4.198320  0.080642
4.218312  0.059495
4.238304  0.036606
4.258296  0.019926
4.278288  0.013364
4.298280  0.015959
4.318272  0.022949
4.338264  0.027867
4.358256  0.024917
4.378248  0.011119
4.398240  -0.012746
4.418232  -0.042911
4.438224  -0.074258
4.458216  -0.101915
4.478208  -0.121916
4.498200  -0.130729
4.518192  -0.124854
4.538184  -0.101882
4.558176  -0.062814
4.578168  -0.013432
4.598160  0.037078
4.618152  0.079306
4.638144  0.106414
4.658136  0.115474
4.678128  0.107329
4.698120  0.085974
4.718112  0.057556
4.738104  0.028219
4.758096  0.001639
4.778088  -0.021211
4.798080  -0.039844
4.818072  -0.052579
4.838064  -0.056645
4.858056  -0.049168
4.878048  -0.028255
4.898040  0.005580
4.918032  0.048051
4.938024  0.090851
4.958016  0.123096
4.978008  0.134227
4.998000  0.117318
5.017992  0.071721
5.037984  0.004232
5.057976  -0.071740
5.077968  -0.139343
5.097960  -0.183162
5.117952  -0.193612
5.137944  -0.169483
5.157936  -0.118426
5.177928  -0.054644
5.197920  0.005957
5.217912  0.050777
5.237904  0.073394
5.257896  0.074127
5.277888  0.058976
5.297880  0.037341
5.317872  0.019042
5.337864  0.011383
5.357856  0.016966
5.377848  0.033081
5.397840  0.053281
5.417832  0.070063
5.437824  0.077094
5.457816  0.070342
5.477808  0.048662
5.497800  0.014323
5.517792  -0.026358
5.537784  -0.063546
5.557776  -0.087145
5.577768  -0.091469
5.597760  -0.077446
5.617752  -0.050688
5.637744  -0.018135
5.657736  0.014066
5.677728  0.041321
5.697720  0.060928
5.717712  0.071863
5.737704  0.073561
5.757696  0.064819
5.777688  0.044426
5.797680  0.012820
5.817672  -0.026836
5.837664  -0.068642
5.857656  -0.104637
5.877648  -0.126422
5.897640  -0.128141
5.917632  -0.109303
5.937624  -0.075040
5.957616  -0.033423
5.977608  0.007894
5.997600  0.043871
6.017592  0.072368
6.037584  0.092818
6.057576  0.104935
6.077568  0.108247
6.097560  0.102546
6.117552  0.088439
6.137544  0.067289
6.157536  0.040786
6.177528  0.010798
6.197520  -0.020030
6.217512  -0.047569
6.237504  -0.066918
6.257496  -0.074509
6.277488  -0.069824
6.297480  -0.055745
6.317472  -0.037578
6.337464  -0.020905
6.357456  -0.009222
6.377448  -0.002635
6.397440  0.001726
6.417432  0.007857
6.437424  0.018427
6.457416  0.032769
6.477408  0.046202
6.497400  0.051338
6.517392  0.041873
6.537384  0.017026
6.557376  -0.016777
6.577368  -0.048394
6.597360  -0.067430
6.617352  -0.068818
6.637344  -0.053935
6.657336  -0.028974
6.677328  -0.002410
6.697320  0.017581
6.717312  0.025571
6.737304  0.021111
6.757296  0.009560
6.777288  0.000133
6.797280  0.001708
6.817272  0.018200
6.837264  0.045706
6.857256  0.073213
6.877248  0.086892
6.897240  0.076249
6.917232  0.039794
6.937224  -0.012901
6.957216  -0.064879
6.977208  -0.099228
6.997200  -0.106257
7.017192  -0.086634
7.037184  -0.049355
7.057176  -0.007176
7.077168  0.027902
7.097160  0.048114
7.117152  0.051721
7.137144  0.042441
7.157136  0.026860
7.177128  0.011779
7.197120  0.002799
7.217112  0.003286
7.237104  0.012820
7.257096  0.026157
7.277088  0.034651
7.297080  0.030156
7.317072  0.009360
7.337064  -0.023697
7.357056  -0.058595
7.377048  -0.082902
7.397040  -0.087626
7.417032  -0.071275
7.437024  -0.040441
7.457016  -0.006226
7.477008  0.021265
7.497000  0.036596
7.516992  0.039339
7.536984  0.032615
7.556976  0.021455
7.576968  0.010861
7.596960  0.003888
7.616952  0.001120
7.636944  0.001476
7.656936  0.003458
7.676928  0.006273
7.696920  0.010416
7.716912  0.017377
7.736904  0.028125
7.756896  0.041421
7.776888  0.053669
7.796880  0.060217
7.816872  0.056948
7.836864  0.041783
7.856856  0.016246
7.876848  -0.013882
7.896840  -0.040134
7.916832  -0.055001
7.936824  -0.055797
7.956816  -0.046296
7.976808  -0.034642
7.996800  -0.029093
8.016792  -0.034204
8.036784  -0.049088
8.056776  -0.068090
8.076768  -0.083220
8.096760  -0.087318
8.116752  -0.076591
8.136744  -0.051336
8.156736  -0.014933
8.176728  0.027736
8.196720  0.071435
8.216712  0.110601
8.236704  0.139017
8.256696  0.150943
8.276688  0.143144
8.296680  0.115927
8.316672  0.073130
8.336664  0.021431
8.356656  -0.031047
8.376648  -0.076444
8.396640  -0.108641
8.416632  -0.123830
8.436624  -0.119892
8.456616  -0.096373
8.476608  -0.056054
8.496600  -0.005930
8.516592  0.044123
8.536584  0.084507
8.556576  0.108507
8.576568  0.112900
8.596560  0.097211
8.616552  0.063183
8.636544  0.015186
8.656536  -0.039650
8.676528  -0.092593
8.696520  -0.134703
8.716512  -0.158044
8.736504  -0.157167
8.756496  -0.130799
8.776488  -0.083211
8.796480  -0.023856
8.816472  0.035558
8.836464  0.084724
8.856456  0.116853
8.876448  0.129288
8.896440  0.123425
8.916432  0.104064
8.936424  0.077939
8.956416  0.051463
8.976408  0.028704
8.996400  0.010594
9.016392  -0.004183
9.036384  -0.017031
9.056376  -0.027996
9.076368  -0.036402
9.096360  -0.042345
9.116352  -0.046747
9.136344  -0.049722
9.156336  -0.049579
9.176328  -0.043642
9.196320  -0.030004
9.216312  -0.009186
9.236304  0.015366
9.256296  0.038343
9.276288  0.054601
9.296280  0.060654
9.316272  0.054781
9.336264  0.036913
9.356256  0.009289
9.376248  -0.023323
9.396240  -0.054773
9.416232  -0.079350
9.436224  -0.092823
9.456216  -0.092638
9.476208  -0.078029
9.496200  -0.050142
9.516192  -0.012373
9.536184  0.029035
9.556176  0.065359
9.576168  0.088103
9.596160  0.092392
9.616152  0.078365
9.636144  0.050398
9.656136  0.015651
9.676128  -0.017359
9.696120  -0.040769
9.716112  -0.049826
9.736104  -0.043823
9.756096  -0.025148
9.776088  0.002012
9.796080  0.032306
9.816072  0.059319
9.836064  0.076116
9.856056  0.077333
9.876048  0.061612
9.896040  0.032424
9.916032  -0.003366
9.936024  -0.038011
9.956016  -0.065035
9.976008  -0.080202
9.996000  -0.081656
10.015992  -0.070156
10.035984  -0.049211
10.055976  -0.024153
10.075968  -0.000401
10.095960  0.018265
10.115952  0.030883
10.135944  0.038905
10.155936  0.043960
10.175928  0.045379
10.195920  0.039643
10.215912  0.022988
10.235904  -0.004369
10.255896  -0.036660
10.275888  -0.064919
10.295880  -0.080776
10.315872  -0.079142
10.335864  -0.059618
10.355856  -0.026564
10.375848  0.012234
10.395840  0.047785
10.415832  0.072495
10.435824  0.082329
10.455816  0.077465
10.475808  0.061251
10.495800  0.038624
10.515792  0.014868
10.535784  -0.005274
10.555776  -0.018519
10.575768  -0.023634
10.595760  -0.021236
10.615752  -0.013665
10.635744  -0.004783
10.655736  0.001235
10.675728  0.001662
10.695720  -0.003778
10.715712  -0.013235
10.735704  -0.023622
10.755696  -0.031559
10.775688  -0.034408
10.795680  -0.031216
10.815672  -0.023336
10.835664  -0.013944
10.855656  -0.006545
10.875648  -0.003173
10.895640  -0.002990
10.915632  -0.002238
10.935624  0.003738
10.955616  0.016862
10.975608  0.034171
10.995600  0.049137
11.015592  0.055200
11.035584  0.048750
11.055576  0.030228
11.075568  0.003928
11.095560  -0.023095
11.115552  -0.043215
11.135544  -0.051067
11.155536  -0.045605
11.175528  -0.030125
11.195520  -0.010496
11.215512  0.007021
11.235504  0.017787
11.255496  0.020318
11.275488  0.016700
11.295480  0.011417
11.315472  0.009155
11.335464  0.012513
11.355456  0.020718
11.375448  0.030171
11.395440  0.036217
11.415432  0.034940
11.435424  0.024625
11.455416  0.006632
11.475408  -0.015062
11.495400  -0.035351
11.515392  -0.049413
11.535384  -0.053809
11.555376  -0.047734
11.575368  -0.034123
11.595360  -0.019129
11.615352  -0.009564
11.635344  -0.009608
11.655336  -0.018311
11.675328  -0.028983
11.695320  -0.031410
11.715312  -0.017030
11.735304  0.015296
11.755296  0.056956
11.775288  0.092895
11.795280  0.108902
11.815272  0.098087
11.835264  0.063112
11.855256  0.013982
11.875248  -0.036562
11.895240  -0.077199
11.915232  -0.100538
11.935224  -0.104023
11.955216  -0.089679
11.975208  -0.062717
11.995200  -0.029209
12.015192  0.006040
12.035184  0.040110
12.055176  0.070834
12.075168  0.094955
12.095160  0.107634
12.115152  0.104126
12.135144  0.082332
12.155136  0.044818
12.175128  -0.000948
12.195120  -0.044837
12.215112  -0.077832
12.235104  -0.094927
12.255096  -0.095536
12.275088  -0.081941
12.295080  -0.057972
12.315072  -0.028827
12.335064  -0.000726
12.355056  0.020840
12.375048  0.033366
12.395040  0.038049
12.415032  0.038463
12.435024  0.038536
12.455016  0.040691
12.475008  0.044306
12.495000  0.045383
12.514992  0.038710
12.534984  0.021598
12.554976  -0.003596
12.574968  -0.029894
12.594960  -0.049032
12.614952  -0.055697
12.634944  -0.049948
12.654936  -0.036607
12.674928  -0.022441
12.694920  -0.012975
12.714912  -0.010224
12.734904  -0.012044
12.754896  -0.013440
12.774888  -0.008940
12.794880  0.005152
12.814872  0.028629
12.834864  0.056093
12.854856  0.078060
12.874848  0.084716
12.894840  0.070071
12.914832  0.034383
12.934824  -0.015424
12.954816  -0.067392
12.974808  -0.107997
12.994800  -0.126363
13.014792  -0.117458
13.034784  -0.083182
13.054776  -0.031762
13.074768  0.024358
13.094760  0.072308
13.114752  0.103204
13.134744  0.114521
13.154736  0.109037
13.174728  0.092054
13.194720  0.069201
13.214712  0.044976
13.234704  0.021295
13.254696  -0.003113
13.274688  -0.030846
13.294680  -0.062114
13.314672  -0.092251
13.334664  -0.112633
13.354656  -0.114549
13.374648  -0.093779
13.394640  -0.053579
13.414632  -0.004784
13.434624  0.037404
13.454616  0.058991
13.474608  0.053008
13.494600  0.023385
13.514592  -0.015735
13.534584  -0.046077
13.554576  -0.053470
13.574568  -0.033526
13.594560  0.007286
13.614552  0.054724
13.634544  0.092366
13.654536  0.107733
13.674528  0.096479
13.694520  0.063363
13.714512  0.020048
13.734504  -0.019306
13.754496  -0.042703
13.774488  -0.043809
13.794480  -0.024495
13.814472  0.004989
13.834464  0.029893
13.854456  0.037393
13.874448  0.021705
13.894440  -0.014094
13.914432  -0.059137
13.934424  -0.098334
13.954416  -0.117537
13.974408  -0.108470
13.994400  -0.072137
14.014392  -0.019008
14.034384  0.034809
14.054376  0.073645
14.074368  0.088035
14.094360  0.077810
14.114352  0.051291
14.134344  0.021222
14.154336  -0.000522
14.174328  -0.007376
14.194320  -0.000585
14.214312  0.011724
14.234304  0.019260
14.254296  0.015306
14.274288  -0.000033
14.294280  -0.020769
14.314272  -0.038720
14.334264  -0.047458
14.354256  -0.044197
14.374248  -0.029698
14.394240  -0.007611
14.414232  0.016629
14.434224  0.037287
14.454216  0.049353
14.474208  0.049625
14.494200  0.037962
14.514192  0.017418
14.534184  -0.006730
14.554176  -0.028298
14.574168  -0.041783
14.594160  -0.043873
14.614152  -0.034659
14.634144  -0.018230
14.654136  -0.001947
14.674128  0.006469
14.694120  0.002947
14.714112  -0.010067
14.734104  -0.023916
14.754096  -0.028119
14.774088  -0.016695
14.794080  0.008297
14.814072  0.038795
14.834064  0.065524
14.854056  0.081312
14.874048  0.082299
14.894040  0.068403
14.914032  0.043020
14.934024  0.012044
14.954016  -0.017933
14.974008  -0.041754
14.994000  -0.057207
15.013992  -0.065329
15.033984  -0.068818
15.053976  -0.069238
15.073968  -0.065387
15.093960  -0.054180
15.113952  -0.033412
15.133944  -0.004215
15.153936  0.028404
15.173928  0.056919
15.193920  0.073938
15.213912  0.075320
15.233904  0.061850
15.253896  0.038226
15.273888  0.010700
15.293880  -0.014888
15.313872  -0.034465
15.333864  -0.046228
15.353856  -0.050070
15.373848  -0.046665
15.393840  -0.037298
15.413832  -0.024119
15.433824  -0.009960
15.453816  0.002308
15.473808  0.010323
15.493800  0.012865
15.513792  0.010694
15.533784  0.007199
15.553776  0.007528
15.573768  0.015996
15.593760  0.033431
15.613752  0.056244
15.633744  0.077556
15.653736  0.089670
15.673728  0.086508
15.693720  0.065730
15.713712  0.030038
15.733704  -0.013393
15.753696  -0.055244
15.773688  -0.087165
15.793680  -0.104281
15.813672  -0.105897
15.833664  -0.094437
15.853656  -0.073858
15.873648  -0.048659
15.893640  -0.023669
15.913632  -0.003641
15.933624  0.008262
15.953616  0.011985
15.973608  0.010840
15.993600  0.010386
16.013592  0.015680
16.033584  0.028269
16.053576  0.045385
16.073568  0.061770
16.093560  0.072074
16.113552  0.072322
16.133544  0.060560
16.153536  0.037257
16.173528  0.005251
16.193520  -0.030049
16.213512  -0.060423
16.233504  -0.076548
16.253496  -0.071813
16.273488  -0.045410
16.293480  -0.002926
16.313472  0.044979
16.333464  0.085360
16.353456  0.106493
16.373448  0.100797
16.393440  0.066985
16.413432  0.011150
16.433424  -0.054168
16.453416  -0.113162
16.473408  -0.151089
16.493400  -0.158575
16.513392  -0.134746
16.533384  -0.087446
16.553376  -0.030170
16.573368  0.022689
16.593360  0.060832
16.613352  0.081237
16.633344  0.087382
16.653336  0.084767
16.673328  0.076943
16.693320  0.064970
16.713312  0.049230
16.733304  0.030846
16.753296  0.011757
16.773288  -0.005712
16.793280  -0.019060
16.813272  -0.025753
16.833264  -0.023952
16.853256  -0.014097
16.873248  -0.000019
16.893240  0.011669
16.913232  0.014480
16.933224  0.005736
16.953216  -0.012028
16.973208  -0.033005
16.993200  -0.050980
17.013192  -0.060992
17.033184  -0.059913
17.053176  -0.046942
17.073168  -0.024205
17.093160  0.003431
17.113152  0.029783
17.133144  0.049132
17.153136  0.057431
17.173128  0.052660
17.193120  0.035371
17.213112  0.009308
17.233104  -0.019006
17.253096  -0.042219
17.273088  -0.054424
17.293080  -0.052235
17.313072  -0.035000
17.333064  -0.004927
17.353056  0.032913
17.373048  0.070744
17.393040  0.099054
17.413032  0.109076
17.433024  0.096052
17.453016  0.061381
17.473008  0.012082
17.493000  -0.041729
17.512992  -0.089975
17.532984  -0.125109
17.552976  -0.142750
17.572968  -0.140920
17.592960  -0.119507
17.612952  -0.080618
17.632944  -0.029167
17.652936  0.026925
17.672928  0.077820
17.692920  0.114705
17.712912  0.132859
17.732904  0.132570
17.752896  0.117506
17.772888  0.092018
17.792880  0.059500
17.812872  0.022601
17.832864  -0.015631
17.852856  -0.051075
17.872848  -0.079007
17.892840  -0.095208
17.912832  -0.097130
17.932824  -0.084487
17.952816  -0.059239
17.972808  -0.025481
17.992800  0.010529
18.012792  0.040969
18.032784  0.058406
18.052776  0.058516
18.072768  0.041717
18.092760  0.013147
18.112752  -0.018651
18.132744  -0.044289
18.152736  -0.056202
18.172728  -0.050574
18.192720  -0.028792
18.212712  0.002276
18.232704  0.032262
18.252696  0.051342
18.272688  0.054316
18.292680  0.042370
18.312672  0.021816
18.332664  0.000831
18.352656  -0.013844
18.372648  -0.018763
18.392640  -0.014159
18.412632  -0.003557
18.432624  0.007557
18.452616  0.014126
18.472608  0.013749
18.492600  0.007693
18.512592  0.000013
18.532584  -0.005033
18.552576  -0.005721
18.572568  -0.004102
18.592560  -0.004754
18.612552  -0.011788
18.632544  -0.025963
18.652536  -0.043490
18.672528  -0.057493
18.692520  -0.061239
18.712512  -0.051089
18.732504  -0.027662
18.752496  0.005188
18.772488  0.042232
18.792480  0.078025
18.812472  0.106857
18.832464  0.122584
18.852456  0.119983
18.872448  0.097316
18.892440  0.057712
18.912432  0.008479
18.932424  -0.040891
18.952416  -0.081376
18.972408  -0.107165
18.992400  -0.117068
19.012392  -0.113628
19.032384  -0.100947
19.052376  -0.082512
19.072368  -0.059858
19.092360  -0.032841
19.112352  -0.001526
19.132344  0.031880
19.152336  0.062685
19.172328  0.085036
19.192320  0.094021
19.212312  0.087540
19.232304  0.067292
19.252296  0.038629
19.272288  0.009201
19.292280  -0.013275
19.312272  -0.023499
19.332264  -0.020360
19.352256  -0.007260
19.372248  0.009116
19.392240  0.021021
19.412232  0.022443
19.432224  0.011859
19.452216  -0.006858
19.472208  -0.026515
19.492200  -0.040510
19.512192  -0.045840
19.532184  -0.043440
19.552176  -0.036722
19.572168  -0.029552
19.592160  -0.024131
19.612152  -0.019754
19.632144  -0.013342
19.652136  -0.001743
19.672128  0.015334
19.692120  0.034065
19.712112  0.048225
19.732104  0.052637
19.752096  0.045524
19.772088  0.028851
19.792080  0.007321
19.812072  -0.013501
19.832064  -0.029038
19.852056  -0.036480
19.872048  -0.034685
19.892040  -0.024220
19.912032  -0.007876
19.932024  0.009247
19.952016  0.021425
19.972008  0.025261
